 Entering Gaussian System, Link 0=C:\G09W\g09.exe
 Input=C:\Users\123\Desktop\ML project\molecule_1.gjf
 Output=C:\Users\123\Desktop\ML project\molecule_1.log
 Initial command:
 C:/G09W\l1.exe ".\Gau-7776.inp" "C:\Users\123\Desktop\ML project\molecule_1.log" /scrdir=".\"
 Entering Link 1 = C:/G09W\l1.exe PID=      5420.
  
 Copyright (c) 1988,1990,1992,1993,1995,1998,2003,2009,2013,
            Gaussian, Inc.  All Rights Reserved.
  
 This is part of the Gaussian(R) 09 program.  It is based on
 the Gaussian(R) 03 system (copyright 2003, Gaussian, Inc.),
 the Gaussian(R) 98 system (copyright 1998, Gaussian, Inc.),
 the Gaussian(R) 94 system (copyright 1995, Gaussian, Inc.),
 the Gaussian 92(TM) system (copyright 1992, Gaussian, Inc.),
 the Gaussian 90(TM) system (copyright 1990, Gaussian, Inc.),
 the Gaussian 88(TM) system (copyright 1988, Gaussian, Inc.),
 the Gaussian 86(TM) system (copyright 1986, Carnegie Mellon
 University), and the Gaussian 82(TM) system (copyright 1983,
 Carnegie Mellon University). Gaussian is a federally registered
 trademark of Gaussian, Inc.
  
 This software contains proprietary and confidential information,
 including trade secrets, belonging to Gaussian, Inc.
  
 This software is provided under written license and may be
 used, copied, transmitted, or stored only in accord with that
 written license.
  
 The following legend is applicable only to US Government
 contracts under FAR:
  
                    RESTRICTED RIGHTS LEGEND
  
 Use, reproduction and disclosure by the US Government is
 subject to restrictions as set forth in subparagraphs (a)
 and (c) of the Commercial Computer Software - Restricted
 Rights clause in FAR 52.227-19.
  
 Gaussian, Inc.
 340 Quinnipiac St., Bldg. 40, Wallingford CT 06492
  
  
 ---------------------------------------------------------------
 Warning -- This program may not be used in any manner that
 competes with the business of Gaussian, Inc. or will provide
 assistance to any competitor of Gaussian, Inc.  The licensee
 of this program is prohibited from giving any competitor of
 Gaussian, Inc. access to this program.  By using this program,
 the user acknowledges that Gaussian, Inc. is engaged in the
 business of creating and licensing software in the field of
 computational chemistry and represents and warrants to the
 licensee that it is not a competitor of Gaussian, Inc. and that
 it will not use this program in any manner prohibited above.
 ---------------------------------------------------------------
  

 Cite this work as:
 Gaussian 09, Revision D.01,
 M. J. Frisch, G. W. Trucks, H. B. Schlegel, G. E. Scuseria, 
 M. A. Robb, J. R. Cheeseman, G. Scalmani, V. Barone, B. Mennucci, 
 G. A. Petersson, H. Nakatsuji, M. Caricato, X. Li, H. P. Hratchian, 
 A. F. Izmaylov, J. Bloino, G. Zheng, J. L. Sonnenberg, M. Hada, 
 M. Ehara, K. Toyota, R. Fukuda, J. Hasegawa, M. Ishida, T. Nakajima, 
 Y. Honda, O. Kitao, H. Nakai, T. Vreven, J. A. Montgomery, Jr., 
 J. E. Peralta, F. Ogliaro, M. Bearpark, J. J. Heyd, E. Brothers, 
 K. N. Kudin, V. N. Staroverov, T. Keith, R. Kobayashi, J. Normand, 
 K. Raghavachari, A. Rendell, J. C. Burant, S. S. Iyengar, J. Tomasi, 
 M. Cossi, N. Rega, J. M. Millam, M. Klene, J. E. Knox, J. B. Cross, 
 V. Bakken, C. Adamo, J. Jaramillo, R. Gomperts, R. E. Stratmann, 
 O. Yazyev, A. J. Austin, R. Cammi, C. Pomelli, J. W. Ochterski, 
 R. L. Martin, K. Morokuma, V. G. Zakrzewski, G. A. Voth, 
 P. Salvador, J. J. Dannenberg, S. Dapprich, A. D. Daniels, 
 O. Farkas, J. B. Foresman, J. V. Ortiz, J. Cioslowski, 
 and D. J. Fox, Gaussian, Inc., Wallingford CT, 2013.
 
 ******************************************
 Gaussian 09:  EM64W-G09RevD.01 13-Apr-2013
                24-Aug-2023 
 ******************************************
 %nprocshared=2
 Will use up to    2 processors via shared memory.
 %mem=4GB
 %chk=C:\Users\123\Desktop\ML project\molecule_1.chk
 --------------------------------------------------------------------
 # opt freq b3lyp/6-31+g(d) geom=connectivity empiricaldispersion=gd3
 --------------------------------------------------------------------
 1/14=-1,18=20,19=15,26=3,38=1,57=2/1,3;
 2/9=110,12=2,17=6,18=5,40=1/2;
 3/5=1,6=6,7=11,11=2,16=1,25=1,30=1,71=1,74=-5,124=31/1,2,3;
 4//1;
 5/5=2,38=5/2;
 6/7=2,8=2,9=2,10=2,28=1/1;
 7//1,2,3,16;
 1/14=-1,18=20,19=15,26=3/3(2);
 2/9=110/2;
 99//99;
 2/9=110/2;
 3/5=1,6=6,7=11,11=2,16=1,25=1,30=1,71=1,74=-5,124=31/1,2,3;
 4/5=5,16=3,69=1/1;
 5/5=2,38=5/2;
 7//1,2,3,16;
 1/14=-1,18=20,19=15,26=3/3(-5);
 2/9=110/2;
 6/7=2,8=2,9=2,10=2,19=2,28=1/1;
 99/9=1/99;
 -------------------
 Title Card Required
 -------------------
 Symbolic Z-matrix:
 Charge =  0 Multiplicity = 2
 C                    -6.55986  -2.3606   -1.17145 
 C                    -5.19617  -2.3366   -1.49349 
 C                    -4.50182  -1.11944  -1.51171 
 C                    -5.17116   0.07371  -1.20791 
 C                    -6.53485   0.04971  -0.88588 
 C                    -7.2292   -1.16745  -0.86765 
 H                    -7.09001  -3.28993  -1.15754 
 H                    -4.68512  -3.24759  -1.72545 
 H                    -4.64101   1.00304  -1.22182 
 H                    -7.0459    0.9607   -0.65392 
 H                    -8.2704   -1.18578  -0.62177 
 C                    -3.00326  -1.09306  -1.86559 
 C                    -1.83439  -1.07249  -2.14162 
 

 GradGradGradGradGradGradGradGradGradGradGradGradGradGradGradGradGradGrad
 Berny optimization.
 Initialization pass.
                           ----------------------------
                           !    Initial Parameters    !
                           ! (Angstroms and Degrees)  !
 --------------------------                            --------------------------
 ! Name  Definition              Value          Derivative Info.                !
 --------------------------------------------------------------------------------
 ! R1    R(1,2)                  1.4014         estimate D2E/DX2                !
 ! R2    R(1,6)                  1.4014         estimate D2E/DX2                !
 ! R3    R(1,7)                  1.07           estimate D2E/DX2                !
 ! R4    R(2,3)                  1.4014         estimate D2E/DX2                !
 ! R5    R(2,8)                  1.07           estimate D2E/DX2                !
 ! R6    R(3,4)                  1.4014         estimate D2E/DX2                !
 ! R7    R(3,12)                 1.54           estimate D2E/DX2                !
 ! R8    R(4,5)                  1.4014         estimate D2E/DX2                !
 ! R9    R(4,9)                  1.07           estimate D2E/DX2                !
 ! R10   R(5,6)                  1.4014         estimate D2E/DX2                !
 ! R11   R(5,10)                 1.07           estimate D2E/DX2                !
 ! R12   R(6,11)                 1.07           estimate D2E/DX2                !
 ! R13   R(12,13)                1.2012         estimate D2E/DX2                !
 ! A1    A(2,1,6)              120.0            estimate D2E/DX2                !
 ! A2    A(2,1,7)              120.0            estimate D2E/DX2                !
 ! A3    A(6,1,7)              120.0            estimate D2E/DX2                !
 ! A4    A(1,2,3)              120.0            estimate D2E/DX2                !
 ! A5    A(1,2,8)              120.0            estimate D2E/DX2                !
 ! A6    A(3,2,8)              120.0            estimate D2E/DX2                !
 ! A7    A(2,3,4)              120.0            estimate D2E/DX2                !
 ! A8    A(2,3,12)             120.0            estimate D2E/DX2                !
 ! A9    A(4,3,12)             120.0            estimate D2E/DX2                !
 ! A10   A(3,4,5)              120.0            estimate D2E/DX2                !
 ! A11   A(3,4,9)              120.0            estimate D2E/DX2                !
 ! A12   A(5,4,9)              120.0            estimate D2E/DX2                !
 ! A13   A(4,5,6)              120.0            estimate D2E/DX2                !
 ! A14   A(4,5,10)             120.0            estimate D2E/DX2                !
 ! A15   A(6,5,10)             120.0            estimate D2E/DX2                !
 ! A16   A(1,6,5)              120.0            estimate D2E/DX2                !
 ! A17   A(1,6,11)             120.0            estimate D2E/DX2                !
 ! A18   A(5,6,11)             120.0            estimate D2E/DX2                !
 ! A19   L(3,12,13,8,-1)       179.9999         estimate D2E/DX2                !
 ! A20   L(3,12,13,8,-2)       180.0            estimate D2E/DX2                !
 ! D1    D(6,1,2,3)              0.0            estimate D2E/DX2                !
 ! D2    D(6,1,2,8)           -179.9998         estimate D2E/DX2                !
 ! D3    D(7,1,2,3)            179.9998         estimate D2E/DX2                !
 ! D4    D(7,1,2,8)              0.0            estimate D2E/DX2                !
 ! D5    D(2,1,6,5)              0.0            estimate D2E/DX2                !
 ! D6    D(2,1,6,11)           179.9999         estimate D2E/DX2                !
 ! D7    D(7,1,6,5)           -179.9997         estimate D2E/DX2                !
 ! D8    D(7,1,6,11)             0.0001         estimate D2E/DX2                !
 ! D9    D(1,2,3,4)              0.0            estimate D2E/DX2                !
 ! D10   D(1,2,3,12)          -179.9999         estimate D2E/DX2                !
 ! D11   D(8,2,3,4)            179.9999         estimate D2E/DX2                !
 ! D12   D(8,2,3,12)            -0.0001         estimate D2E/DX2                !
 ! D13   D(2,3,4,5)             -0.0001         estimate D2E/DX2                !
 ! D14   D(2,3,4,9)           -180.0            estimate D2E/DX2                !
 ! D15   D(12,3,4,5)           179.9998         estimate D2E/DX2                !
 ! D16   D(12,3,4,9)            -0.0001         estimate D2E/DX2                !
 ! D17   D(3,4,5,6)              0.0002         estimate D2E/DX2                !
 ! D18   D(3,4,5,10)          -179.9998         estimate D2E/DX2                !
 ! D19   D(9,4,5,6)           -180.0            estimate D2E/DX2                !
 ! D20   D(9,4,5,10)             0.0            estimate D2E/DX2                !
 ! D21   D(4,5,6,1)             -0.0001         estimate D2E/DX2                !
 ! D22   D(4,5,6,11)          -180.0            estimate D2E/DX2                !
 ! D23   D(10,5,6,1)           179.9999         estimate D2E/DX2                !
 ! D24   D(10,5,6,11)            0.0            estimate D2E/DX2                !
 --------------------------------------------------------------------------------
 Trust Radius=3.00D-01 FncErr=1.00D-07 GrdErr=1.00D-06
 Number of steps in this run=     67 maximum allowed number of steps=    100.
 GradGradGradGradGradGradGradGradGradGradGradGradGradGradGradGradGradGrad

                          Input orientation:                          
 ---------------------------------------------------------------------
 Center     Atomic      Atomic             Coordinates (Angstroms)
 Number     Number       Type             X           Y           Z
 ---------------------------------------------------------------------
      1          6           0       -6.559857   -2.360602   -1.171455
      2          6           0       -5.196170   -2.336597   -1.493485
      3          6           0       -4.501821   -1.119441   -1.511711
      4          6           0       -5.171159    0.073711   -1.207906
      5          6           0       -6.534847    0.049707   -0.885877
      6          6           0       -7.229195   -1.167450   -0.867650
      7          1           0       -7.090008   -3.289927   -1.157542
      8          1           0       -4.685116   -3.247595   -1.725450
      9          1           0       -4.641009    1.003037   -1.221822
     10          1           0       -7.045902    0.960705   -0.653918
     11          1           0       -8.270401   -1.185778   -0.621775
     12          6           0       -3.003265   -1.093062   -1.865593
     13          6           0       -1.834391   -1.072488   -2.141622
 ---------------------------------------------------------------------
                    Distance matrix (angstroms):
                    1          2          3          4          5
     1  C    0.000000
     2  C    1.401400   0.000000
     3  C    2.427296   1.401400   0.000000
     4  C    2.802800   2.427296   1.401400   0.000000
     5  C    2.427296   2.802800   2.427296   1.401400   0.000000
     6  C    1.401400   2.427296   2.802800   2.427296   1.401400
     7  H    1.070000   2.146700   3.396345   3.872800   3.396345
     8  H    2.146700   1.070000   2.146700   3.396345   3.872800
     9  H    3.872800   3.396345   2.146700   1.070000   2.146700
    10  H    3.396345   3.872800   3.396345   2.146700   1.070000
    11  H    2.146700   3.396345   3.872800   3.396345   2.146700
    12  C    3.838989   2.548270   1.540000   2.548270   3.838989
    13  C    4.993044   3.649604   2.741200   3.649606   4.993045
                    6          7          8          9         10
     6  C    0.000000
     7  H    2.146700   0.000000
     8  H    3.396345   2.471400   0.000000
     9  H    3.396345   4.942800   4.280590   0.000000
    10  H    2.146700   4.280590   4.942800   2.471400   0.000000
    11  H    1.070000   2.471400   4.280590   4.280590   2.471400
    12  C    4.342800   4.693509   2.736837   2.736837   4.693509
    13  C    5.544000   5.788520   3.609837   3.609839   5.788522
                   11         12         13
    11  H    0.000000
    12  C    5.412800   0.000000
    13  C    6.614000   1.201200   0.000000
 Stoichiometry    C8H5(2)
 Framework group  C1[X(C8H5)]
 Deg. of freedom    33
 Full point group                 C1      NOp   1
 Largest Abelian subgroup         C1      NOp   1
 Largest concise Abelian subgroup C1      NOp   1
                         Standard orientation:                         
 ---------------------------------------------------------------------
 Center     Atomic      Atomic             Coordinates (Angstroms)
 Number     Number       Type             X           Y           Z
 ---------------------------------------------------------------------
      1          6           0       -1.456032    1.213648    0.000000
      2          6           0       -0.054632    1.213648   -0.000001
      3          6           0        0.646068    0.000000   -0.000002
      4          6           0       -0.054632   -1.213648   -0.000002
      5          6           0       -1.456032   -1.213648    0.000001
      6          6           0       -2.156732    0.000000    0.000000
      7          1           0       -1.991031    2.140296    0.000003
      8          1           0        0.480369    2.140295    0.000002
      9          1           0        0.480367   -2.140296   -0.000002
     10          1           0       -1.991033   -2.140295    0.000003
     11          1           0       -3.226732    0.000001    0.000003
     12          6           0        2.186068   -0.000001    0.000000
     13          6           0        3.387268    0.000001    0.000002
 ---------------------------------------------------------------------
 Rotational constants (GHZ):      5.6677155      1.5532090      1.2191163
 Standard basis: 6-31+G(d) (6D, 7F)
 There are   162 symmetry adapted cartesian basis functions of A   symmetry.
 There are   162 symmetry adapted basis functions of A   symmetry.
   162 basis functions,   276 primitive gaussians,   162 cartesian basis functions
    27 alpha electrons       26 beta electrons
       nuclear repulsion energy       287.2290533082 Hartrees.
 NAtoms=   13 NActive=   13 NUniq=   13 SFac= 1.00D+00 NAtFMM=   60 NAOKFM=F Big=F
 Integral buffers will be    131072 words long.
 Raffenetti 2 integral format.
 Two-electron integral symmetry is turned on.
 Nuclear repulsion after empirical dispersion term =      287.2221222651 Hartrees.
 One-electron integrals computed using PRISM.
 NBasis=   162 RedAO= T EigKep=  5.12D-06  NBF=   162
 NBsUse=   161 1.00D-06 EigRej=  5.34D-07 NBFU=   161
 ExpMin= 4.38D-02 ExpMax= 3.05D+03 ExpMxC= 4.57D+02 IAcc=2 IRadAn=         4 AccDes= 0.00D+00
 Harris functional with IExCor=  402 and IRadAn=       4 diagonalized for initial guess.
 HarFok:  IExCor=  402 AccDes= 0.00D+00 IRadAn=         4 IDoV= 1 UseB2=F ITyADJ=14
 ICtDFT=  3500011 ScaDFX=  1.000000  1.000000  1.000000  1.000000
 FoFCou: FMM=F IPFlag=           0 FMFlag=      100000 FMFlg1=           0
         NFxFlg=           0 DoJE=T BraDBF=F KetDBF=T FulRan=T
         wScrn=  0.000000 ICntrl=     500 IOpCl=  0 I1Cent=   200000004 NGrid=           0
         NMat0=    1 NMatS0=      1 NMatT0=    0 NMatD0=    1 NMtDS0=    0 NMtDT0=    0
 Petite list used in FoFCou.
 Initial guess <Sx>= 0.0000 <Sy>= 0.0000 <Sz>= 0.5000 <S**2>= 0.7500 S= 0.5000
 Keep R1 and R2 ints in memory in canonical form, NReq=176597168.
 Requested convergence on RMS density matrix=1.00D-08 within 128 cycles.
 Requested convergence on MAX density matrix=1.00D-06.
 Requested convergence on             energy=1.00D-06.
 No special actions if energy rises.
 EnCoef did     2 forward-backward iterations
 DSYEVD-2 returned Info=       13242 IAlg= 4 N=   161 NDim=   161 NE2=     2251007 trying  DSYEV.
 SCF Done:  E(UB3LYP) =  -307.685355122     A.U. after   29 cycles
            NFock= 29  Conv=0.92D-08     -V/T= 2.0101
 <Sx>= 0.0000 <Sy>= 0.0000 <Sz>= 0.5000 <S**2>= 0.7734 S= 0.5116
 <L.S>= 0.000000000000E+00
 Annihilation of the first spin contaminant:
 S**2 before annihilation     0.7734,   after     0.7503

 **********************************************************************

            Population analysis using the SCF density.

 **********************************************************************

 Orbital symmetries:
 Alpha Orbitals:
       Occupied  (A) (A) (A) (A) (A) (A) (A) (A) (A) (A) (A) (A)
                 (A) (A) (A) (A) (A) (A) (A) (A) (A) (A) (A) (A)
                 (A) (A) (A)
       Virtual   (A) (A) (A) (A) (A) (A) (A) (A) (A) (A) (A) (A)
                 (A) (A) (A) (A) (A) (A) (A) (A) (A) (A) (A) (A)
                 (A) (A) (A) (A) (A) (A) (A) (A) (A) (A) (A) (A)
                 (A) (A) (A) (A) (A) (A) (A) (A) (A) (A) (A) (A)
                 (A) (A) (A) (A) (A) (A) (A) (A) (A) (A) (A) (A)
                 (A) (A) (A) (A) (A) (A) (A) (A) (A) (A) (A) (A)
                 (A) (A) (A) (A) (A) (A) (A) (A) (A) (A) (A) (A)
                 (A) (A) (A) (A) (A) (A) (A) (A) (A) (A) (A) (A)
                 (A) (A) (A) (A) (A) (A) (A) (A) (A) (A) (A) (A)
                 (A) (A) (A) (A) (A) (A) (A) (A) (A) (A) (A) (A)
                 (A) (A) (A) (A) (A) (A) (A) (A) (A) (A) (A) (A)
                 (A) (A)
 Beta  Orbitals:
       Occupied  (A) (A) (A) (A) (A) (A) (A) (A) (A) (A) (A) (A)
                 (A) (A) (A) (A) (A) (A) (A) (A) (A) (A) (A) (A)
                 (A) (A)
       Virtual   (A) (A) (A) (A) (A) (A) (A) (A) (A) (A) (A) (A)
                 (A) (A) (A) (A) (A) (A) (A) (A) (A) (A) (A) (A)
                 (A) (A) (A) (A) (A) (A) (A) (A) (A) (A) (A) (A)
                 (A) (A) (A) (A) (A) (A) (A) (A) (A) (A) (A) (A)
                 (A) (A) (A) (A) (A) (A) (A) (A) (A) (A) (A) (A)
                 (A) (A) (A) (A) (A) (A) (A) (A) (A) (A) (A) (A)
                 (A) (A) (A) (A) (A) (A) (A) (A) (A) (A) (A) (A)
                 (A) (A) (A) (A) (A) (A) (A) (A) (A) (A) (A) (A)
                 (A) (A) (A) (A) (A) (A) (A) (A) (A) (A) (A) (A)
                 (A) (A) (A) (A) (A) (A) (A) (A) (A) (A) (A) (A)
                 (A) (A) (A) (A) (A) (A) (A) (A) (A) (A) (A) (A)
                 (A) (A) (A)
 The electronic state is 2-A.
 Alpha  occ. eigenvalues --  -10.24945 -10.24553 -10.22192 -10.21312 -10.21311
 Alpha  occ. eigenvalues --  -10.21091 -10.21070 -10.21001  -0.87575  -0.79298
 Alpha  occ. eigenvalues --   -0.76576  -0.75215  -0.63036  -0.62662  -0.55275
 Alpha  occ. eigenvalues --   -0.49850  -0.46938  -0.45726  -0.44258  -0.39985
 Alpha  occ. eigenvalues --   -0.39111  -0.36971  -0.36906  -0.32431  -0.30690
 Alpha  occ. eigenvalues --   -0.27022  -0.26038
 Alpha virt. eigenvalues --   -0.04629  -0.02769   0.00079   0.02042   0.02561
 Alpha virt. eigenvalues --    0.02569   0.04472   0.04719   0.04859   0.05501
 Alpha virt. eigenvalues --    0.06092   0.06872   0.08160   0.08754   0.08774
 Alpha virt. eigenvalues --    0.09863   0.11279   0.12505   0.13787   0.13788
 Alpha virt. eigenvalues --    0.14151   0.14894   0.15028   0.16283   0.16398
 Alpha virt. eigenvalues --    0.16588   0.19157   0.19581   0.20312   0.20516
 Alpha virt. eigenvalues --    0.20996   0.21949   0.22999   0.23124   0.23950
 Alpha virt. eigenvalues --    0.25681   0.26722   0.26800   0.28139   0.29103
 Alpha virt. eigenvalues --    0.29712   0.32003   0.33864   0.34052   0.34906
 Alpha virt. eigenvalues --    0.37544   0.51650   0.55232   0.58787   0.64946
 Alpha virt. eigenvalues --    0.66044   0.66721   0.67590   0.70613   0.70999
 Alpha virt. eigenvalues --    0.71136   0.71391   0.73485   0.73925   0.74343
 Alpha virt. eigenvalues --    0.74413   0.77055   0.80287   0.80642   0.82795
 Alpha virt. eigenvalues --    0.83310   0.86090   0.88142   0.91722   0.93365
 Alpha virt. eigenvalues --    0.94268   0.96571   1.00226   1.01018   1.07550
 Alpha virt. eigenvalues --    1.09235   1.13002   1.14915   1.16151   1.21852
 Alpha virt. eigenvalues --    1.23174   1.26219   1.30775   1.32061   1.33641
 Alpha virt. eigenvalues --    1.41875   1.43539   1.45060   1.45572   1.47250
 Alpha virt. eigenvalues --    1.48789   1.52545   1.54940   1.71715   1.73134
 Alpha virt. eigenvalues --    1.81422   1.83210   1.90457   1.91090   1.93329
 Alpha virt. eigenvalues --    1.96665   1.99513   2.06453   2.07012   2.10542
 Alpha virt. eigenvalues --    2.10930   2.13169   2.15537   2.15761   2.27124
 Alpha virt. eigenvalues --    2.28509   2.28548   2.40846   2.47418   2.55709
 Alpha virt. eigenvalues --    2.60408   2.62268   2.66373   2.66755   2.72152
 Alpha virt. eigenvalues --    2.72518   2.81656   2.82790   3.07643   3.20953
 Alpha virt. eigenvalues --    3.42027   4.12198   4.19335   4.22953   4.23580
 Alpha virt. eigenvalues --    4.33227   4.36942   4.54972   4.77246
  Beta  occ. eigenvalues --  -10.24473 -10.22914 -10.22131 -10.21341 -10.21341
  Beta  occ. eigenvalues --  -10.21089 -10.21056 -10.21013  -0.87570  -0.78759
  Beta  occ. eigenvalues --   -0.76594  -0.73733  -0.62714  -0.62680  -0.55030
  Beta  occ. eigenvalues --   -0.49621  -0.46951  -0.45447  -0.44259  -0.39130
  Beta  occ. eigenvalues --   -0.37570  -0.36903  -0.31793  -0.29267  -0.27088
  Beta  occ. eigenvalues --   -0.25178
  Beta virt. eigenvalues --   -0.19028  -0.04000  -0.02825   0.00096   0.02173
  Beta virt. eigenvalues --    0.02698   0.04089   0.04763   0.04944   0.05402
  Beta virt. eigenvalues --    0.05645   0.06414   0.07220   0.08618   0.08753
  Beta virt. eigenvalues --    0.09222   0.09955   0.11457   0.12850   0.13775
  Beta virt. eigenvalues --    0.14146   0.14165   0.14898   0.15544   0.16289
  Beta virt. eigenvalues --    0.16537   0.16708   0.19357   0.19591   0.20523
  Beta virt. eigenvalues --    0.20614   0.20996   0.22068   0.23151   0.23221
  Beta virt. eigenvalues --    0.23961   0.25755   0.26756   0.26785   0.28128
  Beta virt. eigenvalues --    0.29312   0.29906   0.31999   0.33864   0.34218
  Beta virt. eigenvalues --    0.35286   0.37820   0.54950   0.55292   0.58804
  Beta virt. eigenvalues --    0.65240   0.66354   0.66749   0.68120   0.70581
  Beta virt. eigenvalues --    0.71002   0.71208   0.72046   0.73461   0.73887
  Beta virt. eigenvalues --    0.74616   0.75718   0.77569   0.80555   0.80638
  Beta virt. eigenvalues --    0.82871   0.85998   0.88144   0.89848   0.92443
  Beta virt. eigenvalues --    0.93361   0.94384   0.96593   1.00211   1.01248
  Beta virt. eigenvalues --    1.07555   1.09306   1.13138   1.14925   1.16475
  Beta virt. eigenvalues --    1.22180   1.23154   1.26768   1.31730   1.33426
  Beta virt. eigenvalues --    1.33641   1.42054   1.43570   1.45085   1.45737
  Beta virt. eigenvalues --    1.47206   1.48775   1.53847   1.56538   1.75133
  Beta virt. eigenvalues --    1.75929   1.81589   1.83300   1.90481   1.92787
  Beta virt. eigenvalues --    1.94543   1.96828   1.99514   2.06762   2.07462
  Beta virt. eigenvalues --    2.11045   2.11784   2.13144   2.15729   2.16028
  Beta virt. eigenvalues --    2.27499   2.28506   2.28552   2.44277   2.49678
  Beta virt. eigenvalues --    2.56629   2.60421   2.62255   2.67792   2.69469
  Beta virt. eigenvalues --    2.72146   2.72547   2.82183   2.83409   3.08041
  Beta virt. eigenvalues --    3.23144   3.42636   4.15304   4.20556   4.22939
  Beta virt. eigenvalues --    4.24175   4.33393   4.36924   4.55039   4.77385
          Condensed to atoms (all electrons):
               1          2          3          4          5          6
     1  C    6.251798  -0.460179  -0.217915   0.351540  -0.519032   0.684255
     2  C   -0.460179  10.631906  -0.359154  -4.079001   0.351541  -0.236049
     3  C   -0.217915  -0.359154   8.517616  -0.359149  -0.217915  -0.363180
     4  C    0.351540  -4.079001  -0.359149  10.631920  -0.460192  -0.236049
     5  C   -0.519032   0.351541  -0.217915  -0.460192   6.251811   0.684256
     6  C    0.684255  -0.236049  -0.363180  -0.236049   0.684256   5.348812
     7  H    0.306824  -0.023162  -0.005484  -0.006324   0.008863   0.017216
     8  H   -0.041850   0.263865   0.013314   0.040200  -0.008937   0.006794
     9  H   -0.008937   0.040200   0.013314   0.263865  -0.041851   0.006794
    10  H    0.008863  -0.006324  -0.005484  -0.023162   0.306824   0.017216
    11  H   -0.007878   0.009266   0.000324   0.009266  -0.007878   0.287642
    12  C   -0.310401   0.229601  -1.428918   0.229605  -0.310406  -0.005736
    13  C    0.064519  -0.186832   0.478676  -0.186841   0.064521  -0.029923
               7          8          9         10         11         12
     1  C    0.306824  -0.041850  -0.008937   0.008863  -0.007878  -0.310401
     2  C   -0.023162   0.263865   0.040200  -0.006324   0.009266   0.229601
     3  C   -0.005484   0.013314   0.013314  -0.005484   0.000324  -1.428918
     4  C   -0.006324   0.040200   0.263865  -0.023162   0.009266   0.229605
     5  C    0.008863  -0.008937  -0.041851   0.306824  -0.007878  -0.310406
     6  C    0.017216   0.006794   0.006794   0.017216   0.287642  -0.005736
     7  H    0.529810  -0.004924   0.000016  -0.000171  -0.004991  -0.003277
     8  H   -0.004924   0.522954  -0.000152   0.000016  -0.000153   0.015326
     9  H    0.000016  -0.000152   0.522954  -0.004924  -0.000153   0.015326
    10  H   -0.000171   0.000016  -0.004924   0.529810  -0.004991  -0.003277
    11  H   -0.004991  -0.000153  -0.000153  -0.004991   0.535262   0.002117
    12  C   -0.003277   0.015326   0.015326  -0.003277   0.002117   7.917796
    13  C   -0.000143  -0.001929  -0.001929  -0.000143  -0.000232  -0.123333
              13
     1  C    0.064519
     2  C   -0.186832
     3  C    0.478676
     4  C   -0.186841
     5  C    0.064521
     6  C   -0.029923
     7  H   -0.000143
     8  H   -0.001929
     9  H   -0.001929
    10  H   -0.000143
    11  H   -0.000232
    12  C   -0.123333
    13  C    5.841347
          Atomic-Atomic Spin Densities.
               1          2          3          4          5          6
     1  C   -0.076444   0.000864   0.107288   0.015365   0.092473  -0.064340
     2  C    0.000864   0.085243  -0.154334  -0.121494   0.015366   0.070359
     3  C    0.107288  -0.154334   0.741421  -0.154340   0.107289  -0.004486
     4  C    0.015365  -0.121494  -0.154340   0.085244   0.000863   0.070360
     5  C    0.092473   0.015366   0.107289   0.000863  -0.076445  -0.064341
     6  C   -0.064340   0.070359  -0.004486   0.070360  -0.064341  -0.069667
     7  H   -0.002243   0.003553   0.000443  -0.000615  -0.000425  -0.001488
     8  H    0.002749  -0.003112  -0.000367  -0.000159   0.000062   0.000004
     9  H    0.000062  -0.000159  -0.000367  -0.003112   0.002749   0.000004
    10  H   -0.000425  -0.000615   0.000443   0.003553  -0.002243  -0.001488
    11  H    0.000289   0.000267  -0.000210   0.000267   0.000289  -0.000603
    12  C   -0.084803   0.123195  -0.861956   0.123205  -0.084803   0.057577
    13  C    0.031532  -0.043726   0.333482  -0.043731   0.031531  -0.013424
               7          8          9         10         11         12
     1  C   -0.002243   0.002749   0.000062  -0.000425   0.000289  -0.084803
     2  C    0.003553  -0.003112  -0.000159  -0.000615   0.000267   0.123195
     3  C    0.000443  -0.000367  -0.000367   0.000443  -0.000210  -0.861956
     4  C   -0.000615  -0.000159  -0.003112   0.003553   0.000267   0.123205
     5  C   -0.000425   0.000062   0.002749  -0.002243   0.000289  -0.084803
     6  C   -0.001488   0.000004   0.000004  -0.001488  -0.000603   0.057577
     7  H   -0.000342   0.000012   0.000000   0.000001  -0.000019   0.001004
     8  H    0.000012   0.001154   0.000000   0.000000   0.000000   0.001069
     9  H    0.000000   0.000000   0.001154   0.000012   0.000000   0.001069
    10  H    0.000001   0.000000   0.000012  -0.000342  -0.000019   0.001004
    11  H   -0.000019   0.000000   0.000000  -0.000019   0.001000  -0.000292
    12  C    0.001004   0.001069   0.001069   0.001004  -0.000292   0.925976
    13  C   -0.000171  -0.000276  -0.000276  -0.000171   0.000040  -0.570802
              13
     1  C    0.031532
     2  C   -0.043726
     3  C    0.333482
     4  C   -0.043731
     5  C    0.031531
     6  C   -0.013424
     7  H   -0.000171
     8  H   -0.000276
     9  H   -0.000276
    10  H   -0.000171
    11  H    0.000040
    12  C   -0.570802
    13  C    1.553536
 Mulliken charges and spin densities:
               1          2
     1  C   -0.101606   0.022365
     2  C   -0.175679  -0.024595
     3  C   -0.066044   0.114305
     4  C   -0.175678  -0.024595
     5  C   -0.101606   0.022365
     6  C   -0.182048  -0.021534
     7  H    0.185748  -0.000289
     8  H    0.195475   0.001135
     9  H    0.195475   0.001135
    10  H    0.185748  -0.000289
    11  H    0.182396   0.001010
    12  C   -0.224421  -0.368556
    13  C    0.082240   1.277545
 Sum of Mulliken charges =   0.00000   1.00000
 Mulliken charges and spin densities with hydrogens summed into heavy atoms:
               1          2
     1  C    0.084142   0.022075
     2  C    0.019797  -0.023460
     3  C   -0.066044   0.114305
     4  C    0.019797  -0.023461
     5  C    0.084142   0.022076
     6  C    0.000348  -0.020524
    12  C   -0.224421  -0.368556
    13  C    0.082240   1.277545
 Electronic spatial extent (au):  <R**2>=            908.4067
 Charge=              0.0000 electrons
 Dipole moment (field-independent basis, Debye):
    X=             -1.8418    Y=              0.0000    Z=              0.0000  Tot=              1.8418
 Quadrupole moment (field-independent basis, Debye-Ang):
   XX=            -44.4923   YY=            -41.6068   ZZ=            -50.7902
   XY=              0.0000   XZ=              0.0000   YZ=              0.0000
 Traceless Quadrupole moment (field-independent basis, Debye-Ang):
   XX=              1.1375   YY=              4.0230   ZZ=             -5.1605
   XY=              0.0000   XZ=              0.0000   YZ=              0.0000
 Octapole moment (field-independent basis, Debye-Ang**2):
  XXX=            -20.6463  YYY=              0.0000  ZZZ=              0.0000  XYY=             -8.6219
  XXY=              0.0000  XXZ=              0.0000  XZZ=             -2.0125  YZZ=              0.0000
  YYZ=              0.0000  XYZ=              0.0000
 Hexadecapole moment (field-independent basis, Debye-Ang**3):
 XXXX=           -896.5496 YYYY=           -283.7103 ZZZZ=            -64.3899 XXXY=             -0.0001
 XXXZ=             -0.0003 YYYX=              0.0000 YYYZ=              0.0000 ZZZX=              0.0000
 ZZZY=              0.0000 XXYY=           -209.3395 XXZZ=           -189.1553 YYZZ=            -69.4562
 XXYZ=              0.0000 YYXZ=             -0.0001 ZZXY=              0.0000
 N-N= 2.872221222651D+02 E-N=-1.285983445425D+03  KE= 3.045942445110D+02
                          Isotropic Fermi Contact Couplings
        Atom                 a.u.       MegaHertz       Gauss      10(-4) cm-1
     1  C(13)              0.00170       1.90835       0.68094       0.63656
     2  C(13)             -0.00540      -6.07500      -2.16771      -2.02640
     3  C(13)              0.01652      18.56652       6.62500       6.19312
     4  C(13)             -0.00540      -6.07495      -2.16769      -2.02638
     5  C(13)              0.00170       1.90837       0.68095       0.63656
     6  C(13)             -0.00200      -2.24799      -0.80214      -0.74985
     7  H(1)              -0.00003      -0.12588      -0.04492      -0.04199
     8  H(1)               0.00044       1.94579       0.69430       0.64904
     9  H(1)               0.00044       1.94578       0.69430       0.64904
    10  H(1)              -0.00003      -0.12587      -0.04491      -0.04199
    11  H(1)               0.00032       1.42529       0.50858       0.47543
    12  C(13)              0.17267     194.11928      69.26658      64.75122
    13  C(13)              0.84985     955.39207     340.90764     318.68449
 --------------------------------------------------------
       Center         ----  Spin Dipole Couplings  ----
                      3XX-RR        3YY-RR        3ZZ-RR
 --------------------------------------------------------
     1   Atom       -0.001498     -0.005510      0.007009
     2   Atom        0.012822      0.008420     -0.021242
     3   Atom        0.032230     -0.030486     -0.001744
     4   Atom        0.012822      0.008420     -0.021242
     5   Atom       -0.001498     -0.005510      0.007009
     6   Atom        0.009963      0.008525     -0.018488
     7   Atom        0.000626     -0.000151     -0.000475
     8   Atom        0.003040     -0.001081     -0.001959
     9   Atom        0.003040     -0.001081     -0.001959
    10   Atom        0.000626     -0.000151     -0.000475
    11   Atom       -0.000376      0.000794     -0.000419
    12   Atom        0.329657     -0.168532     -0.161125
    13   Atom        0.664046     -0.339873     -0.324173
 --------------------------------------------------------
                        XY            XZ            YZ
 --------------------------------------------------------
     1   Atom       -0.000988      0.000000      0.000000
     2   Atom       -0.002325      0.000000      0.000000
     3   Atom        0.000000      0.000000      0.000000
     4   Atom        0.002325      0.000000      0.000000
     5   Atom        0.000988      0.000000      0.000000
     6   Atom        0.000000      0.000000      0.000000
     7   Atom       -0.001009      0.000000      0.000000
     8   Atom       -0.003670      0.000000      0.000000
     9   Atom        0.003670      0.000000      0.000000
    10   Atom        0.001009      0.000000      0.000000
    11   Atom        0.000000      0.000000      0.000000
    12   Atom        0.000002      0.000002      0.000000
    13   Atom       -0.000001     -0.000001      0.000000
 --------------------------------------------------------


 ---------------------------------------------------------------------------------
              Anisotropic Spin Dipole Couplings in Principal Axis System
 ---------------------------------------------------------------------------------

       Atom             a.u.   MegaHertz   Gauss  10(-4) cm-1        Axes

              Baa    -0.0057    -0.770    -0.275    -0.257  0.2269  0.9739  0.0000
     1 C(13)  Bbb    -0.0013    -0.170    -0.061    -0.057  0.9739 -0.2269  0.0000
              Bcc     0.0070     0.941     0.336     0.314  0.0000  0.0000  1.0000
 
              Baa    -0.0212    -2.850    -1.017    -0.951  0.0000  0.0000  1.0000
     2 C(13)  Bbb     0.0074     0.996     0.355     0.332  0.3953  0.9185  0.0000
              Bcc     0.0138     1.855     0.662     0.619  0.9185 -0.3953  0.0000
 
              Baa    -0.0305    -4.091    -1.460    -1.365  0.0000  1.0000  0.0000
     3 C(13)  Bbb    -0.0017    -0.234    -0.083    -0.078  0.0000  0.0000  1.0000
              Bcc     0.0322     4.325     1.543     1.443  1.0000  0.0000  0.0000
 
              Baa    -0.0212    -2.850    -1.017    -0.951  0.0000  0.0000  1.0000
     4 C(13)  Bbb     0.0074     0.996     0.355     0.332 -0.3953  0.9185  0.0000
              Bcc     0.0138     1.855     0.662     0.619  0.9185  0.3953  0.0000
 
              Baa    -0.0057    -0.770    -0.275    -0.257 -0.2269  0.9739  0.0000
     5 C(13)  Bbb    -0.0013    -0.170    -0.061    -0.057  0.9739  0.2269  0.0000
              Bcc     0.0070     0.941     0.336     0.314  0.0000  0.0000  1.0000
 
              Baa    -0.0185    -2.481    -0.885    -0.828  0.0000  0.0000  1.0000
     6 C(13)  Bbb     0.0085     1.144     0.408     0.382  0.0000  1.0000  0.0000
              Bcc     0.0100     1.337     0.477     0.446  1.0000  0.0000  0.0000
 
              Baa    -0.0008    -0.450    -0.161    -0.150  0.5660  0.8244  0.0000
     7 H(1)   Bbb    -0.0005    -0.253    -0.090    -0.085  0.0000  0.0000  1.0000
              Bcc     0.0013     0.704     0.251     0.235  0.8244 -0.5660  0.0000
 
              Baa    -0.0032    -1.723    -0.615    -0.575  0.5052  0.8630  0.0000
     8 H(1)   Bbb    -0.0020    -1.045    -0.373    -0.349  0.0000  0.0000  1.0000
              Bcc     0.0052     2.768     0.988     0.923  0.8630 -0.5052  0.0000
 
              Baa    -0.0032    -1.723    -0.615    -0.575 -0.5052  0.8630  0.0000
     9 H(1)   Bbb    -0.0020    -1.045    -0.373    -0.349  0.0000  0.0000  1.0000
              Bcc     0.0052     2.768     0.988     0.923  0.8630  0.5052  0.0000
 
              Baa    -0.0008    -0.450    -0.161    -0.150 -0.5660  0.8244  0.0000
    10 H(1)   Bbb    -0.0005    -0.253    -0.090    -0.085  0.0000  0.0000  1.0000
              Bcc     0.0013     0.704     0.251     0.235  0.8244  0.5660  0.0000
 
              Baa    -0.0004    -0.223    -0.080    -0.075  0.0000  0.0000  1.0000
    11 H(1)   Bbb    -0.0004    -0.201    -0.072    -0.067  1.0000  0.0000  0.0000
              Bcc     0.0008     0.424     0.151     0.141  0.0000  1.0000  0.0000
 
              Baa    -0.1685   -22.615    -8.070    -7.544  0.0000  1.0000  0.0000
    12 C(13)  Bbb    -0.1611   -21.621    -7.715    -7.212  0.0000  0.0000  1.0000
              Bcc     0.3297    44.237    15.785    14.756  1.0000  0.0000  0.0000
 
              Baa    -0.3399   -45.608   -16.274   -15.213  0.0000  1.0000  0.0000
    13 C(13)  Bbb    -0.3242   -43.501   -15.522   -14.510  0.0000  0.0000  1.0000
              Bcc     0.6640    89.109    31.796    29.723  1.0000  0.0000  0.0000
 

 ---------------------------------------------------------------------------------

 Calling FoFJK, ICntrl=      2127 FMM=F ISym2X=0 I1Cent= 0 IOpClX= 1 NMat=1 NMatS=1 NMatT=0.
 ***** Axes restored to original set *****
 -------------------------------------------------------------------
 Center     Atomic                   Forces (Hartrees/Bohr)
 Number     Number              X              Y              Z
 -------------------------------------------------------------------
      1        6           0.008849353    0.014756012   -0.000323867
      2        6          -0.007974313    0.005901521    0.002613761
      3        6           0.048076318    0.000846275   -0.011353137
      4        6          -0.008099739   -0.006184424    0.001181693
      5        6           0.008546391   -0.014449842   -0.003783881
      6        6           0.013390224    0.000235733   -0.003162228
      7        1          -0.005193973   -0.010652830   -0.000050801
      8        1           0.006086300   -0.009229235   -0.002566483
      9        1           0.006280080    0.009446911   -0.000353744
     10        1          -0.004974774    0.010473824    0.002452259
     11        1          -0.011799522   -0.000207705    0.002786427
     12        6          -0.080499411   -0.001416996    0.019010003
     13        6           0.027313065    0.000480756   -0.006450003
 -------------------------------------------------------------------
 Cartesian Forces:  Max     0.080499411 RMS     0.017357527

 GradGradGradGradGradGradGradGradGradGradGradGradGradGradGradGradGradGrad
 Berny optimization.
 FormGI is forming the generalized inverse of G from B-inverse, IUseBI=4.
 Internal  Forces:  Max     0.054657273 RMS     0.008928519
 Search for a local minimum.
 Step number   1 out of a maximum of   67
 All quantities printed in internal units (Hartrees-Bohrs-Radians)
 Mixed Optimization -- RFO/linear search
 Second derivative matrix not updated -- first step.
 ITU=  0
     Eigenvalues ---    0.02070   0.02070   0.02070   0.02070   0.02070
     Eigenvalues ---    0.02070   0.02070   0.02070   0.02070   0.04718
     Eigenvalues ---    0.04718   0.16000   0.16000   0.16000   0.16000
     Eigenvalues ---    0.16000   0.22000   0.22000   0.23485   0.25000
     Eigenvalues ---    0.28519   0.37230   0.37230   0.37230   0.37230
     Eigenvalues ---    0.37230   0.41268   0.41459   0.45389   0.45389
     Eigenvalues ---    0.45389   0.45389   1.04222
 RFO step:  Lambda=-1.28105743D-02 EMin= 2.07023636D-02
 Linear search not attempted -- first point.
 Iteration  1 RMS(Cart)=  0.03382645 RMS(Int)=  0.00002519
 Iteration  2 RMS(Cart)=  0.00004035 RMS(Int)=  0.00000037
 Iteration  3 RMS(Cart)=  0.00000000 RMS(Int)=  0.00000037
 Variable       Old X    -DE/DX   Delta X   Delta X   Delta X     New X
                                 (Linear)    (Quad)   (Total)
    R1        2.64826  -0.00453   0.00000  -0.00971  -0.00971   2.63855
    R2        2.64826  -0.00176   0.00000  -0.00401  -0.00401   2.64425
    R3        2.02201   0.01183   0.00000   0.03071   0.03071   2.05271
    R4        2.64826  -0.00061   0.00000  -0.00107  -0.00107   2.64719
    R5        2.02201   0.01132   0.00000   0.02940   0.02940   2.05140
    R6        2.64826  -0.00061   0.00000  -0.00107  -0.00107   2.64719
    R7        2.91018  -0.05466   0.00000  -0.18341  -0.18341   2.72676
    R8        2.64826  -0.00453   0.00000  -0.00971  -0.00971   2.63855
    R9        2.02201   0.01132   0.00000   0.02940   0.02940   2.05140
   R10        2.64826  -0.00176   0.00000  -0.00401  -0.00401   2.64425
   R11        2.02201   0.01183   0.00000   0.03071   0.03071   2.05271
   R12        2.02201   0.01213   0.00000   0.03149   0.03149   2.05349
   R13        2.26994   0.02807   0.00000   0.02660   0.02660   2.29654
    A1        2.09440   0.00091   0.00000   0.00367   0.00367   2.09806
    A2        2.09440  -0.00126   0.00000  -0.00648  -0.00648   2.08792
    A3        2.09440   0.00035   0.00000   0.00281   0.00281   2.09721
    A4        2.09440  -0.00244   0.00000  -0.00976  -0.00976   2.08464
    A5        2.09440   0.00203   0.00000   0.00956   0.00956   2.10396
    A6        2.09440   0.00041   0.00000   0.00019   0.00019   2.09459
    A7        2.09440   0.00283   0.00000   0.01184   0.01184   2.10624
    A8        2.09440  -0.00142   0.00000  -0.00592  -0.00592   2.08847
    A9        2.09440  -0.00142   0.00000  -0.00592  -0.00592   2.08847
   A10        2.09440  -0.00244   0.00000  -0.00976  -0.00976   2.08464
   A11        2.09440   0.00041   0.00000   0.00019   0.00019   2.09459
   A12        2.09440   0.00203   0.00000   0.00956   0.00956   2.10396
   A13        2.09440   0.00091   0.00000   0.00367   0.00367   2.09806
   A14        2.09440  -0.00126   0.00000  -0.00648  -0.00648   2.08792
   A15        2.09440   0.00035   0.00000   0.00281   0.00281   2.09721
   A16        2.09440   0.00024   0.00000   0.00034   0.00033   2.09473
   A17        2.09440  -0.00012   0.00000  -0.00017  -0.00017   2.09423
   A18        2.09440  -0.00012   0.00000  -0.00017  -0.00017   2.09423
   A19        3.14159   0.00000   0.00000   0.00000   0.00000   3.14159
   A20        3.14159   0.00000   0.00000   0.00000   0.00000   3.14159
    D1        0.00000   0.00000   0.00000   0.00000   0.00000   0.00000
    D2       -3.14159   0.00000   0.00000   0.00000   0.00000  -3.14159
    D3        3.14159   0.00000   0.00000   0.00000   0.00000   3.14159
    D4        0.00000   0.00000   0.00000   0.00000   0.00000   0.00000
    D5        0.00000   0.00000   0.00000   0.00000   0.00000   0.00000
    D6        3.14159   0.00000   0.00000   0.00000   0.00000   3.14159
    D7       -3.14159   0.00000   0.00000   0.00000   0.00000  -3.14159
    D8        0.00000   0.00000   0.00000   0.00000   0.00000   0.00000
    D9        0.00000   0.00000   0.00000   0.00000   0.00000   0.00000
   D10       -3.14159   0.00000   0.00000   0.00000   0.00000  -3.14159
   D11        3.14159   0.00000   0.00000   0.00000   0.00000   3.14159
   D12        0.00000   0.00000   0.00000   0.00000   0.00000   0.00000
   D13        0.00000   0.00000   0.00000   0.00000   0.00000   0.00000
   D14       -3.14159   0.00000   0.00000   0.00000   0.00000   3.14159
   D15        3.14159   0.00000   0.00000   0.00000   0.00000   3.14159
   D16        0.00000   0.00000   0.00000   0.00000   0.00000   0.00000
   D17        0.00000   0.00000   0.00000   0.00000   0.00000   0.00000
   D18       -3.14159   0.00000   0.00000   0.00000   0.00000  -3.14159
   D19       -3.14159   0.00000   0.00000   0.00000   0.00000  -3.14159
   D20        0.00000   0.00000   0.00000   0.00000   0.00000   0.00000
   D21        0.00000   0.00000   0.00000   0.00000   0.00000   0.00000
   D22       -3.14159   0.00000   0.00000   0.00000   0.00000   3.14159
   D23        3.14159   0.00000   0.00000   0.00000   0.00000   3.14159
   D24        0.00000   0.00000   0.00000   0.00000   0.00000   0.00000
         Item               Value     Threshold  Converged?
 Maximum Force            0.054657     0.000450     NO 
 RMS     Force            0.008929     0.000300     NO 
 Maximum Displacement     0.168085     0.001800     NO 
 RMS     Displacement     0.033836     0.001200     NO 
 Predicted change in Energy=-6.660775D-03
 GradGradGradGradGradGradGradGradGradGradGradGradGradGradGradGradGradGrad

                          Input orientation:                          
 ---------------------------------------------------------------------
 Center     Atomic      Atomic             Coordinates (Angstroms)
 Number     Number       Type             X           Y           Z
 ---------------------------------------------------------------------
      1          6           0       -6.542054   -2.358580   -1.175454
      2          6           0       -5.183431   -2.339982   -1.496932
      3          6           0       -4.496322   -1.119344   -1.513011
      4          6           0       -5.158346    0.077546   -1.210497
      5          6           0       -6.517079    0.048311   -0.890279
      6          6           0       -7.210180   -1.167115   -0.872142
      7          1           0       -7.077849   -3.303398   -1.162068
      8          1           0       -4.659683   -3.261029   -1.733134
      9          1           0       -4.615288    1.017372   -1.226218
     10          1           0       -7.033458    0.974608   -0.655199
     11          1           0       -8.267599   -1.185728   -0.622435
     12          6           0       -3.092211   -1.094628   -1.844588
     13          6           0       -1.909638   -1.073813   -2.123851
 ---------------------------------------------------------------------
                    Distance matrix (angstroms):
                    1          2          3          4          5
     1  C    0.000000
     2  C    1.396263   0.000000
     3  C    2.415506   1.400834   0.000000
     4  C    2.801890   2.434567   1.400834   0.000000
     5  C    2.423855   2.801890   2.415506   1.396263   0.000000
     6  C    1.399278   2.423570   2.788911   2.423570   1.399278
     7  H    1.086249   2.151540   3.399638   3.888138   3.409147
     8  H    2.160727   1.085556   2.159157   3.415831   3.887423
     9  H    3.887423   3.415831   2.159157   1.085556   2.160727
    10  H    3.409147   3.888138   3.399638   2.151540   1.086249
    11  H    2.158452   3.407218   3.875573   3.407218   2.158452
    12  C    3.734532   2.458653   1.442942   2.458653   3.734532
    13  C    4.899935   3.565661   2.658220   3.565662   4.899936
                    6          7          8          9         10
     6  C    0.000000
     7  H    2.159924   0.000000
     8  H    3.410399   2.485043   0.000000
     9  H    3.410399   4.973668   4.308556   0.000000
    10  H    2.159924   4.308157   4.973668   2.485043   0.000000
    11  H    1.086662   2.488218   4.307851   4.307851   2.488218
    12  C    4.231852   4.607582   2.676320   2.676320   4.607582
    13  C    5.447131   5.710209   3.535439   3.535441   5.710210
                   11         12         13
    11  H    0.000000
    12  C    5.318514   0.000000
    13  C    6.533793   1.215278   0.000000
 Stoichiometry    C8H5(2)
 Framework group  C1[X(C8H5)]
 Deg. of freedom    33
 Full point group                 C1      NOp   1
 Largest Abelian subgroup         C1      NOp   1
 Largest concise Abelian subgroup C1      NOp   1
                         Standard orientation:                         
 ---------------------------------------------------------------------
 Center     Atomic      Atomic             Coordinates (Angstroms)
 Number     Number       Type             X           Y           Z
 ---------------------------------------------------------------------
      1          6           0       -1.430139    1.211928    0.000000
      2          6           0       -0.033886    1.217283    0.000000
      3          6           0        0.659335    0.000000    0.000000
      4          6           0       -0.033887   -1.217283    0.000000
      5          6           0       -1.430139   -1.211927    0.000000
      6          6           0       -2.129575    0.000000    0.000000
      7          1           0       -1.970774    2.154079    0.000001
      8          1           0        0.514268    2.154278    0.000000
      9          1           0        0.514267   -2.154278   -0.000001
     10          1           0       -1.970776   -2.154078    0.000001
     11          1           0       -3.216237    0.000001    0.000001
     12          6           0        2.102277   -0.000001   -0.000001
     13          6           0        3.317555    0.000000    0.000001
 ---------------------------------------------------------------------
 Rotational constants (GHZ):      5.6454122      1.6183404      1.2577794
 Standard basis: 6-31+G(d) (6D, 7F)
 There are   162 symmetry adapted cartesian basis functions of A   symmetry.
 There are   162 symmetry adapted basis functions of A   symmetry.
   162 basis functions,   276 primitive gaussians,   162 cartesian basis functions
    27 alpha electrons       26 beta electrons
       nuclear repulsion energy       289.5562594947 Hartrees.
 NAtoms=   13 NActive=   13 NUniq=   13 SFac= 1.00D+00 NAtFMM=   60 NAOKFM=F Big=F
 Integral buffers will be    131072 words long.
 Raffenetti 2 integral format.
 Two-electron integral symmetry is turned on.
 Nuclear repulsion after empirical dispersion term =      289.5492558882 Hartrees.
 One-electron integrals computed using PRISM.
 NBasis=   162 RedAO= T EigKep=  4.96D-06  NBF=   162
 NBsUse=   161 1.00D-06 EigRej=  3.80D-07 NBFU=   161
 Initial guess from the checkpoint file:  "C:\Users\123\Desktop\ML project\molecule_1.chk"
 B after Tr=     0.000000    0.000000    0.000000
         Rot=    1.000000    0.000000    0.000000    0.000000 Ang=   0.00 deg.
 Initial guess <Sx>= 0.0000 <Sy>= 0.0000 <Sz>= 0.5000 <S**2>= 0.7739 S= 0.5119
 ExpMin= 4.38D-02 ExpMax= 3.05D+03 ExpMxC= 4.57D+02 IAcc=2 IRadAn=         4 AccDes= 0.00D+00
 Harris functional with IExCor=  402 and IRadAn=       4 diagonalized for initial guess.
 HarFok:  IExCor=  402 AccDes= 0.00D+00 IRadAn=         4 IDoV= 1 UseB2=F ITyADJ=14
 ICtDFT=  3500011 ScaDFX=  1.000000  1.000000  1.000000  1.000000
 FoFCou: FMM=F IPFlag=           0 FMFlag=      100000 FMFlg1=           0
         NFxFlg=           0 DoJE=T BraDBF=F KetDBF=T FulRan=T
         wScrn=  0.000000 ICntrl=     500 IOpCl=  0 I1Cent=   200000004 NGrid=           0
         NMat0=    1 NMatS0=      1 NMatT0=    0 NMatD0=    1 NMtDS0=    0 NMtDT0=    0
 Petite list used in FoFCou.
 Keep R1 and R2 ints in memory in canonical form, NReq=176597168.
 Requested convergence on RMS density matrix=1.00D-08 within 128 cycles.
 Requested convergence on MAX density matrix=1.00D-06.
 Requested convergence on             energy=1.00D-06.
 No special actions if energy rises.
 SCF Done:  E(UB3LYP) =  -307.692512391     A.U. after   20 cycles
            NFock= 20  Conv=0.32D-08     -V/T= 2.0100
 <Sx>= 0.0000 <Sy>= 0.0000 <Sz>= 0.5000 <S**2>= 0.7768 S= 0.5133
 <L.S>= 0.000000000000E+00
 Annihilation of the first spin contaminant:
 S**2 before annihilation     0.7768,   after     0.7504
 Calling FoFJK, ICntrl=      2127 FMM=F ISym2X=0 I1Cent= 0 IOpClX= 1 NMat=1 NMatS=1 NMatT=0.
 ***** Axes restored to original set *****
 -------------------------------------------------------------------
 Center     Atomic                   Forces (Hartrees/Bohr)
 Number     Number              X              Y              Z
 -------------------------------------------------------------------
      1        6           0.000721638    0.000206004   -0.000147086
      2        6          -0.006428009   -0.002366775    0.001245334
      3        6           0.015292196    0.000269149   -0.003611110
      4        6          -0.006381207    0.002141309    0.001779484
      5        6           0.000717635   -0.000180668   -0.000192828
      6        6          -0.000072322   -0.000001271    0.000017063
      7        1          -0.000364218   -0.000254478    0.000056037
      8        1           0.000533215    0.000367135   -0.000082613
      9        1           0.000525780   -0.000348494   -0.000167437
     10        1          -0.000359074    0.000241742    0.000114812
     11        1          -0.000129682   -0.000002283    0.000030626
     12        6          -0.005312596   -0.000093468    0.001254385
     13        6           0.001256643    0.000022098   -0.000296666
 -------------------------------------------------------------------
 Cartesian Forces:  Max     0.015292196 RMS     0.003112533

 GradGradGradGradGradGradGradGradGradGradGradGradGradGradGradGradGradGrad
 Berny optimization.
 Using GEDIIS/GDIIS optimizer.
 FormGI is forming the generalized inverse of G from B-inverse, IUseBI=4.
 Internal  Forces:  Max     0.004953209 RMS     0.001401680
 Search for a local minimum.
 Step number   2 out of a maximum of   67
 All quantities printed in internal units (Hartrees-Bohrs-Radians)
 Mixed Optimization -- RFO/linear search
 Update second derivatives using D2CorX and points    1    2
 DE= -7.16D-03 DEPred=-6.66D-03 R= 1.07D+00
 TightC=F SS=  1.41D+00  RLast= 2.00D-01 DXNew= 5.0454D-01 5.9915D-01
 Trust test= 1.07D+00 RLast= 2.00D-01 DXMaxT set to 5.05D-01
 ITU=  1  0
 Use linear search instead of GDIIS.
     Eigenvalues ---    0.02070   0.02070   0.02070   0.02070   0.02070
     Eigenvalues ---    0.02070   0.02070   0.02070   0.02070   0.04718
     Eigenvalues ---    0.04718   0.15952   0.16000   0.16000   0.16000
     Eigenvalues ---    0.16010   0.22000   0.22002   0.22747   0.25000
     Eigenvalues ---    0.28093   0.37139   0.37230   0.37230   0.37230
     Eigenvalues ---    0.37292   0.41286   0.42189   0.45314   0.45389
     Eigenvalues ---    0.45389   0.46303   1.03968
 RFO step:  Lambda=-3.40683260D-04 EMin= 2.07023636D-02
 Quartic linear search produced a step of  0.04799.
 Iteration  1 RMS(Cart)=  0.00370315 RMS(Int)=  0.00002575
 Iteration  2 RMS(Cart)=  0.00003490 RMS(Int)=  0.00000922
 Iteration  3 RMS(Cart)=  0.00000000 RMS(Int)=  0.00000922
 Variable       Old X    -DE/DX   Delta X   Delta X   Delta X     New X
                                 (Linear)    (Quad)   (Total)
    R1        2.63855  -0.00027  -0.00047  -0.00033  -0.00080   2.63776
    R2        2.64425  -0.00034  -0.00019  -0.00109  -0.00130   2.64295
    R3        2.05271   0.00040   0.00147   0.00017   0.00165   2.05436
    R4        2.64719   0.00495  -0.00005   0.01190   0.01186   2.65905
    R5        2.05140  -0.00004   0.00141  -0.00102   0.00039   2.05180
    R6        2.64719   0.00495  -0.00005   0.01190   0.01186   2.65905
    R7        2.72676  -0.00417  -0.00880  -0.00902  -0.01782   2.70894
    R8        2.63855  -0.00027  -0.00047  -0.00033  -0.00080   2.63776
    R9        2.05140  -0.00004   0.00141  -0.00102   0.00039   2.05180
   R10        2.64425  -0.00034  -0.00019  -0.00109  -0.00130   2.64295
   R11        2.05271   0.00040   0.00147   0.00017   0.00165   2.05436
   R12        2.05349   0.00013   0.00151  -0.00061   0.00090   2.05440
   R13        2.29654   0.00129   0.00128   0.00064   0.00192   2.29846
    A1        2.09806   0.00052   0.00018   0.00103   0.00119   2.09925
    A2        2.08792  -0.00006  -0.00031   0.00102   0.00072   2.08863
    A3        2.09721  -0.00047   0.00013  -0.00205  -0.00191   2.09530
    A4        2.08464   0.00172  -0.00047   0.00904   0.00858   2.09322
    A5        2.10396  -0.00019   0.00046  -0.00036   0.00009   2.10405
    A6        2.09459  -0.00153   0.00001  -0.00868  -0.00868   2.08591
    A7        2.10624  -0.00459   0.00057  -0.01838  -0.01778   2.08845
    A8        2.08847   0.00229  -0.00028   0.00919   0.00889   2.09737
    A9        2.08847   0.00229  -0.00028   0.00919   0.00889   2.09737
   A10        2.08464   0.00172  -0.00047   0.00904   0.00858   2.09322
   A11        2.09459  -0.00153   0.00001  -0.00868  -0.00868   2.08591
   A12        2.10396  -0.00019   0.00046  -0.00036   0.00009   2.10405
   A13        2.09806   0.00052   0.00018   0.00103   0.00119   2.09925
   A14        2.08792  -0.00006  -0.00031   0.00102   0.00072   2.08863
   A15        2.09721  -0.00047   0.00013  -0.00205  -0.00191   2.09530
   A16        2.09473   0.00011   0.00002  -0.00175  -0.00176   2.09297
   A17        2.09423  -0.00005  -0.00001   0.00087   0.00088   2.09511
   A18        2.09423  -0.00005  -0.00001   0.00087   0.00088   2.09511
   A19        3.14159   0.00000   0.00000   0.00000   0.00000   3.14159
   A20        3.14159   0.00000   0.00000   0.00000   0.00000   3.14159
    D1        0.00000   0.00000   0.00000   0.00000   0.00000   0.00000
    D2       -3.14159   0.00000   0.00000   0.00000   0.00000  -3.14159
    D3        3.14159   0.00000   0.00000   0.00000   0.00000   3.14159
    D4        0.00000   0.00000   0.00000   0.00000   0.00000   0.00000
    D5        0.00000   0.00000   0.00000   0.00000   0.00000   0.00000
    D6        3.14159   0.00000   0.00000   0.00000   0.00000  -3.14159
    D7       -3.14159   0.00000   0.00000   0.00000   0.00000  -3.14159
    D8        0.00000   0.00000   0.00000   0.00000   0.00000   0.00000
    D9        0.00000   0.00000   0.00000   0.00000   0.00000   0.00000
   D10       -3.14159   0.00000   0.00000   0.00000   0.00000  -3.14159
   D11        3.14159   0.00000   0.00000   0.00000   0.00000   3.14159
   D12        0.00000   0.00000   0.00000   0.00000   0.00000   0.00000
   D13        0.00000   0.00000   0.00000   0.00000   0.00000   0.00000
   D14        3.14159   0.00000   0.00000   0.00000   0.00000   3.14159
   D15        3.14159   0.00000   0.00000   0.00000   0.00000   3.14159
   D16        0.00000   0.00000   0.00000   0.00000   0.00000   0.00000
   D17        0.00000   0.00000   0.00000   0.00000   0.00000   0.00000
   D18       -3.14159   0.00000   0.00000   0.00000   0.00000  -3.14159
   D19       -3.14159   0.00000   0.00000   0.00000   0.00000  -3.14159
   D20        0.00000   0.00000   0.00000   0.00000   0.00000   0.00000
   D21        0.00000   0.00000   0.00000   0.00000   0.00000   0.00000
   D22        3.14159   0.00000   0.00000   0.00000   0.00000   3.14159
   D23        3.14159   0.00000   0.00000   0.00000   0.00000   3.14159
   D24        0.00000   0.00000   0.00000   0.00000   0.00000   0.00000
         Item               Value     Threshold  Converged?
 Maximum Force            0.004953     0.000450     NO 
 RMS     Force            0.001402     0.000300     NO 
 Maximum Displacement     0.022592     0.001800     NO 
 RMS     Displacement     0.003707     0.001200     NO 
 Predicted change in Energy=-1.937351D-04
 GradGradGradGradGradGradGradGradGradGradGradGradGradGradGradGradGradGrad

                          Input orientation:                          
 ---------------------------------------------------------------------
 Center     Atomic      Atomic             Coordinates (Angstroms)
 Number     Number       Type             X           Y           Z
 ---------------------------------------------------------------------
      1          6           0       -6.543249   -2.357397   -1.175026
      2          6           0       -5.185042   -2.339230   -1.496457
      3          6           0       -4.484367   -1.119133   -1.515835
      4          6           0       -5.159973    0.076737   -1.210207
      5          6           0       -6.518298    0.047086   -0.890137
      6          6           0       -7.212090   -1.167149   -0.871691
      7          1           0       -7.080408   -3.302439   -1.161342
      8          1           0       -4.661390   -3.260574   -1.732673
      9          1           0       -4.617005    1.016857   -1.225871
     10          1           0       -7.036037    0.973558   -0.654711
     11          1           0       -8.269975   -1.185770   -0.621874
     12          6           0       -3.089435   -1.094578   -1.845245
     13          6           0       -1.905873   -1.073747   -2.124738
 ---------------------------------------------------------------------
                    Distance matrix (angstroms):
                    1          2          3          4          5
     1  C    0.000000
     2  C    1.395841   0.000000
     3  C    2.426611   1.407110   0.000000
     4  C    2.799947   2.432996   1.407110   0.000000
     5  C    2.421431   2.799947   2.426611   1.395841   0.000000
     6  C    1.398590   2.423434   2.803159   2.423434   1.398590
     7  H    1.087120   2.152320   3.410559   3.887067   3.407174
     8  H    2.160576   1.085764   2.159658   3.414558   3.885691
     9  H    3.885691   3.414558   2.159659   1.085764   2.160576
    10  H    3.407174   3.887067   3.410559   2.152320   1.087120
    11  H    2.158766   3.407664   3.890300   3.407664   2.158766
    12  C    3.738012   2.462191   1.433509   2.462190   3.738012
    13  C    4.904586   3.570593   2.649802   3.570595   4.904587
                    6          7          8          9         10
     6  C    0.000000
     7  H    2.158866   0.000000
     8  H    3.410248   2.485924   0.000000
     9  H    3.410248   4.972809   4.307578   0.000000
    10  H    2.158866   4.306134   4.972809   2.485924   0.000000
    11  H    1.087141   2.487243   4.308198   4.308198   2.487243
    12  C    4.236669   4.611967   2.678666   2.678666   4.611966
    13  C    5.452962   5.715856   3.539605   3.539607   5.715857
                   11         12         13
    11  H    0.000000
    12  C    5.323810   0.000000
    13  C    6.540103   1.216293   0.000000
 Stoichiometry    C8H5(2)
 Framework group  C1[X(C8H5)]
 Deg. of freedom    33
 Full point group                 C1      NOp   1
 Largest Abelian subgroup         C1      NOp   1
 Largest concise Abelian subgroup C1      NOp   1
                         Standard orientation:                         
 ---------------------------------------------------------------------
 Center     Atomic      Atomic             Coordinates (Angstroms)
 Number     Number       Type             X           Y           Z
 ---------------------------------------------------------------------
      1          6           0       -1.432439    1.210716    0.000000
      2          6           0       -0.036610    1.216498    0.000000
      3          6           0        0.670561    0.000000    0.000000
      4          6           0       -0.036611   -1.216498    0.000000
      5          6           0       -1.432440   -1.210715    0.000000
      6          6           0       -2.132598    0.000001    0.000000
      7          1           0       -1.974474    2.153068    0.000000
      8          1           0        0.511449    2.153789    0.000000
      9          1           0        0.511448   -2.153790    0.000000
     10          1           0       -1.974476   -2.153067    0.000000
     11          1           0       -3.219739    0.000001    0.000000
     12          6           0        2.104071   -0.000001    0.000001
     13          6           0        3.320364    0.000001   -0.000001
 ---------------------------------------------------------------------
 Rotational constants (GHZ):      5.6535829      1.6139218      1.2555122
 Standard basis: 6-31+G(d) (6D, 7F)
 There are   162 symmetry adapted cartesian basis functions of A   symmetry.
 There are   162 symmetry adapted basis functions of A   symmetry.
   162 basis functions,   276 primitive gaussians,   162 cartesian basis functions
    27 alpha electrons       26 beta electrons
       nuclear repulsion energy       289.3852456866 Hartrees.
 NAtoms=   13 NActive=   13 NUniq=   13 SFac= 1.00D+00 NAtFMM=   60 NAOKFM=F Big=F
 Integral buffers will be    131072 words long.
 Raffenetti 2 integral format.
 Two-electron integral symmetry is turned on.
 Nuclear repulsion after empirical dispersion term =      289.3782474074 Hartrees.
 One-electron integrals computed using PRISM.
 NBasis=   162 RedAO= T EigKep=  4.97D-06  NBF=   162
 NBsUse=   161 1.00D-06 EigRej=  3.70D-07 NBFU=   161
 Initial guess from the checkpoint file:  "C:\Users\123\Desktop\ML project\molecule_1.chk"
 B after Tr=     0.000000    0.000000    0.000000
         Rot=    1.000000    0.000000    0.000000    0.000000 Ang=   0.00 deg.
 Initial guess <Sx>= 0.0000 <Sy>= 0.0000 <Sz>= 0.5000 <S**2>= 0.7768 S= 0.5133
 ExpMin= 4.38D-02 ExpMax= 3.05D+03 ExpMxC= 4.57D+02 IAcc=2 IRadAn=         4 AccDes= 0.00D+00
 Harris functional with IExCor=  402 and IRadAn=       4 diagonalized for initial guess.
 HarFok:  IExCor=  402 AccDes= 0.00D+00 IRadAn=         4 IDoV= 1 UseB2=F ITyADJ=14
 ICtDFT=  3500011 ScaDFX=  1.000000  1.000000  1.000000  1.000000
 FoFCou: FMM=F IPFlag=           0 FMFlag=      100000 FMFlg1=           0
         NFxFlg=           0 DoJE=T BraDBF=F KetDBF=T FulRan=T
         wScrn=  0.000000 ICntrl=     500 IOpCl=  0 I1Cent=   200000004 NGrid=           0
         NMat0=    1 NMatS0=      1 NMatT0=    0 NMatD0=    1 NMtDS0=    0 NMtDT0=    0
 Petite list used in FoFCou.
 Keep R1 and R2 ints in memory in canonical form, NReq=176597168.
 Requested convergence on RMS density matrix=1.00D-08 within 128 cycles.
 Requested convergence on MAX density matrix=1.00D-06.
 Requested convergence on             energy=1.00D-06.
 No special actions if energy rises.
 SCF Done:  E(UB3LYP) =  -307.692721452     A.U. after   19 cycles
            NFock= 19  Conv=0.47D-08     -V/T= 2.0101
 <Sx>= 0.0000 <Sy>= 0.0000 <Sz>= 0.5000 <S**2>= 0.7774 S= 0.5136
 <L.S>= 0.000000000000E+00
 Annihilation of the first spin contaminant:
 S**2 before annihilation     0.7774,   after     0.7504
 Calling FoFJK, ICntrl=      2127 FMM=F ISym2X=0 I1Cent= 0 IOpClX= 1 NMat=1 NMatS=1 NMatT=0.
 ***** Axes restored to original set *****
 -------------------------------------------------------------------
 Center     Atomic                   Forces (Hartrees/Bohr)
 Number     Number              X              Y              Z
 -------------------------------------------------------------------
      1        6           0.000724764   -0.000324586   -0.000211932
      2        6          -0.001932354   -0.000115956    0.000446366
      3        6           0.001359873    0.000023928   -0.000321242
      4        6          -0.001930647    0.000047971    0.000465784
      5        6           0.000731770    0.000350213   -0.000131959
      6        6          -0.000424786   -0.000007471    0.000100294
      7        1           0.000207080    0.000111459   -0.000035848
      8        1           0.000146886    0.000052368   -0.000028665
      9        1           0.000145849   -0.000047214   -0.000040471
     10        1           0.000204842   -0.000104211   -0.000061404
     11        1           0.000200067    0.000003523   -0.000047253
     12        6           0.000979320    0.000017240   -0.000230985
     13        6          -0.000412664   -0.000007263    0.000097317
 -------------------------------------------------------------------
 Cartesian Forces:  Max     0.001932354 RMS     0.000572585

 GradGradGradGradGradGradGradGradGradGradGradGradGradGradGradGradGradGrad
 Berny optimization.
 Using GEDIIS/GDIIS optimizer.
 FormGI is forming the generalized inverse of G from B-inverse, IUseBI=4.
 Internal  Forces:  Max     0.000845082 RMS     0.000288327
 Search for a local minimum.
 Step number   3 out of a maximum of   67
 All quantities printed in internal units (Hartrees-Bohrs-Radians)
 Mixed Optimization -- En-DIIS/RFO-DIIS
 Update second derivatives using D2CorX and points    1    2    3
 DE= -2.09D-04 DEPred=-1.94D-04 R= 1.08D+00
 TightC=F SS=  1.41D+00  RLast= 3.74D-02 DXNew= 8.4853D-01 1.1233D-01
 Trust test= 1.08D+00 RLast= 3.74D-02 DXMaxT set to 5.05D-01
 ITU=  1  1  0
 Use linear search instead of GDIIS.
     Eigenvalues ---    0.02070   0.02070   0.02070   0.02070   0.02070
     Eigenvalues ---    0.02070   0.02070   0.02070   0.02070   0.04718
     Eigenvalues ---    0.04718   0.15600   0.16000   0.16000   0.16000
     Eigenvalues ---    0.16084   0.20434   0.22000   0.22004   0.25000
     Eigenvalues ---    0.31191   0.37204   0.37230   0.37230   0.37250
     Eigenvalues ---    0.37718   0.40267   0.41261   0.44519   0.45389
     Eigenvalues ---    0.45389   0.46807   1.04566
 RFO step:  Lambda=-1.17777255D-05 EMin= 2.07023636D-02
 Quartic linear search produced a step of  0.11827.
 Iteration  1 RMS(Cart)=  0.00116576 RMS(Int)=  0.00000190
 Iteration  2 RMS(Cart)=  0.00000172 RMS(Int)=  0.00000153
 Iteration  3 RMS(Cart)=  0.00000000 RMS(Int)=  0.00000153
 Variable       Old X    -DE/DX   Delta X   Delta X   Delta X     New X
                                 (Linear)    (Quad)   (Total)
    R1        2.63776  -0.00085  -0.00009  -0.00202  -0.00211   2.63564
    R2        2.64295   0.00015  -0.00015   0.00046   0.00030   2.64325
    R3        2.05436  -0.00020   0.00019  -0.00061  -0.00041   2.05395
    R4        2.65905   0.00063   0.00140   0.00043   0.00183   2.66089
    R5        2.05180   0.00003   0.00005   0.00019   0.00024   2.05204
    R6        2.65905   0.00063   0.00140   0.00043   0.00183   2.66089
    R7        2.70894   0.00058  -0.00211   0.00312   0.00101   2.70995
    R8        2.63776  -0.00085  -0.00009  -0.00202  -0.00211   2.63564
    R9        2.05180   0.00003   0.00005   0.00019   0.00024   2.05204
   R10        2.64295   0.00015  -0.00015   0.00046   0.00030   2.64325
   R11        2.05436  -0.00020   0.00019  -0.00061  -0.00041   2.05395
   R12        2.05440  -0.00021   0.00011  -0.00055  -0.00044   2.05396
   R13        2.29846  -0.00042   0.00023  -0.00050  -0.00027   2.29819
    A1        2.09925   0.00004   0.00014  -0.00002   0.00012   2.09937
    A2        2.08863  -0.00015   0.00008  -0.00104  -0.00096   2.08768
    A3        2.09530   0.00011  -0.00023   0.00107   0.00084   2.09614
    A4        2.09322   0.00044   0.00102   0.00131   0.00233   2.09555
    A5        2.10405  -0.00006   0.00001   0.00004   0.00005   2.10410
    A6        2.08591  -0.00038  -0.00103  -0.00135  -0.00238   2.08353
    A7        2.08845  -0.00083  -0.00210  -0.00195  -0.00404   2.08441
    A8        2.09737   0.00042   0.00105   0.00097   0.00202   2.09939
    A9        2.09737   0.00042   0.00105   0.00097   0.00202   2.09939
   A10        2.09322   0.00044   0.00102   0.00131   0.00233   2.09555
   A11        2.08591  -0.00038  -0.00103  -0.00135  -0.00238   2.08353
   A12        2.10405  -0.00006   0.00001   0.00004   0.00005   2.10410
   A13        2.09925   0.00004   0.00014  -0.00002   0.00012   2.09937
   A14        2.08863  -0.00015   0.00008  -0.00104  -0.00096   2.08768
   A15        2.09530   0.00011  -0.00023   0.00107   0.00084   2.09614
   A16        2.09297  -0.00013  -0.00021  -0.00064  -0.00085   2.09212
   A17        2.09511   0.00006   0.00010   0.00032   0.00042   2.09553
   A18        2.09511   0.00006   0.00010   0.00032   0.00042   2.09553
   A19        3.14159   0.00000   0.00000   0.00000   0.00000   3.14159
   A20        3.14159   0.00000   0.00000  -0.00001  -0.00001   3.14159
    D1        0.00000   0.00000   0.00000   0.00000   0.00000   0.00000
    D2       -3.14159   0.00000   0.00000   0.00000   0.00000   3.14159
    D3        3.14159   0.00000   0.00000   0.00000   0.00000  -3.14159
    D4        0.00000   0.00000   0.00000   0.00000   0.00000   0.00000
    D5        0.00000   0.00000   0.00000   0.00000   0.00000   0.00000
    D6       -3.14159   0.00000   0.00000   0.00000   0.00000   3.14159
    D7       -3.14159   0.00000   0.00000   0.00000   0.00000   3.14159
    D8        0.00000   0.00000   0.00000   0.00000   0.00000   0.00000
    D9        0.00000   0.00000   0.00000   0.00000   0.00000   0.00000
   D10       -3.14159   0.00000   0.00000   0.00000   0.00000   3.14159
   D11        3.14159   0.00000   0.00000   0.00000   0.00000   3.14159
   D12        0.00000   0.00000   0.00000   0.00000   0.00000   0.00000
   D13        0.00000   0.00000   0.00000   0.00000   0.00000   0.00000
   D14        3.14159   0.00000   0.00000   0.00000   0.00000  -3.14159
   D15        3.14159   0.00000   0.00000   0.00000   0.00000  -3.14159
   D16        0.00000   0.00000   0.00000   0.00000   0.00000   0.00000
   D17        0.00000   0.00000   0.00000   0.00000   0.00000   0.00000
   D18       -3.14159   0.00000   0.00000   0.00000   0.00000   3.14159
   D19       -3.14159   0.00000   0.00000   0.00000   0.00000  -3.14159
   D20        0.00000   0.00000   0.00000   0.00000   0.00000   0.00000
   D21        0.00000   0.00000   0.00000   0.00000   0.00000   0.00000
   D22        3.14159   0.00000   0.00000   0.00000   0.00000  -3.14159
   D23        3.14159   0.00000   0.00000   0.00000   0.00000  -3.14159
   D24        0.00000   0.00000   0.00000   0.00000   0.00000   0.00000
         Item               Value     Threshold  Converged?
 Maximum Force            0.000845     0.000450     NO 
 RMS     Force            0.000288     0.000300     YES
 Maximum Displacement     0.003729     0.001800     NO 
 RMS     Displacement     0.001166     0.001200     YES
 Predicted change in Energy=-8.265697D-06
 GradGradGradGradGradGradGradGradGradGradGradGradGradGradGradGradGradGrad

                          Input orientation:                          
 ---------------------------------------------------------------------
 Center     Atomic      Atomic             Coordinates (Angstroms)
 Number     Number       Type             X           Y           Z
 ---------------------------------------------------------------------
      1          6           0       -6.543577   -2.357244   -1.174930
      2          6           0       -5.186453   -2.338665   -1.496053
      3          6           0       -4.482916   -1.119108   -1.516177
      4          6           0       -5.161396    0.076122   -1.209943
      5          6           0       -6.518630    0.046921   -0.890078
      6          6           0       -7.212997   -1.167165   -0.871477
      7          1           0       -7.079473   -3.302757   -1.161603
      8          1           0       -4.662408   -3.259914   -1.732350
      9          1           0       -4.618037    1.016160   -1.225709
     10          1           0       -7.035096    0.973909   -0.654892
     11          1           0       -8.270654   -1.185782   -0.621714
     12          6           0       -3.087461   -1.094544   -1.845709
     13          6           0       -1.904041   -1.073715   -2.125173
 ---------------------------------------------------------------------
                    Distance matrix (angstroms):
                    1          2          3          4          5
     1  C    0.000000
     2  C    1.394723   0.000000
     3  C    2.428118   1.408080   0.000000
     4  C    2.798736   2.431806   1.408080   0.000000
     5  C    2.421110   2.798736   2.428118   1.394723   0.000000
     6  C    1.398748   2.422683   2.805583   2.422683   1.398748
     7  H    1.086902   2.150548   3.411181   3.885638   3.407141
     8  H    2.159705   1.085891   2.159166   3.413361   3.884603
     9  H    3.884603   3.413361   2.159166   1.085891   2.159705
    10  H    3.407141   3.885638   3.411181   2.150548   1.086902
    11  H    2.158973   3.406744   3.892489   3.406744   2.158973
    12  C    3.740199   2.464926   1.434046   2.464926   3.740199
    13  C    4.906700   3.573530   2.650195   3.573532   4.906702
                    6          7          8          9         10
     6  C    0.000000
     7  H    2.159341   0.000000
     8  H    3.409722   2.483906   0.000000
     9  H    3.409722   4.971501   4.306212   0.000000
    10  H    2.159341   4.306808   4.971501   2.483906   0.000000
    11  H    1.086906   2.488367   4.307548   4.307548   2.488367
    12  C    4.239628   4.613065   2.679951   2.679950   4.613065
    13  C    5.455777   5.716835   3.541520   3.541524   5.716837
                   11         12         13
    11  H    0.000000
    12  C    5.326535   0.000000
    13  C    6.542684   1.216149   0.000000
 Stoichiometry    C8H5(2)
 Framework group  C1[X(C8H5)]
 Deg. of freedom    33
 Full point group                 C1      NOp   1
 Largest Abelian subgroup         C1      NOp   1
 Largest concise Abelian subgroup C1      NOp   1
                         Standard orientation:                         
 ---------------------------------------------------------------------
 Center     Atomic      Atomic             Coordinates (Angstroms)
 Number     Number       Type             X           Y           Z
 ---------------------------------------------------------------------
      1          6           0       -1.432861    1.210555    0.000000
      2          6           0       -0.038148    1.215903    0.000000
      3          6           0        0.671969   -0.000001    0.000000
      4          6           0       -0.038150   -1.215903    0.000000
      5          6           0       -1.432862   -1.210554    0.000000
      6          6           0       -2.133613    0.000001    0.000000
      7          1           0       -1.973594    2.153405    0.000000
      8          1           0        0.510313    2.153105    0.000000
      9          1           0        0.510311   -2.153107    0.000000
     10          1           0       -1.973596   -2.153403    0.000000
     11          1           0       -3.220520    0.000001    0.000000
     12          6           0        2.106015   -0.000002   -0.000001
     13          6           0        3.322164    0.000001    0.000001
 ---------------------------------------------------------------------
 Rotational constants (GHZ):      5.6565601      1.6121520      1.2545874
 Standard basis: 6-31+G(d) (6D, 7F)
 There are   162 symmetry adapted cartesian basis functions of A   symmetry.
 There are   162 symmetry adapted basis functions of A   symmetry.
[...]
   A17        2.09553   0.00004   0.00000   0.00016   0.00016   2.09569
   A18        2.09553   0.00004   0.00000   0.00016   0.00016   2.09569
   A19        3.14159   0.00000   0.00000   0.00000   0.00000   3.14159
   A20        3.14159   0.00000   0.00000   0.00000   0.00000   3.14159
    D1        0.00000   0.00000   0.00000   0.00000   0.00000   0.00000
    D2        3.14159   0.00000   0.00000   0.00000   0.00000   3.14159
    D3       -3.14159   0.00000   0.00000   0.00000   0.00000  -3.14159
    D4        0.00000   0.00000   0.00000   0.00000   0.00000   0.00000
    D5        0.00000   0.00000   0.00000   0.00000   0.00000   0.00000
    D6        3.14159   0.00000   0.00000   0.00000   0.00000   3.14159
    D7        3.14159   0.00000   0.00000   0.00000   0.00000   3.14159
    D8        0.00000   0.00000   0.00000   0.00000   0.00000   0.00000
    D9        0.00000   0.00000   0.00000   0.00000   0.00000   0.00000
   D10        3.14159   0.00000   0.00000   0.00000   0.00000   3.14159
   D11        3.14159   0.00000   0.00000   0.00000   0.00000   3.14159
   D12        0.00000   0.00000   0.00000   0.00000   0.00000   0.00000
   D13        0.00000   0.00000   0.00000   0.00000   0.00000   0.00000
   D14       -3.14159   0.00000   0.00000   0.00000   0.00000   3.14159
   D15       -3.14159   0.00000   0.00000   0.00000   0.00000  -3.14159
   D16        0.00000   0.00000   0.00000   0.00000   0.00000   0.00000
   D17        0.00000   0.00000   0.00000   0.00000   0.00000   0.00000
   D18        3.14159   0.00000   0.00000   0.00000   0.00000   3.14159
   D19       -3.14159   0.00000   0.00000   0.00000   0.00000  -3.14159
   D20        0.00000   0.00000   0.00000   0.00000   0.00000   0.00000
   D21        0.00000   0.00000   0.00000   0.00000   0.00000   0.00000
   D22       -3.14159   0.00000   0.00000   0.00000   0.00000   3.14159
   D23       -3.14159   0.00000   0.00000   0.00000   0.00000   3.14159
   D24        0.00000   0.00000   0.00000   0.00000   0.00000   0.00000
         Item               Value     Threshold  Converged?
 Maximum Force            0.000160     0.000450     YES
 RMS     Force            0.000039     0.000300     YES
 Maximum Displacement     0.000579     0.001800     YES
 RMS     Displacement     0.000169     0.001200     YES
 Predicted change in Energy=-1.071173D-07
 Optimization completed.
    -- Stationary point found.
                           ----------------------------
                           !   Optimized Parameters   !
                           ! (Angstroms and Degrees)  !
 --------------------------                            --------------------------
 ! Name  Definition              Value          Derivative Info.                !
 --------------------------------------------------------------------------------
 ! R1    R(1,2)                  1.3947         -DE/DX =    0.0                 !
 ! R2    R(1,6)                  1.3987         -DE/DX =    0.0                 !
 ! R3    R(1,7)                  1.0869         -DE/DX =   -0.0001              !
 ! R4    R(2,3)                  1.4081         -DE/DX =   -0.0001              !
 ! R5    R(2,8)                  1.0859         -DE/DX =    0.0                 !
 ! R6    R(3,4)                  1.4081         -DE/DX =   -0.0001              !
 ! R7    R(3,12)                 1.434          -DE/DX =   -0.0001              !
 ! R8    R(4,5)                  1.3947         -DE/DX =    0.0                 !
 ! R9    R(4,9)                  1.0859         -DE/DX =    0.0                 !
 ! R10   R(5,6)                  1.3987         -DE/DX =    0.0                 !
 ! R11   R(5,10)                 1.0869         -DE/DX =   -0.0001              !
 ! R12   R(6,11)                 1.0869         -DE/DX =   -0.0001              !
 ! R13   R(12,13)                1.2161         -DE/DX =   -0.0002              !
 ! A1    A(2,1,6)              120.2849         -DE/DX =    0.0                 !
 ! A2    A(2,1,7)              119.615          -DE/DX =    0.0                 !
 ! A3    A(6,1,7)              120.1001         -DE/DX =    0.0                 !
 ! A4    A(1,2,3)              120.0663         -DE/DX =    0.0                 !
 ! A5    A(1,2,8)              120.5563         -DE/DX =    0.0                 !
 ! A6    A(3,2,8)              119.3774         -DE/DX =    0.0                 !
 ! A7    A(2,3,4)              119.428          -DE/DX =    0.0                 !
 ! A8    A(2,3,12)             120.286          -DE/DX =    0.0                 !
 ! A9    A(4,3,12)             120.286          -DE/DX =    0.0                 !
 ! A10   A(3,4,5)              120.0663         -DE/DX =    0.0                 !
 ! A11   A(3,4,9)              119.3774         -DE/DX =    0.0                 !
 ! A12   A(5,4,9)              120.5563         -DE/DX =    0.0                 !
 ! A13   A(4,5,6)              120.2849         -DE/DX =    0.0                 !
 ! A14   A(4,5,10)             119.615          -DE/DX =    0.0                 !
 ! A15   A(6,5,10)             120.1001         -DE/DX =    0.0                 !
 ! A16   A(1,6,5)              119.8696         -DE/DX =   -0.0001              !
 ! A17   A(1,6,11)             120.0652         -DE/DX =    0.0                 !
 ! A18   A(5,6,11)             120.0652         -DE/DX =    0.0                 !
 ! A19   L(3,12,13,8,-1)       179.9998         -DE/DX =    0.0                 !
 ! A20   L(3,12,13,8,-2)       179.9998         -DE/DX =    0.0                 !
 ! D1    D(6,1,2,3)              0.0            -DE/DX =    0.0                 !
 ! D2    D(6,1,2,8)            180.0            -DE/DX =    0.0                 !
 ! D3    D(7,1,2,3)           -180.0            -DE/DX =    0.0                 !
 ! D4    D(7,1,2,8)              0.0            -DE/DX =    0.0                 !
 ! D5    D(2,1,6,5)              0.0            -DE/DX =    0.0                 !
 ! D6    D(2,1,6,11)           180.0            -DE/DX =    0.0                 !
 ! D7    D(7,1,6,5)            180.0            -DE/DX =    0.0                 !
 ! D8    D(7,1,6,11)             0.0            -DE/DX =    0.0                 !
 ! D9    D(1,2,3,4)              0.0            -DE/DX =    0.0                 !
 ! D10   D(1,2,3,12)           180.0            -DE/DX =    0.0                 !
 ! D11   D(8,2,3,4)            180.0            -DE/DX =    0.0                 !
 ! D12   D(8,2,3,12)             0.0            -DE/DX =    0.0                 !
 ! D13   D(2,3,4,5)              0.0            -DE/DX =    0.0                 !
 ! D14   D(2,3,4,9)            180.0            -DE/DX =    0.0                 !
 ! D15   D(12,3,4,5)          -180.0            -DE/DX =    0.0                 !
 ! D16   D(12,3,4,9)             0.0            -DE/DX =    0.0                 !
 ! D17   D(3,4,5,6)              0.0            -DE/DX =    0.0                 !
 ! D18   D(3,4,5,10)           180.0            -DE/DX =    0.0                 !
 ! D19   D(9,4,5,6)           -180.0            -DE/DX =    0.0                 !
 ! D20   D(9,4,5,10)             0.0            -DE/DX =    0.0                 !
 ! D21   D(4,5,6,1)              0.0            -DE/DX =    0.0                 !
 ! D22   D(4,5,6,11)           180.0            -DE/DX =    0.0                 !
 ! D23   D(10,5,6,1)           180.0            -DE/DX =    0.0                 !
 ! D24   D(10,5,6,11)            0.0            -DE/DX =    0.0                 !
 --------------------------------------------------------------------------------
 GradGradGradGradGradGradGradGradGradGradGradGradGradGradGradGradGradGrad

 1|1|UNPC-DESKTOP-LNBVCDA|Freq|UB3LYP|6-31+G(d)|C8H5(2)|123|24-Aug-2023
 |0||#N Geom=AllCheck Guess=TCheck SCRF=Check GenChk UB3LYP/6-31+G(d) F
 req||Title Card Required||0,2|C,-6.5435769739,-2.3572439911,-1.1749296
 016|C,-5.1864527544,-2.338664584,-1.4960527769|C,-4.4829156849,-1.1191
 076629,-1.5161770505|C,-5.161395605,0.0761219888,-1.2099425728|C,-6.51
 86300318,0.0469211263,-0.890077789|C,-7.2129973893,-1.1671646417,-0.87
 14765503|H,-7.0794734511,-3.30275669,-1.161602711|H,-4.6624083344,-3.2
 599137317,-1.7323497229|H,-4.6180374832,1.0161603701,-1.2257093157|H,-
 7.0350964155,0.973909305,-0.6548921267|H,-8.2706539693,-1.1857823246,-
 0.6217140914|C,-3.0874613447,-1.094543725,-1.8457085387|C,-1.904040712
 4,-1.0737151391,-2.1251727123||Version=EM64W-G09RevD.01|State=2-A|HF=-
 307.6927298|S2=0.777423|S2-1=0.|S2A=0.750447|RMSD=3.347e-009|RMSF=4.82
 2e-005|ZeroPoint=0.0981504|Thermal=0.1037744|Dipole=-0.6604382,-0.0116
 232,0.1559581|DipoleDeriv=-0.0189729,0.1163309,-0.0269148,0.0942679,0.
 0287452,0.0041145,-0.0295865,-0.0011406,-0.1840758,-0.0800692,-0.21262
 82,-0.0142214,-0.0130633,0.0934398,0.0182597,0.0099206,0.0658117,-0.02
 621,0.3539299,-0.007978,-0.0186792,-0.0079648,-0.6157407,-0.1063929,-0
 .0186691,-0.1063895,0.2711347,-0.0753703,0.213695,0.0362258,0.0141251,
 0.101423,0.0127508,0.0120903,-0.0348021,-0.0388931,-0.0231252,-0.10586
 31,-0.052801,-0.0837973,0.0216989,0.0456939,-0.0501352,0.0509495,-0.17
 28794,0.0330434,0.0036505,-0.0337855,0.0036507,-0.0023917,0.0122184,-0
 .0337849,0.0122185,-0.1010717,0.0138139,-0.0835468,0.0182202,-0.082733
 5,-0.0591594,-0.0034918,0.0183185,-0.003298,0.1279274,0.0425905,0.0660
 335,0.0352288,0.0523445,-0.0179781,-0.0336269,0.0335738,-0.0368889,0.1
 444568,0.0399737,-0.0737793,0.0189412,-0.0600905,-0.0224174,-0.0073737
 ,0.0205978,-0.0041117,0.1515133,0.0170966,0.0754977,0.0366752,0.074683
 6,-0.0535897,-0.040327,0.0365767,-0.0405209,0.1190743,-0.0997293,-0.00
 5281,0.0594639,-0.0052812,0.0713714,-0.0085557,0.0594642,-0.0085558,0.
 1373062,0.324217,0.0382314,-0.274014,0.0382451,0.8597724,0.1970995,-0.
 2740269,0.1971023,-0.7559579,-0.5273981,-0.0243627,0.2156608,-0.024386
 2,-0.4051737,-0.090369,0.2156608,-0.0903745,0.3276751|Polar=130.454626
 5,2.2028735,97.2508001,-21.4343198,6.4745759,45.2729501|PG=C01 [X(C8H5
 )]|NImag=1||0.65849919,0.04741029,0.71504242,-0.11941112,0.05906956,0.
 16888440,-0.32775659,-0.03605850,0.05903617,0.66261464,0.02607425,-0.1
 2890955,-0.01434352,-0.02785749,0.69681676,0.06655140,0.00046120,-0.07
 749078,-0.12954053,0.07482237,0.17301511,-0.02943912,-0.02555096,0.005
 06067,-0.15208900,-0.10213206,0.00897664,0.63598578,-0.07025395,0.0282
 3550,0.01957811,-0.05952286,-0.26433748,-0.01022194,0.01295808,0.59065
 927,-0.00034627,0.00892636,0.00593231,0.01413027,-0.00006918,-0.065946
 19,-0.11281015,0.04949107,0.18882959,-0.04652931,0.02653421,0.01276227
 ,0.05908642,0.01974068,-0.00951806,-0.14888472,0.05229825,0.02689213,0
 .66440138,0.02567947,-0.01551794,-0.00721708,-0.01928427,-0.05364846,-
 0.00299716,0.09490732,-0.25890162,-0.04636125,0.05825562,0.69984780,0.
 01265888,-0.00742074,-0.01035183,-0.01423833,-0.01229591,0.01102537,0.
 03204609,-0.03620851,-0.07458614,-0.11955046,0.05467028,0.16819722,0.0
 6139308,-0.02165999,-0.01538421,-0.04764671,-0.02731840,0.00651477,-0.
 02746466,0.06960621,0.01610006,-0.32777270,-0.03683495,0.05894606,0.65
 716479,0.02223227,-0.05547067,-0.01295319,-0.02817314,-0.01741351,0.00
 538543,0.02490324,0.03158485,-0.00269038,0.02529781,-0.12893682,-0.014
 16183,-0.01689921,0.71277878,-0.01007522,-0.00249470,0.00992254,0.0064
 1139,0.00518178,-0.00733885,0.01069288,-0.01334213,0.00060841,0.066461
 38,0.00064289,-0.07744736,-0.12687174,0.07411920,0.17248242,-0.1727820
 9,0.11263947,0.03994392,-0.02438367,0.02802434,0.01092654,0.00178326,-
 0.00047295,-0.00194113,-0.02648697,-0.02864377,0.00457341,-0.17633338,
 -0.12112205,0.01251545,0.70956398,0.05003017,-0.27772936,-0.03797541,0
 .07272363,0.03461969,-0.01401746,-0.00047294,-0.06512130,-0.00702343,-
 0.07334307,0.03105164,0.02035519,-0.05851273,-0.28375379,-0.01284090,0
 .01555308,0.65520759,0.03237099,-0.05289371,-0.07643474,0.01633316,-0.
 00336668,0.00294810,-0.00194112,-0.00702343,-0.00651019,-0.00083319,0.
 00970441,0.00861945,0.02008836,0.00207739,-0.06685905,-0.13539870,0.05
 940621,0.17287389,-0.12666817,-0.12058010,0.00686577,-0.01084894,-0.02
 842628,-0.00010273,-0.00427213,0.00063239,0.00275289,-0.00064737,0.000
 89106,0.00009596,-0.00067725,0.00277568,0.00214122,0.01180535,0.014653
 72,-0.00026720,0.13075085,-0.12059925,-0.27127228,0.00035651,0.0017148
 5,0.00348617,-0.00036793,0.00060895,0.00211718,-0.00073088,0.00079704,
 0.00019320,-0.00008225,0.00382942,-0.00268751,-0.00207212,-0.01557362,
 -0.01835257,0.00109844,0.12971679,0.28627111,0.00686345,0.00035195,-0.
 03823720,0.00354300,0.00681399,0.00312981,0.00275005,-0.00073647,0.006
 21586,0.00008458,-0.00010465,-0.00072979,0.00226867,-0.00182104,0.0061
 3920,-0.00392335,-0.00610401,0.00344188,-0.00938228,0.00062980,0.02783
 945,-0.00933045,0.02745754,0.00637837,-0.12395038,0.11628815,0.0349062
 6,0.01023732,-0.01518121,-0.00331245,-0.00118404,-0.00316358,0.0013733
 3,-0.00062999,-0.00071664,-0.00013293,-0.00484363,-0.00187826,0.002668
 49,0.00037827,-0.00018749,-0.00110538,0.12840018,-0.00248129,0.0051565
 6,0.00079157,0.11453034,-0.26378994,-0.05478336,0.01480272,-0.01829991
 ,-0.00622948,-0.00439323,-0.00272999,-0.00003158,-0.00069525,0.0002451
 3,0.00029499,-0.00093030,0.00155948,-0.00047376,0.00047547,0.00076520,
 0.00048312,-0.12249342,0.27782425,0.00275715,-0.00634214,0.00207619,0.
 03469361,-0.05520223,-0.05142984,0.00031428,0.00091497,0.00407772,0.00
 122460,-0.00032457,0.00585444,-0.00013035,0.00030009,-0.00075674,0.002
 78315,-0.00024787,0.00661582,-0.00102520,0.00064108,-0.00384382,-0.039
 41472,0.05974768,0.04178312,-0.00060007,0.00074672,0.00003694,-0.00103
 635,0.00272439,0.00205032,0.01024009,0.01493578,0.00032969,-0.12890505
 ,-0.12425759,0.00699161,-0.00985772,-0.02789335,-0.00019096,-0.0047966
 7,0.00133286,0.00304570,0.00003928,-0.00006818,-0.00028555,0.00059167,
 0.00078366,0.00007078,0.13367149,0.00072532,0.00029589,-0.00003736,0.0
 0395403,-0.00247947,-0.00199022,-0.01504812,-0.01829520,0.00088381,-0.
 12249979,-0.27219506,0.00067856,0.00204546,0.00426208,-0.00039524,0.00
 038489,0.00163915,-0.00077750,-0.00005425,-0.00002055,0.00014646,-0.00
 081036,-0.00096679,0.00001677,0.13155525,0.28676652,0.00003434,-0.0000
 4246,-0.00083741,0.00219905,-0.00169722,0.00545622,-0.00329700,-0.0062
 6064,0.00407026,0.00720420,0.00109742,-0.03807002,0.00343032,0.0067384
 7,0.00349795,0.00293104,-0.00100339,0.00648919,-0.00028387,0.00014978,
 -0.00103876,-0.00012203,-0.00036304,0.00047606,-0.00994227,0.00029562,
 0.02756952,-0.00082407,-0.00324649,0.00144779,-0.00068199,-0.00087206,
 -0.00010905,-0.00430821,-0.00112949,0.00254837,-0.01030438,0.02795966,
 0.00658768,-0.12182709,0.11271339,0.03393029,0.01182140,-0.01480000,-0
 .00383361,0.00046671,-0.00082726,-0.00016088,0.00004315,0.00011826,-0.
 00026392,0.00037774,-0.00021323,-0.00110837,0.12555309,-0.00430023,-0.
 00293657,-0.00016515,-0.00077804,0.00013445,0.00028596,-0.00110608,0.0
 0205599,-0.00032964,-0.00218145,0.00440997,0.00067221,0.11273253,-0.26
 305988,-0.05424760,0.01542735,-0.01832533,-0.00628505,0.00081079,-0.00
 101533,-0.00034158,0.00013219,-0.00001398,0.00010283,0.00044973,0.0007
 6429,0.00048914,-0.12078573,0.27745364,0.00132033,-0.00041623,0.006535
 09,-0.00009768,0.00030836,-0.00063641,0.00255120,-0.00032406,0.0063131
 1,0.00294196,-0.00650970,0.00166145,0.03393260,-0.05424304,-0.05129067
 ,-0.00017745,0.00091740,0.00339859,0.00003725,0.00004873,0.00020847,-0
 .00026224,0.00010615,-0.00104919,-0.00102818,0.00064711,-0.00384238,-0
 .03844333,0.05925211,0.04185467,-0.01023026,-0.00266919,0.00289745,0.0
 0106333,0.00279628,0.00177611,0.00069316,0.00000873,-0.00023839,0.0009
 5726,-0.00325353,0.00106963,-0.01075549,0.00221752,0.00361367,-0.32363
 225,-0.00528975,0.06770736,0.00051923,0.00053513,-0.00099082,-0.000580
 28,-0.00022801,0.00014478,-0.00060453,0.00020157,0.00020252,0.00051683
 ,-0.00028469,-0.00108941,0.34215794,0.02753057,0.00533433,-0.00631197,
 0.00185811,-0.00452206,-0.00184823,0.00000873,-0.00117514,-0.00010651,
 -0.00231536,-0.00470198,-0.00087556,-0.02798225,0.00444333,0.00680764,
 -0.00528975,-0.06006884,-0.00155502,-0.00016904,0.00064824,0.00059171,
 0.00137059,0.00013714,-0.00032730,-0.00139703,0.00009599,0.00032718,0.
 00041948,0.00064417,0.00045098,0.00592513,0.05907781,0.00655027,0.0008
 8391,0.00183088,0.00166263,-0.00207178,0.00645112,-0.00023837,-0.00010
 651,-0.00026782,0.00118310,-0.00065201,0.00673711,-0.00003914,-0.00038
 824,0.00324710,0.06770736,-0.00155502,-0.05311322,-0.00107599,0.000423
 92,-0.00360304,0.00033814,0.00005361,0.00006898,0.00000916,-0.00005373
 ,0.00013439,-0.00100424,0.00061877,-0.00359657,-0.07476721,0.00266575,
 0.04350407,0.00644846,-0.00458555,0.00060399,-0.03729093,-0.01817130,0
 .00633271,-0.27838696,-0.00280846,0.04656534,-0.03653637,0.01694987,0.
 01040093,0.00659404,0.00415968,0.00162711,-0.00277588,-0.00000563,0.00
 015928,-0.00021430,0.00000748,0.00028259,0.00073800,0.00128887,-0.0012
 9293,0.00073939,-0.00097095,-0.00156660,-0.00020478,-0.00007327,0.0002
 7056,0.00001138,0.00005878,-0.00049547,1.29702330,-0.00285796,-0.00119
 853,-0.00083211,-0.01937216,-0.00092190,0.00468469,-0.00280617,-0.0180
 5940,0.00834599,0.01815020,0.00035644,-0.00410166,0.00243238,-0.000951
 39,-0.00206269,-0.00000561,-0.00150780,0.00007351,-0.00052835,-0.00021
 466,-0.00001714,-0.00103854,-0.00034006,0.00085250,0.00135643,-0.00033
 768,0.00028212,0.00046251,-0.00019864,-0.00025129,0.00005876,-0.000011
 10,0.00023839,0.01918739,0.01049815,0.00081276,-0.00042031,0.01106612,
 0.00618777,0.00439858,-0.00243143,0.04656585,0.00834654,-0.09161801,0.
 01054643,-0.00381567,-0.00446385,0.00141798,-0.00247443,0.01067354,0.0
 0015934,0.00007351,-0.00213355,0.00021777,-0.00014481,0.00089842,-0.00
 157440,0.00029792,-0.00493105,-0.00128505,0.00083670,-0.00493483,0.000
 33535,-0.00012363,0.00087298,-0.00049545,0.00023838,-0.00195084,-0.274
 78757,-0.01951656,0.19716837,-0.00218060,-0.00043746,-0.00023801,0.002
 92019,0.00912950,0.00123562,-0.01409483,-0.00107051,0.00932965,0.00280
 584,-0.00920531,-0.00095479,-0.00218692,0.00050482,-0.00012254,0.00106
 055,0.00000892,-0.00009952,-0.00063153,0.00004615,0.00005593,0.0001301
 7,-0.00077783,0.00013878,0.00014074,0.00073018,0.00031867,-0.00062838,
 -0.00004308,0.00004439,-0.00011631,-0.00001797,0.00016976,-0.95614536,
 -0.01503887,0.21189923,0.96892644,0.00081034,-0.00102979,0.00004005,-0
 .00373449,0.00096530,0.00058666,-0.00107271,-0.01046276,-0.00410647,0.
 00365910,0.00077283,-0.00119820,-0.00074323,-0.00104061,0.00040888,0.0
 0000891,0.00078145,0.00001520,-0.00019787,0.00008179,0.00010787,0.0002
 2103,0.00045291,-0.00013182,-0.00026864,0.00047083,-0.00001297,0.00020
 097,0.00008724,0.00001348,-0.00001796,0.00009811,-0.00005706,-0.015036
 91,0.01288657,0.01230379,0.01617146,-0.00406387,-0.00008696,0.00033730
 ,-0.00289556,-0.00032051,-0.00247854,0.00324777,0.00932898,-0.00410700
 ,0.02288109,0.00060106,0.00186710,0.00355396,-0.00027337,0.00011158,-0
 .00287849,-0.00009956,0.00001519,0.00066383,0.00002643,0.00004972,-0.0
 0042047,0.00025957,0.00010619,0.00105830,0.00019782,-0.00025098,0.0010
 2982,0.00007392,0.00007164,-0.00042914,0.00016975,-0.00005705,0.000557
 85,0.21190004,0.01230426,-0.10821586,-0.22177717,-0.00796942,0.0818468
 8||-0.00002580,0.00003930,0.00001094,-0.00000315,-0.00007052,-0.000007
 84,-0.00007240,-0.00000122,0.00001693,-0.00000172,0.00007045,0.0000088
 7,-0.00002660,-0.00004024,0.00000153,0.00017836,0.00000315,-0.00004214
 ,-0.00004357,-0.00003431,0.00000624,-0.00002088,0.00000290,0.00000532,
 -0.00002095,-0.00000365,0.00000454,-0.00004287,0.00003278,0.00001419,-
 0.00005776,-0.00000102,0.00001363,-0.00001868,-0.00000042,0.00000482,0
 .00015601,0.00000279,-0.00003704|||@


 I DON'T PRETEND TO UNDERSTAND THE UNIVERSE --
 IT'S A GREAT DEAL BIGGER THAN I AM.
       -- ATTR. TO WILLIAM ALLINGHAM (1828-89)
 Job cpu time:       0 days  0 hours  7 minutes 25.0 seconds.
 File lengths (MBytes):  RWF=     75 Int=      0 D2E=      0 Chk=      4 Scr=      1
 Normal termination of Gaussian 09 at Thu Aug 24 12:18:21 2023.
