 Entering Gaussian System, Link 0=/home/ubuntu/g16/g16
 Input=/home/ubuntu/ML substrates/MOLECULE_30.gjf
 Output=/home/ubuntu/ML substrates/MOLECULE_30.log
 Initial command:
 /home/ubuntu/g16/l1.exe "/home/ubuntu/Scratch/Gau-32640.inp" -scrdir="/home/ubuntu/Scratch/"
 Entering Link 1 = /home/ubuntu/g16/l1.exe PID=     32642.
  
 Copyright (c) 1988-2017, Gaussian, Inc.  All Rights Reserved.
  
 This is part of the Gaussian(R) 16 program.  It is based on
 the Gaussian(R) 09 system (copyright 2009, Gaussian, Inc.),
 the Gaussian(R) 03 system (copyright 2003, Gaussian, Inc.),
 the Gaussian(R) 98 system (copyright 1998, Gaussian, Inc.),
 the Gaussian(R) 94 system (copyright 1995, Gaussian, Inc.),
 the Gaussian 92(TM) system (copyright 1992, Gaussian, Inc.),
 the Gaussian 90(TM) system (copyright 1990, Gaussian, Inc.),
 the Gaussian 88(TM) system (copyright 1988, Gaussian, Inc.),
 the Gaussian 86(TM) system (copyright 1986, Carnegie Mellon
 University), and the Gaussian 82(TM) system (copyright 1983,
 Carnegie Mellon University). Gaussian is a federally registered
 trademark of Gaussian, Inc.
  
 This software contains proprietary and confidential information,
 including trade secrets, belonging to Gaussian, Inc.
  
 This software is provided under written license and may be
 used, copied, transmitted, or stored only in accord with that
 written license.
  
 The following legend is applicable only to US Government
 contracts under FAR:
  
                    RESTRICTED RIGHTS LEGEND
  
 Use, reproduction and disclosure by the US Government is
 subject to restrictions as set forth in subparagraphs (a)
 and (c) of the Commercial Computer Software - Restricted
 Rights clause in FAR 52.227-19.
  
 Gaussian, Inc.
 340 Quinnipiac St., Bldg. 40, Wallingford CT 06492
  
  
 ---------------------------------------------------------------
 Warning -- This program may not be used in any manner that
 competes with the business of Gaussian, Inc. or will provide
 assistance to any competitor of Gaussian, Inc.  The licensee
 of this program is prohibited from giving any competitor of
 Gaussian, Inc. access to this program.  By using this program,
 the user acknowledges that Gaussian, Inc. is engaged in the
 business of creating and licensing software in the field of
 computational chemistry and represents and warrants to the
 licensee that it is not a competitor of Gaussian, Inc. and that
 it will not use this program in any manner prohibited above.
 ---------------------------------------------------------------
  

 Cite this work as:
 Gaussian 16, Revision B.01,
 M. J. Frisch, G. W. Trucks, H. B. Schlegel, G. E. Scuseria, 
 M. A. Robb, J. R. Cheeseman, G. Scalmani, V. Barone, 
 G. A. Petersson, H. Nakatsuji, X. Li, M. Caricato, A. V. Marenich, 
 J. Bloino, B. G. Janesko, R. Gomperts, B. Mennucci, H. P. Hratchian, 
 J. V. Ortiz, A. F. Izmaylov, J. L. Sonnenberg, D. Williams-Young, 
 F. Ding, F. Lipparini, F. Egidi, J. Goings, B. Peng, A. Petrone, 
 T. Henderson, D. Ranasinghe, V. G. Zakrzewski, J. Gao, N. Rega, 
 G. Zheng, W. Liang, M. Hada, M. Ehara, K. Toyota, R. Fukuda, 
 J. Hasegawa, M. Ishida, T. Nakajima, Y. Honda, O. Kitao, H. Nakai, 
 T. Vreven, K. Throssell, J. A. Montgomery, Jr., J. E. Peralta, 
 F. Ogliaro, M. J. Bearpark, J. J. Heyd, E. N. Brothers, K. N. Kudin, 
 V. N. Staroverov, T. A. Keith, R. Kobayashi, J. Normand, 
 K. Raghavachari, A. P. Rendell, J. C. Burant, S. S. Iyengar, 
 J. Tomasi, M. Cossi, J. M. Millam, M. Klene, C. Adamo, R. Cammi, 
 J. W. Ochterski, R. L. Martin, K. Morokuma, O. Farkas, 
 J. B. Foresman, and D. J. Fox, Gaussian, Inc., Wallingford CT, 2016.
 
 ******************************************
 Gaussian 16:  EM64L-G16RevB.01 20-Dec-2017
                15-Sep-2023 
 ******************************************
 %nprocshared=30
 Will use up to   30 processors via shared memory.
 %mem=30GB
 %chk=MOLECULE_30.chk
 ----------------------------------------------------------------
 # opt freq b3lyp/6-31+g(d) nosymm empiricaldispersion=gd3 volume
 ----------------------------------------------------------------
 1/18=20,19=15,26=3,38=1/1,3;
 2/9=110,12=2,15=1,17=6,18=5,40=1/2;
 3/5=1,6=6,7=11,11=2,25=1,30=1,71=1,74=-5,124=31/1,2,3;
 4//1;
 5/5=2,38=5/2;
 6/7=2,8=2,9=2,10=2,28=1,44=1/1,4;
 7/30=1/1,2,3,16;
 1/18=20,19=15,26=3/3(2);
 2/9=110,15=1/2;
 99//99;
 2/9=110,15=1/2;
 3/5=1,6=6,7=11,11=2,25=1,30=1,71=1,74=-5,124=31/1,2,3;
 4/5=5,16=3,69=1/1;
 5/5=2,38=5/2;
 7/30=1/1,2,3,16;
 1/18=20,19=15,26=3/3(-5);
 2/9=110,15=1/2;
 6/7=2,8=2,9=2,10=2,19=2,28=1,44=1/1,4;
 99/9=1/99;
 -----------
 molecule_30
 -----------
 Symbolic Z-matrix:
 Charge =  0 Multiplicity = 1
 C                    -0.26695  -0.71912  -0.00189 
 C                     1.13215  -0.71476  -0.01758 
 C                     1.82499   0.50012  -0.03271 
 C                     1.13229   1.7151   -0.01914 
 C                    -0.26681   1.71965  -0.00346 
 C                    -0.94235   0.5003    0.00116 
 H                    -0.81958  -1.65039   0.01113 
 H                     1.69072  -1.64346  -0.00494 
 H                     1.69097   2.64376  -0.0077 
 H                    -0.81934   2.65099   0.00835 
 O                     3.23337   0.50007   0.01586 
 H                     3.63322   0.4995   -0.87647 
 Cl                   -2.7711    0.50043   0.01921 
 

 GradGradGradGradGradGradGradGradGradGradGradGradGradGradGradGradGradGrad
 Berny optimization.
 Initialization pass.
                           ----------------------------
                           !    Initial Parameters    !
                           ! (Angstroms and Degrees)  !
 --------------------------                            --------------------------
 ! Name  Definition              Value          Derivative Info.                !
 --------------------------------------------------------------------------------
 ! R1    R(1,2)                  1.3992         estimate D2E/DX2                !
 ! R2    R(1,6)                  1.394          estimate D2E/DX2                !
 ! R3    R(1,7)                  1.083          estimate D2E/DX2                !
 ! R4    R(2,3)                  1.3986         estimate D2E/DX2                !
 ! R5    R(2,8)                  1.0838         estimate D2E/DX2                !
 ! R6    R(3,4)                  1.3986         estimate D2E/DX2                !
 ! R7    R(3,11)                 1.4092         estimate D2E/DX2                !
 ! R8    R(4,5)                  1.3992         estimate D2E/DX2                !
 ! R9    R(4,9)                  1.0838         estimate D2E/DX2                !
 ! R10   R(5,6)                  1.394          estimate D2E/DX2                !
 ! R11   R(5,10)                 1.083          estimate D2E/DX2                !
 ! R12   R(6,13)                 1.8288         estimate D2E/DX2                !
 ! R13   R(11,12)                0.9778         estimate D2E/DX2                !
 ! A1    A(2,1,6)              118.8017         estimate D2E/DX2                !
 ! A2    A(2,1,7)              120.8687         estimate D2E/DX2                !
 ! A3    A(6,1,7)              120.3292         estimate D2E/DX2                !
 ! A4    A(1,2,3)              119.8786         estimate D2E/DX2                !
 ! A5    A(1,2,8)              120.8329         estimate D2E/DX2                !
 ! A6    A(3,2,8)              119.2835         estimate D2E/DX2                !
 ! A7    A(2,3,4)              120.6044         estimate D2E/DX2                !
 ! A8    A(2,3,11)             119.6481         estimate D2E/DX2                !
 ! A9    A(4,3,11)             119.648          estimate D2E/DX2                !
 ! A10   A(3,4,5)              119.8788         estimate D2E/DX2                !
 ! A11   A(3,4,9)              119.283          estimate D2E/DX2                !
 ! A12   A(5,4,9)              120.8332         estimate D2E/DX2                !
 ! A13   A(4,5,6)              118.8015         estimate D2E/DX2                !
 ! A14   A(4,5,10)             120.8693         estimate D2E/DX2                !
 ! A15   A(6,5,10)             120.3289         estimate D2E/DX2                !
 ! A16   A(1,6,5)              122.031          estimate D2E/DX2                !
 ! A17   A(1,6,13)             118.9845         estimate D2E/DX2                !
 ! A18   A(5,6,13)             118.984          estimate D2E/DX2                !
 ! A19   A(3,11,12)            112.1612         estimate D2E/DX2                !
 ! D1    D(6,1,2,3)             -0.1359         estimate D2E/DX2                !
 ! D2    D(6,1,2,8)            179.0486         estimate D2E/DX2                !
 ! D3    D(7,1,2,3)           -179.9273         estimate D2E/DX2                !
 ! D4    D(7,1,2,8)             -0.7428         estimate D2E/DX2                !
 ! D5    D(2,1,6,5)             -0.3613         estimate D2E/DX2                !
 ! D6    D(2,1,6,13)           179.9127         estimate D2E/DX2                !
 ! D7    D(7,1,6,5)            179.4313         estimate D2E/DX2                !
 ! D8    D(7,1,6,13)            -0.2947         estimate D2E/DX2                !
 ! D9    D(1,2,3,4)              0.6282         estimate D2E/DX2                !
 ! D10   D(1,2,3,11)           176.9888         estimate D2E/DX2                !
 ! D11   D(8,2,3,4)           -178.569          estimate D2E/DX2                !
 ! D12   D(8,2,3,11)            -2.2084         estimate D2E/DX2                !
 ! D13   D(2,3,4,5)             -0.6286         estimate D2E/DX2                !
 ! D14   D(2,3,4,9)            178.5692         estimate D2E/DX2                !
 ! D15   D(11,3,4,5)          -176.9892         estimate D2E/DX2                !
 ! D16   D(11,3,4,9)             2.2086         estimate D2E/DX2                !
 ! D17   D(2,3,11,12)           91.8032         estimate D2E/DX2                !
 ! D18   D(4,3,11,12)          -91.8011         estimate D2E/DX2                !
 ! D19   D(3,4,5,6)              0.1368         estimate D2E/DX2                !
 ! D20   D(3,4,5,10)           179.9278         estimate D2E/DX2                !
 ! D21   D(9,4,5,6)           -179.0484         estimate D2E/DX2                !
 ! D22   D(9,4,5,10)             0.7426         estimate D2E/DX2                !
 ! D23   D(4,5,6,1)              0.3609         estimate D2E/DX2                !
 ! D24   D(4,5,6,13)          -179.9132         estimate D2E/DX2                !
 ! D25   D(10,5,6,1)          -179.4313         estimate D2E/DX2                !
 ! D26   D(10,5,6,13)            0.2946         estimate D2E/DX2                !
 --------------------------------------------------------------------------------
 Trust Radius=3.00D-01 FncErr=1.00D-07 GrdErr=1.00D-06 EigMax=2.50D+02 EigMin=1.00D-04
 Number of steps in this run=     68 maximum allowed number of steps=    100.
 GradGradGradGradGradGradGradGradGradGradGradGradGradGradGradGradGradGrad

                          Input orientation:                          
 ---------------------------------------------------------------------
 Center     Atomic      Atomic             Coordinates (Angstroms)
 Number     Number       Type             X           Y           Z
 ---------------------------------------------------------------------
      1          6           0       -0.266948   -0.719119   -0.001889
      2          6           0        1.132151   -0.714757   -0.017578
      3          6           0        1.824993    0.500122   -0.032713
      4          6           0        1.132288    1.715102   -0.019138
      5          6           0       -0.266806    1.719649   -0.003464
      6          6           0       -0.942351    0.500304    0.001164
      7          1           0       -0.819581   -1.650387    0.011133
      8          1           0        1.690720   -1.643464   -0.004944
      9          1           0        1.690972    2.643756   -0.007701
     10          1           0       -0.819337    2.650992    0.008354
     11          8           0        3.233372    0.500074    0.015862
     12          1           0        3.633215    0.499495   -0.876472
     13         17           0       -2.771101    0.500428    0.019213
 ---------------------------------------------------------------------
                    Distance matrix (angstroms):
                    1          2          3          4          5
     1  C    0.000000
     2  C    1.399194   0.000000
     3  C    2.421511   1.398639   0.000000
     4  C    2.807773   2.429860   1.398643   0.000000
     5  C    2.438769   2.807777   2.421513   1.399189   0.000000
     6  C    1.393977   2.404222   2.767551   2.404220   1.393982
     7  H    1.082974   2.164598   3.408868   3.890659   3.415101
     8  H    2.164922   1.083815   2.147967   3.404705   3.891329
     9  H    3.891325   3.404701   2.147965   1.083816   2.164922
    10  H    3.415097   3.890661   3.408872   2.164598   1.082973
    11  O    3.706614   2.427357   1.409216   2.427359   3.706613
    12  H    4.178659   2.909885   1.995394   2.909872   4.178646
    13  Cl   2.785412   4.088203   4.596387   4.088196   2.785410
                    6          7          8          9         10
     6  C    0.000000
     7  H    2.154215   0.000000
     8  H    3.395415   2.510362   0.000000
     9  H    3.395417   4.974223   4.287221   0.000000
    10  H    2.154215   4.301380   4.974225   2.510371   0.000000
    11  O    4.175749   4.588130   2.641016   2.641008   4.588132
    12  H    4.658975   5.023667   3.020782   3.020749   5.023652
    13  Cl   1.828839   2.904221   4.950223   4.950220   2.904208
                   11         12         13
    11  O    0.000000
    12  H    0.977821   0.000000
    13  Cl   6.004474   6.466646   0.000000
 Symmetry turned off by external request.
 Stoichiometry    C6H5ClO
 Framework group  C1[X(C6H5ClO)]
 Deg. of freedom    33
 Full point group                 C1      NOp   1
 Rotational constants (GHZ):           5.5876342           0.9367171           0.8041444
 Standard basis: 6-31+G(d) (6D, 7F)
   166 basis functions,   300 primitive gaussians,   166 cartesian basis functions
    33 alpha electrons       33 beta electrons
       nuclear repulsion energy       388.8702123295 Hartrees.
 NAtoms=   13 NActive=   13 NUniq=   13 SFac= 1.00D+00 NAtFMM=   60 NAOKFM=F Big=F
 Integral buffers will be    131072 words long.
 Raffenetti 2 integral format.
 Two-electron integral symmetry is turned off.
 Nuclear repulsion after empirical dispersion term =      388.8615264015 Hartrees.
 One-electron integrals computed using PRISM.
 NBasis=   166 RedAO= T EigKep=  4.29D-06  NBF=   166
 NBsUse=   166 1.00D-06 EigRej= -1.00D+00 NBFU=   166
 ExpMin= 4.38D-02 ExpMax= 2.52D+04 ExpMxC= 3.78D+03 IAcc=3 IRadAn=         5 AccDes= 0.00D+00
 Harris functional with IExCor=  402 and IRadAn=       5 diagonalized for initial guess.
 HarFok:  IExCor=  402 AccDes= 0.00D+00 IRadAn=         5 IDoV= 1 UseB2=F ITyADJ=14
 ICtDFT=  3500011 ScaDFX=  1.000000  1.000000  1.000000  1.000000
 FoFCou: FMM=F IPFlag=           0 FMFlag=      100000 FMFlg1=           0
         NFxFlg=           0 DoJE=T BraDBF=F KetDBF=T FulRan=T
         wScrn=  0.000000 ICntrl=       500 IOpCl=  0 I1Cent=   200000004 NGrid=           0
         NMat0=    1 NMatS0=      1 NMatT0=    0 NMatD0=    1 NMtDS0=    0 NMtDT0=    0
 Symmetry not used in FoFCou.
 Requested convergence on RMS density matrix=1.00D-08 within 128 cycles.
 Requested convergence on MAX density matrix=1.00D-06.
 Requested convergence on             energy=1.00D-06.
 No special actions if energy rises.
 SCF Done:  E(RB3LYP) =  -767.076449869     A.U. after   13 cycles
            NFock= 13  Conv=0.58D-08     -V/T= 2.0060

 **********************************************************************

            Population analysis using the SCF Density.

 **********************************************************************

 Alpha  occ. eigenvalues -- -101.55564 -19.18822 -10.26890 -10.26878 -10.22194
 Alpha  occ. eigenvalues --  -10.22193 -10.21666 -10.21666  -9.46987  -7.23408
 Alpha  occ. eigenvalues --   -7.22419  -7.22404  -1.05366  -0.89274  -0.83629
 Alpha  occ. eigenvalues --   -0.77554  -0.74162  -0.64044  -0.61825  -0.56277
 Alpha  occ. eigenvalues --   -0.49806  -0.49314  -0.47234  -0.45074  -0.43140
 Alpha  occ. eigenvalues --   -0.39707  -0.38852  -0.38455  -0.33133  -0.32021
 Alpha  occ. eigenvalues --   -0.31553  -0.27878  -0.25449
 Alpha virt. eigenvalues --   -0.03545  -0.02834  -0.01187  -0.00465   0.01145
 Alpha virt. eigenvalues --    0.02103   0.03907   0.05234   0.05899   0.06109
 Alpha virt. eigenvalues --    0.07388   0.07952   0.08383   0.08924   0.11476
 Alpha virt. eigenvalues --    0.12156   0.12835   0.12854   0.13238   0.13596
 Alpha virt. eigenvalues --    0.14636   0.15178   0.15591   0.16664   0.16905
 Alpha virt. eigenvalues --    0.17718   0.19116   0.20311   0.20985   0.21332
 Alpha virt. eigenvalues --    0.22123   0.23084   0.23397   0.23905   0.25412
 Alpha virt. eigenvalues --    0.25451   0.28047   0.28418   0.29287   0.30344
 Alpha virt. eigenvalues --    0.32483   0.32737   0.34575   0.36020   0.36132
 Alpha virt. eigenvalues --    0.38693   0.52914   0.53576   0.60147   0.61672
 Alpha virt. eigenvalues --    0.62001   0.64564   0.64802   0.67059   0.68580
 Alpha virt. eigenvalues --    0.69548   0.69926   0.70325   0.72033   0.72736
 Alpha virt. eigenvalues --    0.77654   0.77997   0.78745   0.81529   0.86321
 Alpha virt. eigenvalues --    0.87074   0.89934   0.92260   0.93175   0.93967
 Alpha virt. eigenvalues --    0.94922   0.98474   0.99612   1.02098   1.06428
 Alpha virt. eigenvalues --    1.06900   1.07613   1.08240   1.13698   1.15913
 Alpha virt. eigenvalues --    1.18806   1.20817   1.22290   1.26521   1.27969
 Alpha virt. eigenvalues --    1.34534   1.36827   1.40318   1.41819   1.42120
 Alpha virt. eigenvalues --    1.43904   1.47938   1.52240   1.53653   1.61696
 Alpha virt. eigenvalues --    1.72937   1.79592   1.80489   1.84270   1.88068
 Alpha virt. eigenvalues --    1.93497   1.94080   1.98771   1.98834   2.08888
 Alpha virt. eigenvalues --    2.12066   2.13157   2.13742   2.20157   2.25895
 Alpha virt. eigenvalues --    2.27696   2.29123   2.37518   2.47511   2.54930
 Alpha virt. eigenvalues --    2.60757   2.62144   2.64141   2.72006   2.72607
 Alpha virt. eigenvalues --    2.77538   2.81489   2.99652   3.07384   3.36690
 Alpha virt. eigenvalues --    4.14224   4.21669   4.22113   4.24802   4.35402
 Alpha virt. eigenvalues --    4.36132   4.43243   4.72301
          Condensed to atoms (all electrons):
               1          2          3          4          5          6
     1  C    7.792632  -0.612519   0.486610   0.137183  -1.095633  -0.239873
     2  C   -0.612519   8.837994  -0.797315  -2.152735   0.137116   0.231653
     3  C    0.486610  -0.797315   7.657354  -0.797038   0.486537  -1.222111
     4  C    0.137183  -2.152735  -0.797038   8.837682  -0.612432   0.231535
     5  C   -1.095633   0.137116   0.486537  -0.612432   7.792557  -0.239742
     6  C   -0.239873   0.231653  -1.222111   0.231535  -0.239742   6.836453
     7  H    0.250064  -0.029662  -0.018905  -0.013806   0.044280   0.062851
     8  H   -0.067442   0.321526   0.002999   0.045091  -0.020569   0.013386
     9  H   -0.020569   0.045091   0.002997   0.321529  -0.067443   0.013387
    10  H    0.044281  -0.013806  -0.018903  -0.029664   0.250071   0.062843
    11  O    0.021998  -0.361271   0.792471  -0.361264   0.021993  -0.077635
    12  H   -0.019113  -0.012493   0.053608  -0.012501  -0.019115   0.003936
    13  Cl  -0.117853   0.089118  -0.047391   0.089118  -0.117852  -0.005256
               7          8          9         10         11         12
     1  C    0.250064  -0.067442  -0.020569   0.044281   0.021998  -0.019113
     2  C   -0.029662   0.321526   0.045091  -0.013806  -0.361271  -0.012493
     3  C   -0.018905   0.002999   0.002997  -0.018903   0.792471   0.053608
     4  C   -0.013806   0.045091   0.321529  -0.029664  -0.361264  -0.012501
     5  C    0.044280  -0.020569  -0.067443   0.250071   0.021993  -0.019115
     6  C    0.062851   0.013386   0.013387   0.062843  -0.077635   0.003936
     7  H    0.500175  -0.004837   0.000012  -0.000161  -0.000576   0.000001
     8  H   -0.004837   0.512198  -0.000156   0.000012  -0.003654   0.000359
     9  H    0.000012  -0.000156   0.512199  -0.004837  -0.003654   0.000359
    10  H   -0.000161   0.000012  -0.004837   0.500174  -0.000576   0.000001
    11  O   -0.000576  -0.003654  -0.003654  -0.000576   8.495195   0.182074
    12  H    0.000001   0.000359   0.000359   0.000001   0.182074   0.329545
    13  Cl   0.003105   0.001042   0.001042   0.003105  -0.000024   0.000043
              13
     1  C   -0.117853
     2  C    0.089118
     3  C   -0.047391
     4  C    0.089118
     5  C   -0.117852
     6  C   -0.005256
     7  H    0.003105
     8  H    0.001042
     9  H    0.001042
    10  H    0.003105
    11  O   -0.000024
    12  H    0.000043
    13  Cl  16.967751
 Mulliken charges:
               1
     1  C   -0.559766
     2  C    0.317302
     3  C   -0.580914
     4  C    0.317300
     5  C   -0.559770
     6  C    0.328572
     7  H    0.207458
     8  H    0.200044
     9  H    0.200043
    10  H    0.207459
    11  O   -0.705076
    12  H    0.493295
    13  Cl   0.134053
 Sum of Mulliken charges =   0.00000
 Mulliken charges with hydrogens summed into heavy atoms:
               1
     1  C   -0.352307
     2  C    0.517346
     3  C   -0.580914
     4  C    0.517343
     5  C   -0.352311
     6  C    0.328572
    11  O   -0.211782
    13  Cl   0.134053
 Electronic spatial extent (au):  <R**2>=           1358.8855
 Charge=              0.0000 electrons
 Dipole moment (field-independent basis, Debye):
    X=              1.5713    Y=             -0.0011    Z=             -1.5569  Tot=              2.2120
 Quadrupole moment (field-independent basis, Debye-Ang):
   XX=            -56.8619   YY=            -47.6088   ZZ=            -55.1666
   XY=              0.7826   XZ=             -6.4549   YZ=             -0.7834
 Traceless Quadrupole moment (field-independent basis, Debye-Ang):
   XX=             -3.6495   YY=              5.6036   ZZ=             -1.9541
   XY=              0.7826   XZ=             -6.4549   YZ=             -0.7834
 Octapole moment (field-independent basis, Debye-Ang**2):
  XXX=             13.1363  YYY=            -71.4472  ZZZ=              0.3685  XYY=              2.6312
  XXY=            -28.4608  XXZ=            -24.2543  XZZ=              6.2875  YZZ=            -27.5984
  YYZ=              0.4780  XYZ=             -3.2252
 Hexadecapole moment (field-independent basis, Debye-Ang**3):
 XXXX=          -1268.3416 YYYY=           -356.0792 ZZZZ=            -66.9217 XXXY=              6.5452
 XXXZ=            -86.9725 YYYX=              3.5926 YYYZ=              1.1556 ZZZX=              2.0689
 ZZZY=              0.2788 XXYY=           -279.0780 XXZZ=           -213.2235 YYZZ=            -85.0783
 XXYZ=            -12.0952 YYXZ=              0.8678 ZZXY=              3.1520
 N-N= 3.888615264015D+02 E-N=-2.584382454362D+03  KE= 7.625214977892D+02
 Evaluate density.
 Using the total density.
 Monte-Carlo method of calculating molar volume:
 based on  0.001 e/bohr**3 density envelope.
 Number of points per bohr**3 =   20 CutOff= 1.00D-04
 Using the SCF density.
 There are       382 points.  Will hold       382 in memory.
 LenV=  4026439178 MDV=  4026531840.
 Box volume = 7022.433 fraction occupied=0.118
 Integrated density= 5.9403184968396587D+01 error=-6.5968150316034126D+00
 Molar volume =  827.250 bohr**3/mol ( 73.823 cm**3/mol)
 Recommended a0 for SCRF calculation =  3.89 angstrom (  7.35 bohr)
 Calling FoFJK, ICntrl=      2127 FMM=F ISym2X=0 I1Cent= 0 IOpClX= 0 NMat=1 NMatS=1 NMatT=0.
 -------------------------------------------------------------------
 Center     Atomic                   Forces (Hartrees/Bohr)
 Number     Number              X              Y              Z
 -------------------------------------------------------------------
      1        6           0.000696054    0.001893746   -0.000257209
      2        6          -0.000564231    0.003390987    0.000757320
      3        6           0.012064227   -0.000001737   -0.003738790
      4        6          -0.000560757   -0.003390556    0.000760292
      5        6           0.000693214   -0.001897952   -0.000254109
      6        6          -0.020529072    0.000003979    0.000398818
      7        1          -0.000568166   -0.001119431    0.000005412
      8        1           0.000531735   -0.001226568   -0.000167601
      9        1           0.000531204    0.001226382   -0.000168971
     10        1          -0.000567942    0.001120595    0.000004052
     11        8          -0.008064641   -0.000001421   -0.002588398
     12        1          -0.007125443    0.000003915    0.005463502
     13       17           0.023463816   -0.000001939   -0.000214317
 -------------------------------------------------------------------
 Cartesian Forces:  Max     0.023463816 RMS     0.005826399

 GradGradGradGradGradGradGradGradGradGradGradGradGradGradGradGradGradGrad
 Berny optimization.
 FormGI is forming the generalized inverse of G from B-inverse, IUseBI=4.
 Internal  Forces:  Max     0.023464795 RMS     0.004012966
 Search for a local minimum.
 Step number   1 out of a maximum of   68
 All quantities printed in internal units (Hartrees-Bohrs-Radians)
 Mixed Optimization -- RFO/linear search
 Second derivative matrix not updated -- first step.
 ITU=  0
     Eigenvalues ---    0.01570   0.02021   0.02103   0.02103   0.02106
     Eigenvalues ---    0.02115   0.02130   0.02137   0.02155   0.02168
     Eigenvalues ---    0.15998   0.15999   0.16000   0.16000   0.16000
     Eigenvalues ---    0.22000   0.22993   0.23970   0.23994   0.24950
     Eigenvalues ---    0.25000   0.35537   0.35537   0.35637   0.35638
     Eigenvalues ---    0.41745   0.42206   0.44127   0.45755   0.45828
     Eigenvalues ---    0.46268   0.46514   0.51810
 RFO step:  Lambda=-3.36910565D-03 EMin= 1.56986472D-02
 Linear search not attempted -- first point.
 Iteration  1 RMS(Cart)=  0.02127980 RMS(Int)=  0.00021252
 Iteration  2 RMS(Cart)=  0.00017338 RMS(Int)=  0.00000713
 Iteration  3 RMS(Cart)=  0.00000006 RMS(Int)=  0.00000713
 Variable       Old X    -DE/DX   Delta X   Delta X   Delta X     New X
                                 (Linear)    (Quad)   (Total)
    R1        2.64409  -0.00160   0.00000  -0.00346  -0.00346   2.64063
    R2        2.63423  -0.00167   0.00000  -0.00349  -0.00350   2.63074
    R3        2.04652   0.00125   0.00000   0.00348   0.00348   2.05001
    R4        2.64304  -0.00237   0.00000  -0.00519  -0.00519   2.63785
    R5        2.04811   0.00132   0.00000   0.00369   0.00369   2.05180
    R6        2.64305  -0.00237   0.00000  -0.00520  -0.00519   2.63786
    R7        2.66303  -0.01508   0.00000  -0.03392  -0.03392   2.62911
    R8        2.64408  -0.00159   0.00000  -0.00346  -0.00346   2.64063
    R9        2.04812   0.00132   0.00000   0.00369   0.00369   2.05180
   R10        2.63424  -0.00167   0.00000  -0.00350  -0.00350   2.63074
   R11        2.04652   0.00125   0.00000   0.00348   0.00348   2.05001
   R12        3.45600  -0.02346   0.00000  -0.09653  -0.09653   3.35947
   R13        1.84781  -0.00790   0.00000  -0.01515  -0.01515   1.83267
    A1        2.07348  -0.00058   0.00000  -0.00231  -0.00231   2.07117
    A2        2.10956   0.00021   0.00000   0.00064   0.00064   2.11019
    A3        2.10014   0.00037   0.00000   0.00167   0.00167   2.10181
    A4        2.09228  -0.00006   0.00000  -0.00026  -0.00027   2.09201
    A5        2.10893  -0.00015   0.00000  -0.00093  -0.00093   2.10800
    A6        2.08189   0.00021   0.00000   0.00126   0.00126   2.08315
    A7        2.10494   0.00061   0.00000   0.00204   0.00202   2.10696
    A8        2.08825  -0.00031   0.00000  -0.00139  -0.00142   2.08683
    A9        2.08825  -0.00031   0.00000  -0.00139  -0.00142   2.08683
   A10        2.09228  -0.00006   0.00000  -0.00027  -0.00027   2.09201
   A11        2.08188   0.00021   0.00000   0.00127   0.00126   2.08314
   A12        2.10894  -0.00015   0.00000  -0.00093  -0.00094   2.10800
   A13        2.07348  -0.00058   0.00000  -0.00231  -0.00231   2.07117
   A14        2.10957   0.00020   0.00000   0.00063   0.00063   2.11020
   A15        2.10014   0.00038   0.00000   0.00167   0.00167   2.10181
   A16        2.12984   0.00068   0.00000   0.00306   0.00305   2.13290
   A17        2.07667  -0.00034   0.00000  -0.00153  -0.00153   2.07514
   A18        2.07666  -0.00034   0.00000  -0.00152  -0.00152   2.07514
   A19        1.95758  -0.00789   0.00000  -0.04828  -0.04828   1.90930
    D1       -0.00237  -0.00012   0.00000  -0.00499  -0.00498  -0.00735
    D2        3.12499   0.00003   0.00000   0.00097   0.00097   3.12596
    D3       -3.14032  -0.00008   0.00000  -0.00320  -0.00320   3.13966
    D4       -0.01296   0.00007   0.00000   0.00276   0.00275  -0.01021
    D5       -0.00631   0.00006   0.00000   0.00231   0.00231  -0.00399
    D6        3.14007   0.00003   0.00000   0.00141   0.00141   3.14148
    D7        3.13167   0.00002   0.00000   0.00053   0.00054   3.13220
    D8       -0.00514  -0.00001   0.00000  -0.00037  -0.00037  -0.00551
    D9        0.01096   0.00019   0.00000   0.00780   0.00781   0.01877
   D10        3.08904  -0.00014   0.00000  -0.00588  -0.00588   3.08316
   D11       -3.11662   0.00005   0.00000   0.00195   0.00196  -3.11466
   D12       -0.03854  -0.00028   0.00000  -0.01172  -0.01173  -0.05027
   D13       -0.01097  -0.00019   0.00000  -0.00779  -0.00780  -0.01877
   D14        3.11662  -0.00005   0.00000  -0.00196  -0.00196   3.11466
   D15       -3.08905   0.00014   0.00000   0.00588   0.00588  -3.08316
   D16        0.03855   0.00028   0.00000   0.01172   0.01172   0.05027
   D17        1.60227   0.00015   0.00000   0.00671   0.00670   1.60897
   D18       -1.60223  -0.00015   0.00000  -0.00670  -0.00669  -1.60892
   D19        0.00239   0.00012   0.00000   0.00497   0.00496   0.00735
   D20        3.14033   0.00008   0.00000   0.00319   0.00319  -3.13966
   D21       -3.12498  -0.00003   0.00000  -0.00097  -0.00097  -3.12596
   D22        0.01296  -0.00007   0.00000  -0.00275  -0.00275   0.01021
   D23        0.00630  -0.00006   0.00000  -0.00230  -0.00230   0.00400
   D24       -3.14008  -0.00003   0.00000  -0.00140  -0.00140  -3.14148
   D25       -3.13167  -0.00002   0.00000  -0.00053  -0.00053  -3.13220
   D26        0.00514   0.00001   0.00000   0.00037   0.00037   0.00551
         Item               Value     Threshold  Converged?
 Maximum Force            0.023465     0.000450     NO 
 RMS     Force            0.004013     0.000300     NO 
 Maximum Displacement     0.112192     0.001800     NO 
 RMS     Displacement     0.021287     0.001200     NO 
 Predicted change in Energy=-1.707948D-03
 GradGradGradGradGradGradGradGradGradGradGradGradGradGradGradGradGradGrad

                          Input orientation:                          
 ---------------------------------------------------------------------
 Center     Atomic      Atomic             Coordinates (Angstroms)
 Number     Number       Type             X           Y           Z
 ---------------------------------------------------------------------
      1          6           0       -0.263846   -0.718530   -0.003435
      2          6           0        1.133451   -0.713066   -0.015827
      3          6           0        1.823640    0.500122   -0.033966
      4          6           0        1.133590    1.713413   -0.017392
      5          6           0       -0.263703    1.719057   -0.005006
      6          6           0       -0.936492    0.500303   -0.000615
      7          1           0       -0.817295   -1.651466    0.008917
      8          1           0        1.692846   -1.643561   -0.003804
      9          1           0        1.693097    2.643856   -0.006567
     10          1           0       -0.817047    2.652069    0.006144
     11          8           0        3.213681    0.500079    0.024435
     12          1           0        3.573846    0.499499   -0.876012
     13         17           0       -2.714180    0.500419    0.014953
 ---------------------------------------------------------------------
                    Distance matrix (angstroms):
                    1          2          3          4          5
     1  C    0.000000
     2  C    1.397362   0.000000
     3  C    2.417363   1.395892   0.000000
     4  C    2.804883   2.426479   1.395894   0.000000
     5  C    2.437588   2.804884   2.417363   1.397359   0.000000
     6  C    1.392127   2.399408   2.760334   2.399408   1.392129
     7  H    1.084817   2.164859   3.406715   3.889608   3.415710
     8  H    2.164330   1.085767   2.147881   3.403267   3.890409
     9  H    3.890408   3.403265   2.147881   1.085767   2.164330
    10  H    3.415709   3.889609   3.406717   2.164859   1.084817
    11  O    3.684966   2.408464   1.391267   2.408465   3.684966
    12  H    4.119813   2.857579   1.942231   2.857562   4.119800
    13  Cl   2.736844   4.034570   4.538084   4.034567   2.736843
                    6          7          8          9         10
     6  C    0.000000
     7  H    2.155089   0.000000
     8  H    3.392578   2.510186   0.000000
     9  H    3.392579   4.975148   4.287418   0.000000
    10  H    2.155089   4.303536   4.975149   2.510190   0.000000
    11  O    4.150249   4.569262   2.628484   2.628482   4.569263
    12  H    4.594504   4.969091   2.981881   2.981848   4.969074
    13  Cl   1.777756   2.868591   4.900906   4.900905   2.868586
                   11         12         13
    11  O    0.000000
    12  H    0.969805   0.000000
    13  Cl   5.927868   6.350833   0.000000
 Symmetry turned off by external request.
 Stoichiometry    C6H5ClO
 Framework group  C1[X(C6H5ClO)]
 Deg. of freedom    33
 Full point group                 C1      NOp   1
 Rotational constants (GHZ):           5.5942135           0.9604378           0.8217497
 Standard basis: 6-31+G(d) (6D, 7F)
   166 basis functions,   300 primitive gaussians,   166 cartesian basis functions
    33 alpha electrons       33 beta electrons
       nuclear repulsion energy       392.1106089574 Hartrees.
 NAtoms=   13 NActive=   13 NUniq=   13 SFac= 1.00D+00 NAtFMM=   60 NAOKFM=F Big=F
 Integral buffers will be    131072 words long.
 Raffenetti 2 integral format.
 Two-electron integral symmetry is turned off.
 Nuclear repulsion after empirical dispersion term =      392.1019097352 Hartrees.
 One-electron integrals computed using PRISM.
 NBasis=   166 RedAO= T EigKep=  4.24D-06  NBF=   166
 NBsUse=   166 1.00D-06 EigRej= -1.00D+00 NBFU=   166
 Initial guess from the checkpoint file:  "MOLECULE_30.chk"
 B after Tr=     0.024003   -0.000003   -0.000601
         Rot=    1.000000    0.000000    0.000691   -0.000001 Ang=   0.08 deg.
 ExpMin= 4.38D-02 ExpMax= 2.52D+04 ExpMxC= 3.78D+03 IAcc=3 IRadAn=         5 AccDes= 0.00D+00
 Harris functional with IExCor=  402 and IRadAn=       5 diagonalized for initial guess.
 HarFok:  IExCor=  402 AccDes= 0.00D+00 IRadAn=         5 IDoV= 1 UseB2=F ITyADJ=14
 ICtDFT=  3500011 ScaDFX=  1.000000  1.000000  1.000000  1.000000
 FoFCou: FMM=F IPFlag=           0 FMFlag=      100000 FMFlg1=           0
         NFxFlg=           0 DoJE=T BraDBF=F KetDBF=T FulRan=T
         wScrn=  0.000000 ICntrl=       500 IOpCl=  0 I1Cent=   200000004 NGrid=           0
         NMat0=    1 NMatS0=      1 NMatT0=    0 NMatD0=    1 NMtDS0=    0 NMtDT0=    0
 Symmetry not used in FoFCou.
 Requested convergence on RMS density matrix=1.00D-08 within 128 cycles.
 Requested convergence on MAX density matrix=1.00D-06.
 Requested convergence on             energy=1.00D-06.
 No special actions if energy rises.
 SCF Done:  E(RB3LYP) =  -767.078348320     A.U. after   11 cycles
            NFock= 11  Conv=0.99D-08     -V/T= 2.0058
 Calling FoFJK, ICntrl=      2127 FMM=F ISym2X=0 I1Cent= 0 IOpClX= 0 NMat=1 NMatS=1 NMatT=0.
 -------------------------------------------------------------------
 Center     Atomic                   Forces (Hartrees/Bohr)
 Number     Number              X              Y              Z
 -------------------------------------------------------------------
      1        6           0.003019526   -0.000344415   -0.000290069
      2        6          -0.001433308   -0.000377165    0.000061051
      3        6           0.002738425    0.000001512    0.001375195
      4        6          -0.001431577    0.000376761    0.000060564
      5        6           0.003017928    0.000342338   -0.000290765
      6        6          -0.012059835    0.000002085    0.000170632
      7        1          -0.000120555    0.000069884    0.000019544
      8        1           0.000194445    0.000010784    0.000051958
      9        1           0.000194130   -0.000010615    0.000051975
     10        1          -0.000120344   -0.000069683    0.000019648
     11        8          -0.000459739   -0.000001210   -0.001439515
     12        1           0.001098392    0.000000204    0.000231448
     13       17           0.005362514   -0.000000481   -0.000021665
 -------------------------------------------------------------------
 Cartesian Forces:  Max     0.012059835 RMS     0.002322164

 GradGradGradGradGradGradGradGradGradGradGradGradGradGradGradGradGradGrad
 Berny optimization.
 Using GEDIIS/GDIIS optimizer.
 FormGI is forming the generalized inverse of G from B-inverse, IUseBI=4.
 Internal  Forces:  Max     0.005362503 RMS     0.001109756
 Search for a local minimum.
 Step number   2 out of a maximum of   68
 All quantities printed in internal units (Hartrees-Bohrs-Radians)
 Mixed Optimization -- RFO/linear search
 Update second derivatives using D2CorX and points    1    2
 DE= -1.90D-03 DEPred=-1.71D-03 R= 1.11D+00
 TightC=F SS=  1.41D+00  RLast= 1.18D-01 DXNew= 5.0454D-01 3.5361D-01
 Trust test= 1.11D+00 RLast= 1.18D-01 DXMaxT set to 3.54D-01
 ITU=  1  0
 Use linear search instead of GDIIS.
     Eigenvalues ---    0.01570   0.02038   0.02101   0.02103   0.02107
     Eigenvalues ---    0.02115   0.02130   0.02137   0.02155   0.02168
     Eigenvalues ---    0.15968   0.15999   0.16000   0.16000   0.16977
     Eigenvalues ---    0.17339   0.21999   0.23041   0.24927   0.25000
     Eigenvalues ---    0.26250   0.35537   0.35539   0.35637   0.35651
     Eigenvalues ---    0.41743   0.42102   0.44571   0.45783   0.45828
     Eigenvalues ---    0.46514   0.48720   0.52760
 RFO step:  Lambda=-3.17237645D-04 EMin= 1.56986471D-02
 Quartic linear search produced a step of  0.09871.
 Iteration  1 RMS(Cart)=  0.00516077 RMS(Int)=  0.00002619
 Iteration  2 RMS(Cart)=  0.00002786 RMS(Int)=  0.00001012
 Iteration  3 RMS(Cart)=  0.00000000 RMS(Int)=  0.00001012
 Variable       Old X    -DE/DX   Delta X   Delta X   Delta X     New X
                                 (Linear)    (Quad)   (Total)
    R1        2.64063   0.00045  -0.00034   0.00110   0.00076   2.64139
    R2        2.63074   0.00216  -0.00035   0.00524   0.00490   2.63563
    R3        2.05001   0.00000   0.00034  -0.00003   0.00031   2.05032
    R4        2.63785   0.00086  -0.00051   0.00197   0.00145   2.63931
    R5        2.05180   0.00009   0.00036   0.00024   0.00061   2.05241
    R6        2.63786   0.00086  -0.00051   0.00196   0.00145   2.63931
    R7        2.62911   0.00059  -0.00335   0.00178  -0.00157   2.62755
    R8        2.64063   0.00045  -0.00034   0.00111   0.00076   2.64139
    R9        2.05180   0.00009   0.00036   0.00024   0.00061   2.05241
   R10        2.63074   0.00216  -0.00035   0.00524   0.00489   2.63564
   R11        2.05001   0.00000   0.00034  -0.00003   0.00031   2.05032
   R12        3.35947  -0.00536  -0.00953  -0.02315  -0.03268   3.32679
   R13        1.83267   0.00019  -0.00150   0.00054  -0.00096   1.83171
    A1        2.07117   0.00145  -0.00023   0.00703   0.00681   2.07798
    A2        2.11019  -0.00058   0.00006  -0.00253  -0.00247   2.10772
    A3        2.10181  -0.00087   0.00017  -0.00451  -0.00435   2.09747
    A4        2.09201   0.00087  -0.00003   0.00354   0.00352   2.09553
    A5        2.10800  -0.00026  -0.00009  -0.00053  -0.00063   2.10737
    A6        2.08315  -0.00061   0.00012  -0.00300  -0.00287   2.08027
    A7        2.10696  -0.00158   0.00020  -0.00765  -0.00747   2.09949
    A8        2.08683   0.00080  -0.00014   0.00427   0.00410   2.09093
    A9        2.08683   0.00080  -0.00014   0.00427   0.00410   2.09094
   A10        2.09201   0.00087  -0.00003   0.00354   0.00352   2.09553
   A11        2.08314  -0.00061   0.00012  -0.00299  -0.00287   2.08027
   A12        2.10800  -0.00026  -0.00009  -0.00053  -0.00063   2.10737
   A13        2.07117   0.00145  -0.00023   0.00703   0.00681   2.07798
   A14        2.11020  -0.00058   0.00006  -0.00253  -0.00247   2.10772
   A15        2.10181  -0.00087   0.00017  -0.00451  -0.00435   2.09746
   A16        2.13290  -0.00307   0.00030  -0.01351  -0.01320   2.11969
   A17        2.07514   0.00154  -0.00015   0.00676   0.00660   2.08174
   A18        2.07514   0.00154  -0.00015   0.00676   0.00660   2.08174
   A19        1.90930   0.00203  -0.00477   0.01484   0.01008   1.91938
    D1       -0.00735  -0.00004  -0.00049  -0.00124  -0.00174  -0.00910
    D2        3.12596   0.00002   0.00010   0.00107   0.00116   3.12712
    D3        3.13966  -0.00001  -0.00032   0.00011  -0.00021   3.13945
    D4       -0.01021   0.00005   0.00027   0.00243   0.00270  -0.00751
    D5       -0.00399   0.00004   0.00023   0.00194   0.00216  -0.00184
    D6        3.14148   0.00004   0.00014   0.00161   0.00175  -3.13996
    D7        3.13220   0.00001   0.00005   0.00060   0.00064   3.13284
    D8       -0.00551   0.00000  -0.00004   0.00027   0.00023  -0.00528
    D9        0.01877   0.00002   0.00077   0.00054   0.00131   0.02008
   D10        3.08316   0.00027  -0.00058   0.01408   0.01349   3.09665
   D11       -3.11466  -0.00004   0.00019  -0.00175  -0.00156  -3.11622
   D12       -0.05027   0.00020  -0.00116   0.01178   0.01062  -0.03965
   D13       -0.01877  -0.00002  -0.00077  -0.00054  -0.00131  -0.02008
   D14        3.11466   0.00004  -0.00019   0.00175   0.00156   3.11622
   D15       -3.08316  -0.00027   0.00058  -0.01408  -0.01349  -3.09665
   D16        0.05027  -0.00020   0.00116  -0.01178  -0.01062   0.03965
   D17        1.60897  -0.00007   0.00066  -0.00642  -0.00579   1.60318
   D18       -1.60892   0.00007  -0.00066   0.00643   0.00581  -1.60312
   D19        0.00735   0.00004   0.00049   0.00125   0.00175   0.00910
   D20       -3.13966   0.00001   0.00031  -0.00011   0.00021  -3.13945
   D21       -3.12596  -0.00002  -0.00010  -0.00107  -0.00116  -3.12712
   D22        0.01021  -0.00005  -0.00027  -0.00243  -0.00270   0.00751
   D23        0.00400  -0.00004  -0.00023  -0.00194  -0.00216   0.00183
   D24       -3.14148  -0.00004  -0.00014  -0.00161  -0.00175   3.13996
   D25       -3.13220  -0.00001  -0.00005  -0.00059  -0.00064  -3.13284
   D26        0.00551   0.00000   0.00004  -0.00027  -0.00023   0.00528
         Item               Value     Threshold  Converged?
 Maximum Force            0.005363     0.000450     NO 
 RMS     Force            0.001110     0.000300     NO 
 Maximum Displacement     0.020392     0.001800     NO 
 RMS     Displacement     0.005155     0.001200     NO 
 Predicted change in Energy=-1.786428D-04
 GradGradGradGradGradGradGradGradGradGradGradGradGradGradGradGradGradGrad

                          Input orientation:                          
 ---------------------------------------------------------------------
 Center     Atomic      Atomic             Coordinates (Angstroms)
 Number     Number       Type             X           Y           Z
 ---------------------------------------------------------------------
      1          6           0       -0.265335   -0.716322   -0.003520
      2          6           0        1.132395   -0.711142   -0.011833
      3          6           0        1.827525    0.500124   -0.028830
      4          6           0        1.132536    1.711494   -0.013394
      5          6           0       -0.265193    1.716848   -0.005090
      6          6           0       -0.947283    0.500304   -0.001345
      7          1           0       -0.816783   -1.650648    0.007686
      8          1           0        1.691132   -1.642413   -0.000208
      9          1           0        1.691383    2.642713   -0.002968
     10          1           0       -0.816533    2.651251    0.004911
     11          8           0        3.217201    0.500072    0.017172
     12          1           0        3.578239    0.499499   -0.882379
     13         17           0       -2.707696    0.500416    0.011625
 ---------------------------------------------------------------------
                    Distance matrix (angstroms):
                    1          2          3          4          5
     1  C    0.000000
     2  C    1.397765   0.000000
     3  C    2.420836   1.396661   0.000000
     4  C    2.801506   2.422637   1.396662   0.000000
     5  C    2.433171   2.801506   2.420836   1.397764   0.000000
     6  C    1.394718   2.406819   2.774944   2.406819   1.394719
     7  H    1.084981   2.163873   3.408741   3.886423   3.412395
     8  H    2.164583   1.086088   2.147065   3.400132   3.887398
     9  H    3.887398   3.400131   2.147066   1.086088   2.164583
    10  H    3.412395   3.886424   3.408742   2.163873   1.084981
    11  O    3.688916   2.411285   1.390437   2.411287   3.688916
    12  H    4.125976   2.864551   1.947703   2.864529   4.125959
    13  Cl   2.728701   4.026751   4.535401   4.026751   2.728701
                    6          7          8          9         10
     6  C    0.000000
     7  H    2.154926   0.000000
     8  H    3.398893   2.507941   0.000000
     9  H    3.398894   4.972319   4.285127   0.000000
    10  H    2.154926   4.301899   4.972319   2.507942   0.000000
    11  O    4.164525   4.571511   2.630481   2.630482   4.571512
    12  H    4.610485   4.973084   2.987839   2.987801   4.973061
    13  Cl   1.760460   2.864025   4.893010   4.893010   2.864024
                   11         12         13
    11  O    0.000000
    12  H    0.969299   0.000000
    13  Cl   5.924899   6.349191   0.000000
 Symmetry turned off by external request.
 Stoichiometry    C6H5ClO
 Framework group  C1[X(C6H5ClO)]
 Deg. of freedom    33
 Full point group                 C1      NOp   1
 Rotational constants (GHZ):           5.6103471           0.9612845           0.8227120
 Standard basis: 6-31+G(d) (6D, 7F)
   166 basis functions,   300 primitive gaussians,   166 cartesian basis functions
    33 alpha electrons       33 beta electrons
       nuclear repulsion energy       392.4051050899 Hartrees.
 NAtoms=   13 NActive=   13 NUniq=   13 SFac= 1.00D+00 NAtFMM=   60 NAOKFM=F Big=F
 Integral buffers will be    131072 words long.
 Raffenetti 2 integral format.
 Two-electron integral symmetry is turned off.
 Nuclear repulsion after empirical dispersion term =      392.3964130681 Hartrees.
 One-electron integrals computed using PRISM.
 NBasis=   166 RedAO= T EigKep=  4.22D-06  NBF=   166
 NBsUse=   166 1.00D-06 EigRej= -1.00D+00 NBFU=   166
 Initial guess from the checkpoint file:  "MOLECULE_30.chk"
 B after Tr=     0.001952   -0.000002   -0.001235
         Rot=    1.000000    0.000000    0.000138    0.000000 Ang=   0.02 deg.
 ExpMin= 4.38D-02 ExpMax= 2.52D+04 ExpMxC= 3.78D+03 IAcc=3 IRadAn=         5 AccDes= 0.00D+00
 Harris functional with IExCor=  402 and IRadAn=       5 diagonalized for initial guess.
 HarFok:  IExCor=  402 AccDes= 0.00D+00 IRadAn=         5 IDoV= 1 UseB2=F ITyADJ=14
 ICtDFT=  3500011 ScaDFX=  1.000000  1.000000  1.000000  1.000000
 FoFCou: FMM=F IPFlag=           0 FMFlag=      100000 FMFlg1=           0
         NFxFlg=           0 DoJE=T BraDBF=F KetDBF=T FulRan=T
         wScrn=  0.000000 ICntrl=       500 IOpCl=  0 I1Cent=   200000004 NGrid=           0
         NMat0=    1 NMatS0=      1 NMatT0=    0 NMatD0=    1 NMtDS0=    0 NMtDT0=    0
 Symmetry not used in FoFCou.
 Requested convergence on RMS density matrix=1.00D-08 within 128 cycles.
 Requested convergence on MAX density matrix=1.00D-06.
 Requested convergence on             energy=1.00D-06.
 No special actions if energy rises.
 SCF Done:  E(RB3LYP) =  -767.078540264     A.U. after   11 cycles
            NFock= 11  Conv=0.32D-08     -V/T= 2.0058
 Calling FoFJK, ICntrl=      2127 FMM=F ISym2X=0 I1Cent= 0 IOpClX= 0 NMat=1 NMatS=1 NMatT=0.
 -------------------------------------------------------------------
 Center     Atomic                   Forces (Hartrees/Bohr)
 Number     Number              X              Y              Z
 -------------------------------------------------------------------
      1        6           0.002090471    0.000093734    0.000115472
      2        6          -0.000778451   -0.000445652    0.000000503
      3        6           0.000497122    0.000000236   -0.000303881
      4        6          -0.000777861    0.000445340   -0.000000359
      5        6           0.002089828   -0.000094130    0.000115690
      6        6          -0.002343951    0.000000493   -0.000028214
      7        1           0.000017689   -0.000085349   -0.000000639
      8        1          -0.000103437   -0.000011792   -0.000003909
      9        1          -0.000103531    0.000011875   -0.000003932
     10        1           0.000017809    0.000085333   -0.000000782
     11        8          -0.000391978   -0.000000007    0.000513324
     12        1           0.000272121   -0.000000074   -0.000381668
     13       17          -0.000485832   -0.000000006   -0.000021605
 -------------------------------------------------------------------
 Cartesian Forces:  Max     0.002343951 RMS     0.000662831

 GradGradGradGradGradGradGradGradGradGradGradGradGradGradGradGradGradGrad
 Berny optimization.
 Using GEDIIS/GDIIS optimizer.
 FormGI is forming the generalized inverse of G from B-inverse, IUseBI=4.
 Internal  Forces:  Max     0.001278878 RMS     0.000356111
 Search for a local minimum.
 Step number   3 out of a maximum of   68
 All quantities printed in internal units (Hartrees-Bohrs-Radians)
 Mixed Optimization -- En-DIIS/RFO-DIIS
 Update second derivatives using D2CorX and points    1    2    3
 DE= -1.92D-04 DEPred=-1.79D-04 R= 1.07D+00
 TightC=F SS=  1.41D+00  RLast= 4.97D-02 DXNew= 5.9470D-01 1.4904D-01
 Trust test= 1.07D+00 RLast= 4.97D-02 DXMaxT set to 3.54D-01
 ITU=  1  1  0
 Use linear search instead of GDIIS.
     Eigenvalues ---    0.01570   0.02052   0.02103   0.02103   0.02115
     Eigenvalues ---    0.02127   0.02137   0.02147   0.02161   0.02175
     Eigenvalues ---    0.15466   0.16000   0.16000   0.16000   0.16197
     Eigenvalues ---    0.16994   0.21999   0.23469   0.24947   0.25000
     Eigenvalues ---    0.27097   0.35537   0.35549   0.35637   0.35651
     Eigenvalues ---    0.41713   0.41996   0.44378   0.45828   0.46437
     Eigenvalues ---    0.46512   0.48022   0.52713
 RFO step:  Lambda=-2.68014059D-05 EMin= 1.56986469D-02
 Quartic linear search produced a step of  0.08747.
 Iteration  1 RMS(Cart)=  0.00238745 RMS(Int)=  0.00000555
 Iteration  2 RMS(Cart)=  0.00000573 RMS(Int)=  0.00000206
 Iteration  3 RMS(Cart)=  0.00000000 RMS(Int)=  0.00000206
 Variable       Old X    -DE/DX   Delta X   Delta X   Delta X     New X
                                 (Linear)    (Quad)   (Total)
    R1        2.64139  -0.00069   0.00007  -0.00170  -0.00164   2.63976
    R2        2.63563   0.00097   0.00043   0.00199   0.00242   2.63806
    R3        2.05032   0.00006   0.00003   0.00025   0.00027   2.05059
    R4        2.63931   0.00021   0.00013   0.00029   0.00042   2.63972
    R5        2.05241  -0.00004   0.00005  -0.00008  -0.00003   2.05238
    R6        2.63931   0.00021   0.00013   0.00029   0.00042   2.63973
    R7        2.62755  -0.00012  -0.00014  -0.00086  -0.00099   2.62655
    R8        2.64139  -0.00069   0.00007  -0.00170  -0.00164   2.63976
    R9        2.05241  -0.00004   0.00005  -0.00008  -0.00003   2.05238
   R10        2.63564   0.00097   0.00043   0.00199   0.00242   2.63806
   R11        2.05032   0.00006   0.00003   0.00025   0.00027   2.05059
   R12        3.32679   0.00049  -0.00286   0.00161  -0.00125   3.32554
   R13        1.83171   0.00046  -0.00008   0.00068   0.00060   1.83231
    A1        2.07798   0.00066   0.00060   0.00283   0.00343   2.08141
    A2        2.10772  -0.00039  -0.00022  -0.00186  -0.00207   2.10565
    A3        2.09747  -0.00027  -0.00038  -0.00097  -0.00135   2.09612
    A4        2.09553   0.00007   0.00031  -0.00004   0.00027   2.09580
    A5        2.10737  -0.00013  -0.00005  -0.00070  -0.00075   2.10662
    A6        2.08027   0.00006  -0.00025   0.00072   0.00047   2.08074
    A7        2.09949  -0.00017  -0.00065  -0.00077  -0.00144   2.09805
    A8        2.09093   0.00008   0.00036   0.00017   0.00052   2.09146
    A9        2.09094   0.00008   0.00036   0.00017   0.00053   2.09146
   A10        2.09553   0.00007   0.00031  -0.00004   0.00027   2.09580
   A11        2.08027   0.00006  -0.00025   0.00073   0.00047   2.08074
   A12        2.10737  -0.00013  -0.00006  -0.00070  -0.00075   2.10662
   A13        2.07798   0.00066   0.00060   0.00283   0.00343   2.08141
   A14        2.10772  -0.00039  -0.00022  -0.00186  -0.00207   2.10565
   A15        2.09746  -0.00027  -0.00038  -0.00097  -0.00135   2.09611
   A16        2.11969  -0.00128  -0.00115  -0.00483  -0.00598   2.11372
   A17        2.08174   0.00064   0.00058   0.00241   0.00299   2.08473
   A18        2.08174   0.00064   0.00058   0.00241   0.00299   2.08473
   A19        1.91938   0.00020   0.00088   0.00006   0.00094   1.92032
    D1       -0.00910   0.00001  -0.00015   0.00061   0.00046  -0.00864
    D2        3.12712  -0.00002   0.00010  -0.00092  -0.00082   3.12630
    D3        3.13945   0.00000  -0.00002  -0.00015  -0.00017   3.13928
    D4       -0.00751  -0.00003   0.00024  -0.00169  -0.00145  -0.00896
    D5       -0.00184  -0.00003   0.00019  -0.00177  -0.00158  -0.00342
    D6       -3.13996  -0.00002   0.00015  -0.00128  -0.00113  -3.14109
    D7        3.13284  -0.00002   0.00006  -0.00102  -0.00096   3.13188
    D8       -0.00528  -0.00001   0.00002  -0.00053  -0.00051  -0.00579
    D9        0.02008   0.00001   0.00011   0.00051   0.00063   0.02071
   D10        3.09665  -0.00012   0.00118  -0.00706  -0.00588   3.09077
   D11       -3.11622   0.00003  -0.00014   0.00202   0.00189  -3.11433
   D12       -0.03965  -0.00009   0.00093  -0.00555  -0.00462  -0.04427
   D13       -0.02008  -0.00001  -0.00011  -0.00051  -0.00062  -0.02071
   D14        3.11622  -0.00003   0.00014  -0.00202  -0.00189   3.11433
   D15       -3.09665   0.00012  -0.00118   0.00706   0.00588  -3.09077
   D16        0.03965   0.00009  -0.00093   0.00555   0.00462   0.04427
   D17        1.60318   0.00007  -0.00051   0.00379   0.00329   1.60647
   D18       -1.60312  -0.00007   0.00051  -0.00377  -0.00327  -1.60638
   D19        0.00910  -0.00001   0.00015  -0.00061  -0.00046   0.00864
   D20       -3.13945   0.00000   0.00002   0.00015   0.00017  -3.13928
   D21       -3.12712   0.00002  -0.00010   0.00092   0.00082  -3.12630
   D22        0.00751   0.00003  -0.00024   0.00169   0.00145   0.00896
   D23        0.00183   0.00003  -0.00019   0.00177   0.00158   0.00342
   D24        3.13996   0.00002  -0.00015   0.00128   0.00113   3.14109
   D25       -3.13284   0.00002  -0.00006   0.00102   0.00096  -3.13188
   D26        0.00528   0.00001  -0.00002   0.00053   0.00051   0.00579
         Item               Value     Threshold  Converged?
 Maximum Force            0.001279     0.000450     NO 
 RMS     Force            0.000356     0.000300     NO 
 Maximum Displacement     0.007828     0.001800     NO 
 RMS     Displacement     0.002387     0.001200     NO 
 Predicted change in Energy=-1.461709D-05
 GradGradGradGradGradGradGradGradGradGradGradGradGradGradGradGradGradGrad

                          Input orientation:                          
 ---------------------------------------------------------------------
 Center     Atomic      Atomic             Coordinates (Angstroms)
 Number     Number       Type             X           Y           Z
 ---------------------------------------------------------------------
      1          6           0       -0.264749   -0.715395   -0.003267
      2          6           0        1.132103   -0.710836   -0.013670
      3          6           0        1.828178    0.500121   -0.032109
      4          6           0        1.132245    1.711184   -0.015232
      5          6           0       -0.264607    1.715920   -0.004836
      6          6           0       -0.950960    0.500305   -0.000988
      7          1           0       -0.814727   -1.650743    0.008909
      8          1           0        1.689748   -1.642734   -0.001371
      9          1           0        1.690000    2.643031   -0.004133
     10          1           0       -0.814474    2.651347    0.006135
     11          8           0        3.217155    0.500071    0.018857
     12          1           0        3.582381    0.499507   -0.879345
     13         17           0       -2.710706    0.500417    0.012878
 ---------------------------------------------------------------------
                    Distance matrix (angstroms):
                    1          2          3          4          5
     1  C    0.000000
     2  C    1.396899   0.000000
     3  C    2.420466   1.396882   0.000000
     4  C    2.800004   2.422021   1.396882   0.000000
     5  C    2.431316   2.800004   2.420467   1.396898   0.000000
     6  C    1.396000   2.409601   2.779313   2.409601   1.396001
     7  H    1.085126   2.161962   3.407762   3.885078   3.411340
     8  H    2.163336   1.086072   2.147542   3.399966   3.885882
     9  H    3.885882   3.399966   2.147543   1.086072   2.163336
    10  H    3.411340   3.885078   3.407763   2.161962   1.085126
    11  O    3.688022   2.411389   1.389912   2.411391   3.688023
    12  H    4.128427   2.866738   1.948086   2.866708   4.128406
    13  Cl   2.731514   4.029271   4.539107   4.029271   2.731514
                    6          7          8          9         10
     6  C    0.000000
     7  H    2.155380   0.000000
     8  H    3.400876   2.504509   0.000000
     9  H    3.400876   4.970947   4.285767   0.000000
    10  H    2.155380   4.302090   4.970948   2.504509   0.000000
    11  O    4.168163   4.569701   2.631538   2.631542   4.569703
    12  H    4.617650   4.974648   2.990334   2.990284   4.974618
    13  Cl   1.759801   2.867445   4.894620   4.894620   2.867445
                   11         12         13
    11  O    0.000000
    12  H    0.969617   0.000000
    13  Cl   5.927864   6.356022   0.000000
 Symmetry turned off by external request.
 Stoichiometry    C6H5ClO
 Framework group  C1[X(C6H5ClO)]
 Deg. of freedom    33
 Full point group                 C1      NOp   1
 Rotational constants (GHZ):           5.6147661           0.9600875           0.8219233
 Standard basis: 6-31+G(d) (6D, 7F)
   166 basis functions,   300 primitive gaussians,   166 cartesian basis functions
    33 alpha electrons       33 beta electrons
       nuclear repulsion energy       392.3110721718 Hartrees.
 NAtoms=   13 NActive=   13 NUniq=   13 SFac= 1.00D+00 NAtFMM=   60 NAOKFM=F Big=F
 Integral buffers will be    131072 words long.
 Raffenetti 2 integral format.
 Two-electron integral symmetry is turned off.
 Nuclear repulsion after empirical dispersion term =      392.3023820126 Hartrees.
 One-electron integrals computed using PRISM.
 NBasis=   166 RedAO= T EigKep=  4.20D-06  NBF=   166
 NBsUse=   166 1.00D-06 EigRej= -1.00D+00 NBFU=   166
 Initial guess from the checkpoint file:  "MOLECULE_30.chk"
 B after Tr=    -0.001731   -0.000001    0.000045
         Rot=    1.000000    0.000000   -0.000126    0.000000 Ang=   0.01 deg.
 Requested convergence on RMS density matrix=1.00D-08 within 128 cycles.
 Requested convergence on MAX density matrix=1.00D-06.
 Requested convergence on             energy=1.00D-06.
 No special actions if energy rises.
 SCF Done:  E(RB3LYP) =  -767.078555569     A.U. after   11 cycles
            NFock= 11  Conv=0.12D-08     -V/T= 2.0058
 Calling FoFJK, ICntrl=      2127 FMM=F ISym2X=0 I1Cent= 0 IOpClX= 0 NMat=1 NMatS=1 NMatT=0.
 -------------------------------------------------------------------
 Center     Atomic                   Forces (Hartrees/Bohr)
 Number     Number              X              Y              Z
 -------------------------------------------------------------------
      1        6           0.000244596    0.000140001   -0.000036851
      2        6          -0.000133625   -0.000085378   -0.000020796
      3        6          -0.000024055    0.000000414    0.000214583
      4        6          -0.000133523    0.000085181   -0.000021051
      5        6           0.000244399   -0.000140131   -0.000036779
      6        6           0.000049613    0.000000104    0.000021304
      7        1          -0.000023424   -0.000054589    0.000005517
      8        1          -0.000065166    0.000000383   -0.000007575
      9        1          -0.000065201   -0.000000340   -0.000007583
     10        1          -0.000023384    0.000054602    0.000005424
     11        8          -0.000026367   -0.000000423    0.000004234
     12        1           0.000153018    0.000000158   -0.000124076
     13       17          -0.000196879    0.000000017    0.000003650
 -------------------------------------------------------------------
 Cartesian Forces:  Max     0.000244596 RMS     0.000095565

 GradGradGradGradGradGradGradGradGradGradGradGradGradGradGradGradGradGrad
 Berny optimization.
 Using GEDIIS/GDIIS optimizer.
 FormGI is forming the generalized inverse of G from B-inverse, IUseBI=4.
 Internal  Forces:  Max     0.000196896 RMS     0.000063730
 Search for a local minimum.
 Step number   4 out of a maximum of   68
 All quantities printed in internal units (Hartrees-Bohrs-Radians)
 Mixed Optimization -- En-DIIS/RFO-DIIS
 Swapping is turned off.
 Update second derivatives using D2CorX and points    1    2    3    4
 DE= -1.53D-05 DEPred=-1.46D-05 R= 1.05D+00
 TightC=F SS=  1.41D+00  RLast= 1.65D-02 DXNew= 5.9470D-01 4.9501D-02
 Trust test= 1.05D+00 RLast= 1.65D-02 DXMaxT set to 3.54D-01
 ITU=  1  1  1  0
     Eigenvalues ---    0.01570   0.02082   0.02103   0.02104   0.02115
     Eigenvalues ---    0.02128   0.02137   0.02150   0.02167   0.02266
     Eigenvalues ---    0.14592   0.16000   0.16000   0.16005   0.16728
     Eigenvalues ---    0.17327   0.21999   0.23460   0.24745   0.24936
     Eigenvalues ---    0.25000   0.35537   0.35538   0.35637   0.35650
     Eigenvalues ---    0.41703   0.42703   0.44827   0.44952   0.45828
     Eigenvalues ---    0.46511   0.48706   0.52234
 En-DIIS/RFO-DIIS/Sim-DIIS IScMMF=       -3 using points:     4    3
 RFO step:  Lambda=-1.11803678D-06.
 DidBck=F Rises=F RFO-DIIS coefs:    0.89272    0.10728
 Iteration  1 RMS(Cart)=  0.00043110 RMS(Int)=  0.00000030
 Iteration  2 RMS(Cart)=  0.00000028 RMS(Int)=  0.00000020
 Variable       Old X    -DE/DX   Delta X   Delta X   Delta X     New X
                                 (Linear)    (Quad)   (Total)
    R1        2.63976  -0.00015   0.00018  -0.00057  -0.00040   2.63936
    R2        2.63806  -0.00001  -0.00026   0.00025  -0.00001   2.63805
    R3        2.05059   0.00006  -0.00003   0.00022   0.00019   2.05078
    R4        2.63972   0.00008  -0.00004   0.00021   0.00017   2.63989
    R5        2.05238  -0.00003   0.00000  -0.00009  -0.00009   2.05229
    R6        2.63973   0.00007  -0.00004   0.00021   0.00017   2.63989
    R7        2.62655   0.00012   0.00011   0.00006   0.00016   2.62672
    R8        2.63976  -0.00015   0.00018  -0.00057  -0.00040   2.63936
    R9        2.05238  -0.00003   0.00000  -0.00009  -0.00009   2.05229
   R10        2.63806  -0.00001  -0.00026   0.00025  -0.00001   2.63805
   R11        2.05059   0.00006  -0.00003   0.00022   0.00019   2.05078
   R12        3.32554   0.00020   0.00013   0.00055   0.00069   3.32623
   R13        1.83231   0.00017  -0.00006   0.00039   0.00032   1.83263
    A1        2.08141   0.00008  -0.00037   0.00076   0.00039   2.08180
    A2        2.10565  -0.00005   0.00022  -0.00049  -0.00026   2.10538
    A3        2.09612  -0.00003   0.00014  -0.00027  -0.00013   2.09599
    A4        2.09580   0.00000  -0.00003   0.00001  -0.00002   2.09579
    A5        2.10662  -0.00006   0.00008  -0.00047  -0.00039   2.10623
    A6        2.08074   0.00006  -0.00005   0.00046   0.00041   2.08115
    A7        2.09805  -0.00007   0.00015  -0.00037  -0.00022   2.09784
    A8        2.09146   0.00003  -0.00006   0.00023   0.00017   2.09163
    A9        2.09146   0.00003  -0.00006   0.00023   0.00017   2.09163
   A10        2.09580   0.00000  -0.00003   0.00001  -0.00002   2.09579
   A11        2.08074   0.00006  -0.00005   0.00046   0.00041   2.08115
   A12        2.10662  -0.00006   0.00008  -0.00047  -0.00039   2.10623
   A13        2.08141   0.00008  -0.00037   0.00076   0.00039   2.08180
   A14        2.10565  -0.00005   0.00022  -0.00049  -0.00026   2.10538
   A15        2.09611  -0.00003   0.00014  -0.00027  -0.00013   2.09599
   A16        2.11372  -0.00009   0.00064  -0.00116  -0.00052   2.11320
   A17        2.08473   0.00004  -0.00032   0.00058   0.00026   2.08499
   A18        2.08473   0.00004  -0.00032   0.00058   0.00026   2.08499
   A19        1.92032   0.00017  -0.00010   0.00106   0.00096   1.92128
    D1       -0.00864   0.00000  -0.00005   0.00017   0.00012  -0.00852
    D2        3.12630   0.00001   0.00009   0.00023   0.00032   3.12662
    D3        3.13928   0.00001   0.00002   0.00028   0.00030   3.13958
    D4       -0.00896   0.00001   0.00016   0.00035   0.00050  -0.00846
    D5       -0.00342   0.00001   0.00017   0.00042   0.00059  -0.00283
    D6       -3.14109   0.00000   0.00012   0.00003   0.00015  -3.14094
    D7        3.13188   0.00001   0.00010   0.00031   0.00041   3.13229
    D8       -0.00579   0.00000   0.00005  -0.00009  -0.00003  -0.00582
    D9        0.02071  -0.00002  -0.00007  -0.00076  -0.00082   0.01988
   D10        3.09077   0.00003   0.00063   0.00062   0.00125   3.09202
   D11       -3.11433  -0.00002  -0.00020  -0.00081  -0.00102  -3.11535
   D12       -0.04427   0.00003   0.00050   0.00056   0.00106  -0.04321
   D13       -0.02071   0.00002   0.00007   0.00076   0.00082  -0.01989
   D14        3.11433   0.00002   0.00020   0.00081   0.00102   3.11535
   D15       -3.09077  -0.00003  -0.00063  -0.00062  -0.00125  -3.09202
   D16        0.04427  -0.00003  -0.00050  -0.00056  -0.00106   0.04321
   D17        1.60647  -0.00002  -0.00035  -0.00066  -0.00101   1.60546
   D18       -1.60638   0.00002   0.00035   0.00069   0.00104  -1.60534
   D19        0.00864   0.00000   0.00005  -0.00017  -0.00012   0.00852
   D20       -3.13928  -0.00001  -0.00002  -0.00028  -0.00030  -3.13959
   D21       -3.12630  -0.00001  -0.00009  -0.00023  -0.00032  -3.12661
   D22        0.00896  -0.00001  -0.00016  -0.00035  -0.00050   0.00846
   D23        0.00342  -0.00001  -0.00017  -0.00042  -0.00059   0.00282
   D24        3.14109   0.00000  -0.00012  -0.00003  -0.00015   3.14094
   D25       -3.13188  -0.00001  -0.00010  -0.00031  -0.00041  -3.13229
   D26        0.00579   0.00000  -0.00005   0.00009   0.00003   0.00582
         Item               Value     Threshold  Converged?
 Maximum Force            0.000197     0.000450     YES
 RMS     Force            0.000064     0.000300     YES
 Maximum Displacement     0.001736     0.001800     YES
 RMS     Displacement     0.000431     0.001200     YES
 Predicted change in Energy=-5.590406D-07
 Optimization completed.
    -- Stationary point found.
                           ----------------------------
                           !   Optimized Parameters   !
                           ! (Angstroms and Degrees)  !
 --------------------------                            --------------------------
 ! Name  Definition              Value          Derivative Info.                !
 --------------------------------------------------------------------------------
 ! R1    R(1,2)                  1.3969         -DE/DX =   -0.0001              !
 ! R2    R(1,6)                  1.396          -DE/DX =    0.0                 !
 ! R3    R(1,7)                  1.0851         -DE/DX =    0.0001              !
 ! R4    R(2,3)                  1.3969         -DE/DX =    0.0001              !
 ! R5    R(2,8)                  1.0861         -DE/DX =    0.0                 !
 ! R6    R(3,4)                  1.3969         -DE/DX =    0.0001              !
 ! R7    R(3,11)                 1.3899         -DE/DX =    0.0001              !
 ! R8    R(4,5)                  1.3969         -DE/DX =   -0.0001              !
 ! R9    R(4,9)                  1.0861         -DE/DX =    0.0                 !
 ! R10   R(5,6)                  1.396          -DE/DX =    0.0                 !
 ! R11   R(5,10)                 1.0851         -DE/DX =    0.0001              !
 ! R12   R(6,13)                 1.7598         -DE/DX =    0.0002              !
 ! R13   R(11,12)                0.9696         -DE/DX =    0.0002              !
 ! A1    A(2,1,6)              119.2558         -DE/DX =    0.0001              !
 ! A2    A(2,1,7)              120.6447         -DE/DX =    0.0                 !
 ! A3    A(6,1,7)              120.0986         -DE/DX =    0.0                 !
 ! A4    A(1,2,3)              120.0806         -DE/DX =    0.0                 !
 ! A5    A(1,2,8)              120.7005         -DE/DX =   -0.0001              !
 ! A6    A(3,2,8)              119.2179         -DE/DX =    0.0001              !
 ! A7    A(2,3,4)              120.2095         -DE/DX =   -0.0001              !
 ! A8    A(2,3,11)             119.8318         -DE/DX =    0.0                 !
 ! A9    A(4,3,11)             119.832          -DE/DX =    0.0                 !
 ! A10   A(3,4,5)              120.0806         -DE/DX =    0.0                 !
 ! A11   A(3,4,9)              119.2179         -DE/DX =    0.0001              !
 ! A12   A(5,4,9)              120.7004         -DE/DX =   -0.0001              !
 ! A13   A(4,5,6)              119.2557         -DE/DX =    0.0001              !
 ! A14   A(4,5,10)             120.6447         -DE/DX =    0.0                 !
 ! A15   A(6,5,10)             120.0985         -DE/DX =    0.0                 !
 ! A16   A(1,6,5)              121.1069         -DE/DX =   -0.0001              !
 ! A17   A(1,6,13)             119.4463         -DE/DX =    0.0                 !
 ! A18   A(5,6,13)             119.4463         -DE/DX =    0.0                 !
 ! A19   A(3,11,12)            110.0262         -DE/DX =    0.0002              !
 ! D1    D(6,1,2,3)             -0.4951         -DE/DX =    0.0                 !
 ! D2    D(6,1,2,8)            179.1238         -DE/DX =    0.0                 !
 ! D3    D(7,1,2,3)            179.8676         -DE/DX =    0.0                 !
 ! D4    D(7,1,2,8)             -0.5135         -DE/DX =    0.0                 !
 ! D5    D(2,1,6,5)             -0.1958         -DE/DX =    0.0                 !
 ! D6    D(2,1,6,13)          -179.9711         -DE/DX =    0.0                 !
 ! D7    D(7,1,6,5)            179.4435         -DE/DX =    0.0                 !
 ! D8    D(7,1,6,13)            -0.3318         -DE/DX =    0.0                 !
 ! D9    D(1,2,3,4)              1.1865         -DE/DX =    0.0                 !
 ! D10   D(1,2,3,11)           177.088          -DE/DX =    0.0                 !
 ! D11   D(8,2,3,4)           -178.438          -DE/DX =    0.0                 !
 ! D12   D(8,2,3,11)            -2.5366         -DE/DX =    0.0                 !
 ! D13   D(2,3,4,5)             -1.1865         -DE/DX =    0.0                 !
 ! D14   D(2,3,4,9)            178.4379         -DE/DX =    0.0                 !
 ! D15   D(11,3,4,5)          -177.088          -DE/DX =    0.0                 !
 ! D16   D(11,3,4,9)             2.5364         -DE/DX =    0.0                 !
 ! D17   D(2,3,11,12)           92.0439         -DE/DX =    0.0                 !
 ! D18   D(4,3,11,12)          -92.0391         -DE/DX =    0.0                 !
 ! D19   D(3,4,5,6)              0.4951         -DE/DX =    0.0                 !
 ! D20   D(3,4,5,10)          -179.8677         -DE/DX =    0.0                 !
 ! D21   D(9,4,5,6)           -179.1236         -DE/DX =    0.0                 !
 ! D22   D(9,4,5,10)             0.5136         -DE/DX =    0.0                 !
 ! D23   D(4,5,6,1)              0.1958         -DE/DX =    0.0                 !
 ! D24   D(4,5,6,13)           179.971          -DE/DX =    0.0                 !
 ! D25   D(10,5,6,1)          -179.4434         -DE/DX =    0.0                 !
 ! D26   D(10,5,6,13)            0.3318         -DE/DX =    0.0                 !
 --------------------------------------------------------------------------------
 GradGradGradGradGradGradGradGradGradGradGradGradGradGradGradGradGradGrad

                          Input orientation:                          
 ---------------------------------------------------------------------
 Center     Atomic      Atomic             Coordinates (Angstroms)
 Number     Number       Type             X           Y           Z
 ---------------------------------------------------------------------
      1          6           0       -0.264749   -0.715395   -0.003267
      2          6           0        1.132103   -0.710836   -0.013670
      3          6           0        1.828178    0.500121   -0.032109
      4          6           0        1.132245    1.711184   -0.015232
      5          6           0       -0.264607    1.715920   -0.004836
      6          6           0       -0.950960    0.500305   -0.000988
      7          1           0       -0.814727   -1.650743    0.008909
      8          1           0        1.689748   -1.642734   -0.001371
      9          1           0        1.690000    2.643031   -0.004133
     10          1           0       -0.814474    2.651347    0.006135
     11          8           0        3.217155    0.500071    0.018857
     12          1           0        3.582381    0.499507   -0.879345
     13         17           0       -2.710706    0.500417    0.012878
 ---------------------------------------------------------------------
                    Distance matrix (angstroms):
                    1          2          3          4          5
     1  C    0.000000
     2  C    1.396899   0.000000
     3  C    2.420466   1.396882   0.000000
     4  C    2.800004   2.422021   1.396882   0.000000
     5  C    2.431316   2.800004   2.420467   1.396898   0.000000
     6  C    1.396000   2.409601   2.779313   2.409601   1.396001
     7  H    1.085126   2.161962   3.407762   3.885078   3.411340
     8  H    2.163336   1.086072   2.147542   3.399966   3.885882
     9  H    3.885882   3.399966   2.147543   1.086072   2.163336
    10  H    3.411340   3.885078   3.407763   2.161962   1.085126
    11  O    3.688022   2.411389   1.389912   2.411391   3.688023
    12  H    4.128427   2.866738   1.948086   2.866708   4.128406
    13  Cl   2.731514   4.029271   4.539107   4.029271   2.731514
                    6          7          8          9         10
     6  C    0.000000
     7  H    2.155380   0.000000
     8  H    3.400876   2.504509   0.000000
     9  H    3.400876   4.970947   4.285767   0.000000
    10  H    2.155380   4.302090   4.970948   2.504509   0.000000
    11  O    4.168163   4.569701   2.631538   2.631542   4.569703
    12  H    4.617650   4.974648   2.990334   2.990284   4.974618
    13  Cl   1.759801   2.867445   4.894620   4.894620   2.867445
                   11         12         13
    11  O    0.000000
    12  H    0.969617   0.000000
    13  Cl   5.927864   6.356022   0.000000
 Symmetry turned off by external request.
 Stoichiometry    C6H5ClO
 Framework group  C1[X(C6H5ClO)]
 Deg. of freedom    33
 Full point group                 C1      NOp   1
 Rotational constants (GHZ):           5.6147661           0.9600875           0.8219233

 **********************************************************************

            Population analysis using the SCF Density.

 **********************************************************************

 Alpha  occ. eigenvalues -- -101.55786 -19.18748 -10.26481 -10.26342 -10.21838
 Alpha  occ. eigenvalues --  -10.21838 -10.21311 -10.21311  -9.47304  -7.23710
 Alpha  occ. eigenvalues --   -7.22736  -7.22712  -1.06196  -0.89909  -0.84250
 Alpha  occ. eigenvalues --   -0.77268  -0.73820  -0.63858  -0.61723  -0.56258
 Alpha  occ. eigenvalues --   -0.50137  -0.49358  -0.47033  -0.44697  -0.43582
 Alpha  occ. eigenvalues --   -0.40054  -0.38900  -0.38722  -0.33426  -0.32092
 Alpha  occ. eigenvalues --   -0.31516  -0.27632  -0.25006
 Alpha virt. eigenvalues --   -0.03278  -0.02603  -0.00662   0.00453   0.01325
 Alpha virt. eigenvalues --    0.02155   0.04225   0.05271   0.05968   0.06115
 Alpha virt. eigenvalues --    0.07470   0.08080   0.08427   0.08900   0.11591
 Alpha virt. eigenvalues --    0.12618   0.12877   0.12922   0.13378   0.13641
 Alpha virt. eigenvalues --    0.14723   0.15333   0.15999   0.16789   0.17050
 Alpha virt. eigenvalues --    0.17776   0.19159   0.20480   0.21186   0.21381
 Alpha virt. eigenvalues --    0.22121   0.23020   0.23366   0.23991   0.25386
 Alpha virt. eigenvalues --    0.25722   0.28200   0.28591   0.29274   0.30592
 Alpha virt. eigenvalues --    0.32299   0.33150   0.34563   0.36400   0.36984
 Alpha virt. eigenvalues --    0.38907   0.52589   0.53480   0.60219   0.61723
 Alpha virt. eigenvalues --    0.62378   0.64731   0.65159   0.67084   0.68675
 Alpha virt. eigenvalues --    0.69862   0.70093   0.70880   0.72206   0.72868
 Alpha virt. eigenvalues --    0.77976   0.78369   0.79089   0.81890   0.85974
 Alpha virt. eigenvalues --    0.86618   0.90379   0.92330   0.93438   0.94169
 Alpha virt. eigenvalues --    0.94637   0.99116   1.00706   1.02146   1.06876
 Alpha virt. eigenvalues --    1.07921   1.08148   1.09994   1.14252   1.16171
 Alpha virt. eigenvalues --    1.19060   1.20948   1.22849   1.26424   1.27811
 Alpha virt. eigenvalues --    1.34779   1.37812   1.39587   1.42120   1.42609
 Alpha virt. eigenvalues --    1.44278   1.48339   1.52074   1.54835   1.62346
 Alpha virt. eigenvalues --    1.72617   1.79610   1.81289   1.86120   1.90180
 Alpha virt. eigenvalues --    1.94310   1.94430   1.98841   2.00002   2.09562
 Alpha virt. eigenvalues --    2.12915   2.13282   2.13757   2.21124   2.26542
 Alpha virt. eigenvalues --    2.28309   2.29265   2.40701   2.49229   2.54983
 Alpha virt. eigenvalues --    2.60820   2.62564   2.64983   2.72290   2.73316
 Alpha virt. eigenvalues --    2.78661   2.82545   3.00717   3.08540   3.37409
 Alpha virt. eigenvalues --    4.14755   4.22003   4.22366   4.25508   4.36047
 Alpha virt. eigenvalues --    4.36398   4.44869   4.73076
          Condensed to atoms (all electrons):
               1          2          3          4          5          6
     1  C    7.742334  -0.559833   0.435776   0.093236  -1.130945  -0.129641
     2  C   -0.559833   8.915760  -0.806424  -2.188689   0.093202   0.195993
     3  C    0.435776  -0.806424   7.714910  -0.805930   0.435690  -1.153827
     4  C    0.093236  -2.188689  -0.805930   8.915279  -0.559729   0.195848
     5  C   -1.130945   0.093202   0.435690  -0.559729   7.742246  -0.129539
     6  C   -0.129641   0.195993  -1.153827   0.195848  -0.129539   6.739316
[...]
 ! R10   R(5,6)                  1.396          -DE/DX =    0.0                 !
 ! R11   R(5,10)                 1.0851         -DE/DX =    0.0001              !
 ! R12   R(6,13)                 1.7598         -DE/DX =    0.0002              !
 ! R13   R(11,12)                0.9696         -DE/DX =    0.0002              !
 ! A1    A(2,1,6)              119.2558         -DE/DX =    0.0001              !
 ! A2    A(2,1,7)              120.6447         -DE/DX =    0.0                 !
 ! A3    A(6,1,7)              120.0986         -DE/DX =    0.0                 !
 ! A4    A(1,2,3)              120.0806         -DE/DX =    0.0                 !
 ! A5    A(1,2,8)              120.7005         -DE/DX =   -0.0001              !
 ! A6    A(3,2,8)              119.2179         -DE/DX =    0.0001              !
 ! A7    A(2,3,4)              120.2095         -DE/DX =   -0.0001              !
 ! A8    A(2,3,11)             119.8318         -DE/DX =    0.0                 !
 ! A9    A(4,3,11)             119.832          -DE/DX =    0.0                 !
 ! A10   A(3,4,5)              120.0806         -DE/DX =    0.0                 !
 ! A11   A(3,4,9)              119.2179         -DE/DX =    0.0001              !
 ! A12   A(5,4,9)              120.7004         -DE/DX =   -0.0001              !
 ! A13   A(4,5,6)              119.2557         -DE/DX =    0.0001              !
 ! A14   A(4,5,10)             120.6447         -DE/DX =    0.0                 !
 ! A15   A(6,5,10)             120.0985         -DE/DX =    0.0                 !
 ! A16   A(1,6,5)              121.1069         -DE/DX =   -0.0001              !
 ! A17   A(1,6,13)             119.4463         -DE/DX =    0.0                 !
 ! A18   A(5,6,13)             119.4463         -DE/DX =    0.0                 !
 ! A19   A(3,11,12)            110.0262         -DE/DX =    0.0002              !
 ! D1    D(6,1,2,3)             -0.4951         -DE/DX =    0.0                 !
 ! D2    D(6,1,2,8)            179.1238         -DE/DX =    0.0                 !
 ! D3    D(7,1,2,3)            179.8676         -DE/DX =    0.0                 !
 ! D4    D(7,1,2,8)             -0.5135         -DE/DX =    0.0                 !
 ! D5    D(2,1,6,5)             -0.1958         -DE/DX =    0.0                 !
 ! D6    D(2,1,6,13)          -179.9711         -DE/DX =    0.0                 !
 ! D7    D(7,1,6,5)            179.4435         -DE/DX =    0.0                 !
 ! D8    D(7,1,6,13)            -0.3318         -DE/DX =    0.0                 !
 ! D9    D(1,2,3,4)              1.1865         -DE/DX =    0.0                 !
 ! D10   D(1,2,3,11)           177.088          -DE/DX =    0.0                 !
 ! D11   D(8,2,3,4)           -178.438          -DE/DX =    0.0                 !
 ! D12   D(8,2,3,11)            -2.5366         -DE/DX =    0.0                 !
 ! D13   D(2,3,4,5)             -1.1865         -DE/DX =    0.0                 !
 ! D14   D(2,3,4,9)            178.4379         -DE/DX =    0.0                 !
 ! D15   D(11,3,4,5)          -177.088          -DE/DX =    0.0                 !
 ! D16   D(11,3,4,9)             2.5364         -DE/DX =    0.0                 !
 ! D17   D(2,3,11,12)           92.0439         -DE/DX =    0.0                 !
 ! D18   D(4,3,11,12)          -92.0391         -DE/DX =    0.0                 !
 ! D19   D(3,4,5,6)              0.4951         -DE/DX =    0.0                 !
 ! D20   D(3,4,5,10)          -179.8677         -DE/DX =    0.0                 !
 ! D21   D(9,4,5,6)           -179.1236         -DE/DX =    0.0                 !
 ! D22   D(9,4,5,10)             0.5136         -DE/DX =    0.0                 !
 ! D23   D(4,5,6,1)              0.1958         -DE/DX =    0.0                 !
 ! D24   D(4,5,6,13)           179.971          -DE/DX =    0.0                 !
 ! D25   D(10,5,6,1)          -179.4434         -DE/DX =    0.0                 !
 ! D26   D(10,5,6,13)            0.3318         -DE/DX =    0.0                 !
 --------------------------------------------------------------------------------
 GradGradGradGradGradGradGradGradGradGradGradGradGradGradGradGradGradGrad


 ----------------------------------------------------------------------

 Electric dipole moment (input orientation):
 (Debye = 10**-18 statcoulomb cm , SI units = C m)
                  (au)            (Debye)         (10**-30 SI)
   Tot        0.800738D+00      0.203527D+01      0.678894D+01
   x          0.517795D+00      0.131610D+01      0.439005D+01
   y         -0.399864D-03     -0.101635D-02     -0.339019D-02
   z         -0.610795D+00     -0.155249D+01     -0.517853D+01

 Dipole polarizability, Alpha (input orientation).
 (esu units = cm**3 , SI units = C**2 m**2 J**-1)
 Alpha(0;0):
               (au)            (10**-24 esu)      (10**-40 SI)
   iso        0.837590D+02      0.124118D+02      0.138100D+02
   aniso      0.592755D+02      0.878373D+01      0.977321D+01
   xx         0.116951D+03      0.173303D+02      0.192826D+02
   yx        -0.306650D-02     -0.454408D-03     -0.505597D-03
   yy         0.856250D+02      0.126883D+02      0.141177D+02
   zx        -0.201823D+01     -0.299070D+00     -0.332760D+00
   zy        -0.237528D-01     -0.351980D-02     -0.391631D-02
   zz         0.487011D+02      0.721676D+01      0.802973D+01

 ----------------------------------------------------------------------

 Dipole orientation:
     6         -0.38586653          1.35198967         -0.31813521
     6          1.61493437          1.34288110          1.40378891
     6          2.59618871         -0.94575528          2.27981809
     6          1.61406834         -3.23407477          1.40392888
     6         -0.38673629         -3.24253206         -0.31799344
     6         -1.37180909         -0.94511031         -1.16110711
     1         -1.16408288          3.11974126         -1.00686842
     1          2.43346634          3.10373101          2.06837452
     1          2.43193695         -4.99519379          2.06861850
     1         -1.16562069         -5.01003091         -1.00662029
     8          4.66062783         -0.94609228          3.90366154
     1          4.08949812         -0.94600202          5.64468841
    17         -3.89147477         -0.94470034         -3.33147792

 Electric dipole moment (dipole orientation):
 (Debye = 10**-18 statcoulomb cm , SI units = C m)
                  (au)            (Debye)         (10**-30 SI)
   Tot        0.800738D+00      0.203527D+01      0.678894D+01
   x          0.000000D+00      0.000000D+00      0.000000D+00
   y          0.000000D+00      0.000000D+00      0.000000D+00
   z          0.800738D+00      0.203527D+01      0.678894D+01

 Dipole polarizability, Alpha (dipole orientation).
 (esu units = cm**3 , SI units = C**2 m**2 J**-1)
 Alpha(0;0):
               (au)            (10**-24 esu)      (10**-40 SI)
   iso        0.837590D+02      0.124118D+02      0.138100D+02
   aniso      0.592755D+02      0.878373D+01      0.977321D+01
   xx         0.864211D+02      0.128063D+02      0.142489D+02
   yx         0.868552D-03      0.128706D-03      0.143205D-03
   yy         0.856250D+02      0.126883D+02      0.141177D+02
   zx         0.339950D+02      0.503754D+01      0.560502D+01
   zy        -0.671509D-02     -0.995074D-03     -0.110717D-02
   zz         0.792309D+02      0.117408D+02      0.130634D+02

 ----------------------------------------------------------------------
 1\1\GINC-IP-172-31-13-49\Freq\RB3LYP\6-31+G(d)\C6H5Cl1O1\UBUNTU\15-Sep
 -2023\0\\#N Geom=AllCheck Guess=TCheck SCRF=Check GenChk RB3LYP/6-31+G
 (d) Freq\\molecule_30\\0,1\C,-0.2647493326,-0.71539536,-0.0032671412\C
 ,1.1321030187,-0.7108363847,-0.0136700999\C,1.8281780977,0.5001212823,
 -0.0321086344\C,1.1322450229,1.7111838948,-0.0152324291\C,-0.264606519
 6,1.7159203698,-0.0048361179\C,-0.9509603909,0.500304618,-0.0009882763
 \H,-0.8147265146,-1.6507425204,0.0089092918\H,1.6897484981,-1.64273417
 26,-0.0013712555\H,1.6899997328,2.6430314469,-0.0041332608\H,-0.814474
 267,2.6513468184,0.0061345768\O,3.2171549271,0.5000706303,0.018857477\
 H,3.5823811444,0.4995074267,-0.8793446644\Cl,-2.710706417,0.5004169503
 ,0.0128775339\\Version=EM64L-G16RevB.01\HF=-767.0785556\RMSD=4.560e-10
 \RMSF=9.557e-05\ZeroPoint=0.0939902\Thermal=0.1003381\Dipole=0.5177949
 ,-0.0003999,-0.6107948\DipoleDeriv=-0.1949461,0.0275893,-0.0018437,0.0
 610203,0.0427209,-0.0031979,0.0137152,-0.0056014,-0.1125525,-0.1283895
 ,-0.0323654,0.0106398,-0.1418699,0.0271008,-0.0084908,0.0131125,-0.008
 519,-0.1060553,1.2882054,-0.0000927,-0.042386,-0.0000915,0.1362614,-0.
 0001003,-0.0458825,-0.0000989,-0.0268577,-0.1283691,0.0323965,0.010599
 7,0.1419037,0.0271027,0.0083189,0.0129238,0.0083444,-0.1060801,-0.1949
 586,-0.0275623,-0.0018077,-0.0609749,0.0427421,0.0029982,0.0137933,0.0
 054007,-0.1125633,1.1869541,-0.0000789,-0.0127898,-0.0000784,-0.014045
 4,-0.0000166,-0.0149026,-0.0000165,-0.0401566,0.0383438,-0.0606876,0.0
 018307,-0.0577702,-0.0056424,0.0013019,0.0006519,0.0030564,0.140532,0.
 0149032,0.0661202,0.0006681,0.0665203,-0.0196498,-0.0005421,-0.0041632
 ,0.0028231,0.1442261,0.0148858,-0.0661245,0.0007532,-0.0665308,-0.0196
 38,0.0007533,-0.0040781,-0.0026121,0.1442288,0.0383575,0.0606848,0.001
 7525,0.0577658,-0.0056618,-0.0011136,0.0005782,-0.0028674,0.1405373,-1
 .4363767,0.0000977,0.066873,0.0000657,-0.4537947,0.0001587,0.0342695,0
 .0001638,-0.1805178,0.3442087,-0.0000273,-0.0445927,-0.0000066,0.33948
 35,-0.0000891,-0.0248324,-0.0000925,0.1814621,-0.8428184,0.0000503,0.0
 103029,0.0000467,-0.0969794,0.0000194,0.0048144,0.0000196,-0.066203\Po
 lar=116.9509687,-0.0030665,85.6249704,-2.0182256,-0.0237528,48.7011052
 \Quadrupole=-2.4010218,3.8568004,-1.4557786,0.4869915,-4.7439815,-0.58
 06102\PG=C01 [X(C6H5Cl1O1)]\NImag=1\\0.68847981,0.04340320,0.72294578,
 -0.00500027,-0.00375475,0.12588877,-0.34208781,-0.03473826,0.00223779,
 0.69939203,0.03097579,-0.12905832,-0.00007778,-0.03715571,0.71979330,0
 .00121922,0.00100787,-0.05594435,-0.00325659,-0.00727424,0.12471372,-0
 .02657985,-0.02550688,0.00134089,-0.15707535,-0.11402978,0.00319478,0.
 65516973,-0.07844800,0.03991694,0.00070988,-0.04120372,-0.28635743,0.0
 0439626,-0.00000945,0.67534433,0.00022647,-0.00033849,0.00024778,0.001
 79308,0.00427757,-0.06242917,-0.01841220,-0.00032835,0.16787387,-0.047
 16363,0.02953097,0.00033003,0.06052749,0.02316231,-0.00012016,-0.15705
 661,0.04119014,0.00173920,0.69940084,0.02817701,-0.01957490,-0.0001856
 6,-0.02317604,-0.05419980,-0.00014633,0.11401794,-0.28638551,-0.003988
 23,0.03715458,0.71980133,0.00053360,-0.00010513,0.00007430,-0.00009026
 ,0.00022366,0.00586689,0.00304701,-0.00410720,-0.06241811,-0.00330290,
 0.00650699,0.12469569,0.05921581,-0.02343318,-0.00058058,-0.04717039,-
 0.02817306,0.00056983,-0.02656782,0.07845610,0.00012537,-0.34208798,-0
 .03094922,0.00125916,0.68847040,0.02341900,-0.05434368,-0.00025783,-0.
 02952723,-0.01956776,0.00013050,0.02551637,0.03990422,0.00028750,0.034
 76605,-0.12905973,-0.00091362,-0.04340594,0.72296430,-0.00061073,0.000
 33534,0.00570282,0.00036798,0.00021086,0.00007393,0.00130814,-0.000761
 18,0.00024827,0.00219296,0.00017206,-0.05594310,-0.00494406,0.00298465
 ,0.12588018,-0.15230911,0.11626060,0.00051785,-0.02862991,0.02531803,0
 .00015696,-0.00147865,-0.00000441,0.00023719,-0.02864213,-0.02531029,0
 .00018956,-0.15232879,-0.11627526,0.00066799,0.50441781,0.05219849,-0.
 28635479,0.00065914,0.07977514,0.03522768,-0.00109452,-0.00000426,-0.0
 7875378,0.00004871,-0.07976754,0.03524154,0.00105443,-0.05221281,-0.28
 633438,-0.00036534,0.00000640,0.65236908,0.00081799,-0.00043138,-0.058
 92319,0.00001525,-0.00017742,0.00426216,0.00034633,0.00004880,-0.00316
 212,0.00011816,0.00013758,0.00426057,0.00088549,0.00072493,-0.05892332
 ,-0.00297335,-0.00034679,0.11513596,-0.13035360,-0.12642834,0.00180662
 ,-0.01085943,-0.02808429,0.00038450,-0.00375193,0.00231720,-0.00000083
 ,-0.00076724,0.00058643,0.00001510,-0.00143350,0.00302580,0.00006970,0
 .00987060,0.01504185,-0.00019222,0.13657175,-0.12344973,-0.27254077,0.
 00295219,0.00188278,0.00504250,-0.00008842,0.00114199,0.00156078,0.000
 12845,0.00083657,0.00040619,-0.00003637,0.00416607,-0.00301043,0.00000
 934,-0.01647715,-0.01923632,0.00031203,0.13282054,0.28719220,0.0016984
 8,0.00320282,-0.03526034,0.00037308,0.00040664,0.00341655,-0.00004833,
 -0.00026098,0.00739254,-0.00018135,0.00010410,-0.00079248,0.00009623,0
 .00009492,0.00515251,0.00005610,-0.00020780,0.00282298,-0.00205827,-0.
 00317780,0.02445983,-0.01104787,0.02784081,-0.00021016,-0.13124757,0.1
 2473461,-0.00125238,0.01053931,-0.01410050,0.00005533,-0.00138190,-0.0
 0303347,0.00001076,-0.00076477,-0.00062014,-0.00000180,-0.00386678,-0.
 00144958,0.00005530,0.00075607,-0.00027116,-0.00000085,0.13590434,-0.0
 0227500,0.00504030,0.00002482,0.12283789,-0.26989602,0.00308695,0.0186
 5212,-0.01936647,0.00022144,-0.00419610,-0.00336946,0.00016579,-0.0009
 6745,0.00029371,0.00001706,-0.00089293,0.00165733,0.00017719,0.0003287
 2,0.00074996,-0.00013486,-0.13403820,0.28323182,0.00033089,-0.00035870
 ,0.00271196,-0.00167361,0.00366271,-0.03510136,-0.00093482,0.00008936,
 0.00528756,0.00020519,-0.00010469,0.00502252,0.00002958,0.00000473,-0.
 00078123,0.00014872,0.00008822,0.00709166,-0.00004917,-0.00003186,-0.0
 0422713,0.00117951,-0.00369766,0.02481782,-0.00076458,0.00062025,-0.00
 000259,-0.00138104,0.00303325,0.00000682,0.01053872,0.01409707,0.00003
 715,-0.13127669,-0.12475233,-0.00109220,-0.01105090,-0.02783922,-0.000
 17429,-0.00386651,0.00145031,0.00005340,0.00007005,-0.00008741,0.00000
 117,0.00057696,0.00080810,-0.00002058,0.13593589,0.00096761,0.00029349
 ,-0.00001845,0.00419614,-0.00337038,-0.00015495,-0.01865691,-0.0193662
 8,-0.00018971,-0.12285622,-0.26987540,-0.00278449,0.00227730,0.0050436
 9,-0.00002779,0.00089377,0.00165673,-0.00017020,-0.00009039,-0.0000095
 7,0.00000955,-0.00080832,-0.00102935,0.00004528,0.13405688,0.28320961,
 0.00002830,-0.00000610,-0.00078120,0.00019976,0.00011552,0.00502258,-0
 .00091062,-0.00005748,0.00528791,-0.00151609,-0.00336018,-0.03509315,0
 .00032805,0.00035565,0.00271153,0.00014756,-0.00008126,0.00709200,-0.0
 0001517,0.00000179,-0.00059464,-0.00001954,-0.00004370,0.00018561,0.00
 100738,0.00336478,0.02480877,-0.00143435,-0.00302589,0.00007361,-0.000
 76741,-0.00058627,0.00001585,-0.00375234,-0.00231659,0.00000213,-0.010
 85635,0.02808662,0.00034834,-0.13032452,0.12641404,0.00164332,0.009870
 79,-0.01504548,-0.00017286,0.00069248,-0.00077480,0.00001232,0.0000700
 7,0.00009036,-0.00001529,0.00075606,-0.00032878,-0.00004874,0.13654080
 ,-0.00416614,-0.00300970,0.00000118,-0.00083666,0.00040626,0.00003483,
 -0.00114143,0.00156137,-0.00012092,-0.00188044,0.00503901,0.00008628,0
 .12343528,-0.27257780,-0.00264642,0.01647380,-0.01923659,-0.00028358,0
 .00077462,-0.00092557,0.00001027,0.00008740,-0.00000960,-0.00000254,0.
 00027116,0.00075018,0.00002545,-0.13280556,0.28723130,0.00010162,-0.00
 008443,0.00515262,-0.00018028,-0.00010561,-0.00079239,-0.00004684,0.00
 026852,0.00739238,0.00037542,-0.00040880,0.00341695,0.00153900,-0.0028
 9706,-0.03525296,0.00003486,0.00023628,0.00282306,0.00001131,-0.000008
 66,0.00032061,0.00000106,-0.00001031,-0.00059462,-0.00000117,0.0001284
 5,-0.00422734,-0.00188672,0.00283930,0.02445224,0.00167500,-0.00397081
 ,0.00079810,-0.04219679,-0.00462922,-0.00104002,-0.27391351,-0.0000019
 6,-0.02396563,-0.04219228,0.00463338,-0.00104636,0.00167543,0.00397119
 ,0.00079260,0.00115285,-0.00000003,-0.00001033,-0.00152798,0.00006819,
 0.00013382,0.00175348,0.00018380,-0.00024879,0.00175337,-0.00018388,-0
 .00024855,-0.00152786,-0.00006782,0.00013394,0.44644027,0.00191551,-0.
 00549522,0.00152335,-0.03705955,0.00545240,0.00122775,0.00002511,-0.06
 602271,-0.00000001,0.03706737,0.00544776,-0.00122670,-0.00191567,-0.00
 549870,-0.00150688,-0.00000016,0.00263910,-0.00000231,-0.00133504,0.00
 012895,-0.00012878,0.00108287,0.00317675,-0.00031892,-0.00108271,0.003
 17702,0.00030924,0.00133554,0.00012898,0.00012832,-0.00011675,0.047772
 34,0.00041841,0.00084133,0.00730170,0.00179470,-0.00127748,0.00612257,
 0.02034383,-0.00000239,-0.07077020,0.00174696,0.00127787,0.00612240,0.
 00042043,-0.00082488,0.00730457,-0.00028502,-0.00000210,-0.00094612,0.
 00021539,-0.00000265,-0.00019088,0.00002872,0.00028857,-0.00426060,0.0
 0003007,-0.00029815,-0.00426054,0.00021363,0.00000221,-0.00019105,-0.1
 5290348,0.00027600,0.49382007,-0.00064122,-0.00029673,-0.00172126,-0.0
 0078996,0.00130158,0.00019132,-0.02725683,0.00002391,0.03790176,-0.000
 78934,-0.00130105,0.00019304,-0.00064124,0.00029435,-0.00172148,0.0001
 3388,0.00000006,0.00001779,-0.00008724,0.00003378,-0.00005285,0.000085
 37,-0.00024551,0.00102006,0.00008544,0.00024680,0.00101971,-0.00008720
 ,-0.00003383,-0.00005282,-0.08960491,0.00008333,0.12801830,0.11931426,
 0.00022101,-0.00099838,-0.00133894,-0.00332413,0.00046053,-0.00118405,
 -0.00000477,-0.00382185,0.00000342,0.00332232,0.00046168,0.00118378,-0
 .00022124,-0.00099603,0.00134078,0.00000007,0.00056351,-0.00000038,-0.
 00011762,-0.00001057,0.00010826,-0.00033158,-0.00059916,0.00064687,0.0
 0033173,-0.00060001,-0.00064659,0.00011742,-0.00001068,-0.00010814,0.0
 0011373,0.00867672,-0.00027763,-0.00010682,-0.00303196,-0.00002166,-0.
 00038266,0.00032768,-0.00163092,0.00004034,0.00025968,-0.00909747,0.00
 000612,0.00537815,-0.00163522,-0.00004041,0.00025831,-0.00002113,0.000
 38440,0.00032554,-0.00002436,-0.00000048,-0.00004033,-0.00014471,-0.00
 003649,0.00006928,0.00014930,-0.00010997,-0.00032833,0.00014892,0.0001
 1027,-0.00032767,-0.00014485,0.00003661,0.00006937,0.17767722,-0.00028
 036,-0.43939090,-0.16503165,0.00027263,0.43350206,-0.03698859,-0.00025
 575,0.00040997,0.00228613,0.00413276,-0.00007015,0.00118512,0.00000021
 ,0.00026098,0.00228582,-0.00413356,-0.00006486,-0.03699173,0.00026099,
 0.00040968,-0.15432407,0.00000744,0.00103905,0.00081999,0.00011034,-0.
 00002954,-0.00137670,-0.00028580,0.00002831,-0.00137678,0.00028601,0.0
 0002795,0.00081982,-0.00011039,-0.00002938,-0.00348707,0.00000015,-0.0
 0004193,0.00027898,-0.00000012,-0.00022347,0.22686908,0.02706123,0.003
 17924,-0.00023716,-0.00167064,-0.00393298,0.00005835,-0.00000005,0.001
 78639,-0.00000138,0.00166997,-0.00393271,-0.00004741,-0.02705617,0.003
 18259,0.00023753,0.00000752,-0.03943913,0.00001153,0.00116051,0.000652
 63,-0.00002635,0.00090727,0.00012018,-0.00002280,-0.00090709,0.0001202
 7,0.00002287,-0.00116061,0.00065283,0.00002213,0.00000019,0.00041661,-
 0.00000070,0.00000012,-0.00009381,0.,-0.00001226,0.03728789,0.00025768
 ,0.00007428,0.00350146,0.00005002,-0.00002477,0.00452918,-0.00013069,-
 0.00000137,-0.00032886,0.00004780,0.00003570,0.00452921,0.00029262,-0.
 00007388,0.00350124,0.00112595,0.00001152,-0.02149330,-0.00004226,-0.0
 0002153,-0.00256881,0.00000476,0.00001467,0.00017616,0.00000592,-0.000
 01460,0.00017615,-0.00004075,0.00001732,-0.00256887,-0.00007252,-0.000
 00070,-0.00066101,0.00021809,-0.00000001,-0.00010283,-0.00171660,-0.00
 001662,0.01131028\\-0.00024460,-0.00014000,0.00003685,0.00013363,0.000
 08538,0.00002080,0.00002406,-0.00000041,-0.00021458,0.00013352,-0.0000
 8518,0.00002105,-0.00024440,0.00014013,0.00003678,-0.00004962,-0.00000
 010,-0.00002130,0.00002342,0.00005459,-0.00000552,0.00006517,-0.000000
 38,0.00000758,0.00006520,0.00000034,0.00000758,0.00002338,-0.00005460,
 -0.00000542,0.00002637,0.00000042,-0.00000423,-0.00015302,-0.00000016,
 0.00012408,0.00019688,-0.00000002,-0.00000365\\\@


 EVANS BOLDLY PUT 50 ATM. OF ETHYLENE IN A CELL WITH 25 ATM. OF OXYGEN.
 THE APPARATUS SUBSEQUENTLY BLEW UP, BUT LUCKILY NOT BEFORE HE
 OBTAINED THE SPECTRA SHOWN IN FIGURE 8.
 A.J.MERER AND R.S.MULLIKEN, CHEM.REV. 69, 645 (1969)
 Job cpu time:       0 days  0 hours 19 minutes 22.9 seconds.
 Elapsed time:       0 days  0 hours  0 minutes 38.8 seconds.
 File lengths (MBytes):  RWF=     49 Int=      0 D2E=      0 Chk=      3 Scr=      1
 Normal termination of Gaussian 16 at Fri Sep 15 04:00:10 2023.
