 Entering Gaussian System, Link 0=/home/ubuntu/g16/g16
 Input=/home/ubuntu/substrates/molecule_2.gjf
 Output=/home/ubuntu/substrates/molecule_2.log
 Initial command:
 /home/ubuntu/g16/l1.exe "/home/ubuntu/Scratch/Gau-7557.inp" -scrdir="/home/ubuntu/Scratch/"
 Entering Link 1 = /home/ubuntu/g16/l1.exe PID=      7559.
  
 Copyright (c) 1988-2017, Gaussian, Inc.  All Rights Reserved.
  
 This is part of the Gaussian(R) 16 program.  It is based on
 the Gaussian(R) 09 system (copyright 2009, Gaussian, Inc.),
 the Gaussian(R) 03 system (copyright 2003, Gaussian, Inc.),
 the Gaussian(R) 98 system (copyright 1998, Gaussian, Inc.),
 the Gaussian(R) 94 system (copyright 1995, Gaussian, Inc.),
 the Gaussian 92(TM) system (copyright 1992, Gaussian, Inc.),
 the Gaussian 90(TM) system (copyright 1990, Gaussian, Inc.),
 the Gaussian 88(TM) system (copyright 1988, Gaussian, Inc.),
 the Gaussian 86(TM) system (copyright 1986, Carnegie Mellon
 University), and the Gaussian 82(TM) system (copyright 1983,
 Carnegie Mellon University). Gaussian is a federally registered
 trademark of Gaussian, Inc.
  
 This software contains proprietary and confidential information,
 including trade secrets, belonging to Gaussian, Inc.
  
 This software is provided under written license and may be
 used, copied, transmitted, or stored only in accord with that
 written license.
  
 The following legend is applicable only to US Government
 contracts under FAR:
  
                    RESTRICTED RIGHTS LEGEND
  
 Use, reproduction and disclosure by the US Government is
 subject to restrictions as set forth in subparagraphs (a)
 and (c) of the Commercial Computer Software - Restricted
 Rights clause in FAR 52.227-19.
  
 Gaussian, Inc.
 340 Quinnipiac St., Bldg. 40, Wallingford CT 06492
  
  
 ---------------------------------------------------------------
 Warning -- This program may not be used in any manner that
 competes with the business of Gaussian, Inc. or will provide
 assistance to any competitor of Gaussian, Inc.  The licensee
 of this program is prohibited from giving any competitor of
 Gaussian, Inc. access to this program.  By using this program,
 the user acknowledges that Gaussian, Inc. is engaged in the
 business of creating and licensing software in the field of
 computational chemistry and represents and warrants to the
 licensee that it is not a competitor of Gaussian, Inc. and that
 it will not use this program in any manner prohibited above.
 ---------------------------------------------------------------
  

 Cite this work as:
 Gaussian 16, Revision B.01,
 M. J. Frisch, G. W. Trucks, H. B. Schlegel, G. E. Scuseria, 
 M. A. Robb, J. R. Cheeseman, G. Scalmani, V. Barone, 
 G. A. Petersson, H. Nakatsuji, X. Li, M. Caricato, A. V. Marenich, 
 J. Bloino, B. G. Janesko, R. Gomperts, B. Mennucci, H. P. Hratchian, 
 J. V. Ortiz, A. F. Izmaylov, J. L. Sonnenberg, D. Williams-Young, 
 F. Ding, F. Lipparini, F. Egidi, J. Goings, B. Peng, A. Petrone, 
 T. Henderson, D. Ranasinghe, V. G. Zakrzewski, J. Gao, N. Rega, 
 G. Zheng, W. Liang, M. Hada, M. Ehara, K. Toyota, R. Fukuda, 
 J. Hasegawa, M. Ishida, T. Nakajima, Y. Honda, O. Kitao, H. Nakai, 
 T. Vreven, K. Throssell, J. A. Montgomery, Jr., J. E. Peralta, 
 F. Ogliaro, M. J. Bearpark, J. J. Heyd, E. N. Brothers, K. N. Kudin, 
 V. N. Staroverov, T. A. Keith, R. Kobayashi, J. Normand, 
 K. Raghavachari, A. P. Rendell, J. C. Burant, S. S. Iyengar, 
 J. Tomasi, M. Cossi, J. M. Millam, M. Klene, C. Adamo, R. Cammi, 
 J. W. Ochterski, R. L. Martin, K. Morokuma, O. Farkas, 
 J. B. Foresman, and D. J. Fox, Gaussian, Inc., Wallingford CT, 2016.
 
 ******************************************
 Gaussian 16:  EM64L-G16RevB.01 20-Dec-2017
                17-Sep-2023 
 ******************************************
 %nprocshared=30
 Will use up to   30 processors via shared memory.
 %mem=30GB
 %chk=molecule_2.chk
 ----------------------------------------------------------------------
 # opt freq ub3lyp/6-31+g(d) geom=connectivity empiricaldispersion=gd3 
 volume
 ----------------------------------------------------------------------
 1/18=20,19=15,26=3,38=1,57=2/1,3;
 2/9=110,12=2,17=6,18=5,40=1/2;
 3/5=1,6=6,7=11,11=2,25=1,30=1,71=1,74=-5,116=2,124=31/1,2,3;
 4//1;
 5/5=2,38=5/2;
 6/7=2,8=2,9=2,10=2,28=1,44=1/1,4;
 7//1,2,3,16;
 1/18=20,19=15,26=3/3(2);
 2/9=110/2;
 99//99;
 2/9=110/2;
 3/5=1,6=6,7=11,11=2,25=1,30=1,71=1,74=-5,116=2,124=31/1,2,3;
 4/5=5,16=3,69=1/1;
 5/5=2,38=5/2;
 7//1,2,3,16;
 1/18=20,19=15,26=3/3(-5);
 2/9=110/2;
 6/7=2,8=2,9=2,10=2,19=2,28=1,44=1/1,4;
 99/9=1/99;
 -------------------
 Title Card Required
 -------------------
 Symbolic Z-matrix:
 Charge =  0 Multiplicity = 2
 C                    -0.50277  -1.22378  -0.22974 
 C                     0.87313  -1.22683  -0.08049 
 C                     1.5986    0.        0.00164 
 C                     0.87313   1.22683  -0.08049 
 C                    -0.50277   1.22377  -0.22974 
 C                    -1.19378  0.        -0.30092 
 H                    -1.06642  -2.14885  -0.30505 
 H                     1.42537  -2.15973  -0.02627 
 H                     1.42537   2.15973  -0.02627 
 H                    -1.06642   2.14884  -0.30505 
 C                     2.98543  0.         0.15389 
 C                     4.25692   0.00001   0.31741 
 O                    -2.54755  0.        -0.49027 
 C                    -3.3369    0.00001   0.71122 
 H                    -3.13229   0.89676   1.31027 
 H                    -4.37895   0.        0.38759 
 H                    -3.13229  -0.89674   1.31028 
 

 GradGradGradGradGradGradGradGradGradGradGradGradGradGradGradGradGradGrad
 Berny optimization.
 Initialization pass.
                           ----------------------------
                           !    Initial Parameters    !
                           ! (Angstroms and Degrees)  !
 --------------------------                            --------------------------
 ! Name  Definition              Value          Derivative Info.                !
 --------------------------------------------------------------------------------
 ! R1    R(1,2)                  1.384          estimate D2E/DX2                !
 ! R2    R(1,6)                  1.4072         estimate D2E/DX2                !
 ! R3    R(1,7)                  1.0859         estimate D2E/DX2                !
 ! R4    R(2,3)                  1.4276         estimate D2E/DX2                !
 ! R5    R(2,8)                  1.0855         estimate D2E/DX2                !
 ! R6    R(3,4)                  1.4276         estimate D2E/DX2                !
 ! R7    R(3,11)                 1.3952         estimate D2E/DX2                !
 ! R8    R(4,5)                  1.384          estimate D2E/DX2                !
 ! R9    R(4,9)                  1.0855         estimate D2E/DX2                !
 ! R10   R(5,6)                  1.4072         estimate D2E/DX2                !
 ! R11   R(5,10)                 1.0859         estimate D2E/DX2                !
 ! R12   R(6,13)                 1.367          estimate D2E/DX2                !
 ! R13   R(11,12)                1.282          estimate D2E/DX2                !
 ! R14   R(13,14)                1.4376         estimate D2E/DX2                !
 ! R15   R(14,15)                1.0977         estimate D2E/DX2                !
 ! R16   R(14,16)                1.0911         estimate D2E/DX2                !
 ! R17   R(14,17)                1.0977         estimate D2E/DX2                !
 ! A1    A(2,1,6)              119.7069         estimate D2E/DX2                !
 ! A2    A(2,1,7)              121.4429         estimate D2E/DX2                !
 ! A3    A(6,1,7)              118.8467         estimate D2E/DX2                !
 ! A4    A(1,2,3)              120.631          estimate D2E/DX2                !
 ! A5    A(1,2,8)              120.8692         estimate D2E/DX2                !
 ! A6    A(3,2,8)              118.4995         estimate D2E/DX2                !
 ! A7    A(2,3,4)              118.4846         estimate D2E/DX2                !
 ! A8    A(2,3,11)             120.7574         estimate D2E/DX2                !
 ! A9    A(4,3,11)             120.7576         estimate D2E/DX2                !
 ! A10   A(3,4,5)              120.6309         estimate D2E/DX2                !
 ! A11   A(3,4,9)              118.4995         estimate D2E/DX2                !
 ! A12   A(5,4,9)              120.8693         estimate D2E/DX2                !
 ! A13   A(4,5,6)              119.7069         estimate D2E/DX2                !
 ! A14   A(4,5,10)             121.4428         estimate D2E/DX2                !
 ! A15   A(6,5,10)             118.8467         estimate D2E/DX2                !
 ! A16   A(1,6,5)              120.838          estimate D2E/DX2                !
 ! A17   A(1,6,13)             119.5595         estimate D2E/DX2                !
 ! A18   A(5,6,13)             119.5596         estimate D2E/DX2                !
 ! A19   A(6,13,14)            115.3417         estimate D2E/DX2                !
 ! A20   A(13,14,15)           110.718          estimate D2E/DX2                !
 ! A21   A(13,14,16)           106.0503         estimate D2E/DX2                !
 ! A22   A(13,14,17)           110.7181         estimate D2E/DX2                !
 ! A23   A(15,14,16)           109.8699         estimate D2E/DX2                !
 ! A24   A(15,14,17)           109.5617         estimate D2E/DX2                !
 ! A25   A(16,14,17)           109.87           estimate D2E/DX2                !
 ! A26   L(3,11,12,8,-1)       179.9975         estimate D2E/DX2                !
 ! A27   L(3,11,12,8,-2)       181.3143         estimate D2E/DX2                !
 ! D1    D(6,1,2,3)             -0.0163         estimate D2E/DX2                !
 ! D2    D(6,1,2,8)           -179.8284         estimate D2E/DX2                !
 ! D3    D(7,1,2,3)            179.288          estimate D2E/DX2                !
 ! D4    D(7,1,2,8)             -0.5241         estimate D2E/DX2                !
 ! D5    D(2,1,6,5)              0.3559         estimate D2E/DX2                !
 ! D6    D(2,1,6,13)           177.9637         estimate D2E/DX2                !
 ! D7    D(7,1,6,5)           -178.9665         estimate D2E/DX2                !
 ! D8    D(7,1,6,13)            -1.3587         estimate D2E/DX2                !
 ! D9    D(1,2,3,4)             -0.3117         estimate D2E/DX2                !
 ! D10   D(1,2,3,11)           179.9137         estimate D2E/DX2                !
 ! D11   D(8,2,3,4)            179.5049         estimate D2E/DX2                !
 ! D12   D(8,2,3,11)            -0.2697         estimate D2E/DX2                !
 ! D13   D(2,3,4,5)              0.3117         estimate D2E/DX2                !
 ! D14   D(2,3,4,9)           -179.5048         estimate D2E/DX2                !
 ! D15   D(11,3,4,5)          -179.9137         estimate D2E/DX2                !
 ! D16   D(11,3,4,9)             0.2698         estimate D2E/DX2                !
 ! D17   D(3,4,5,6)              0.0163         estimate D2E/DX2                !
 ! D18   D(3,4,5,10)          -179.288          estimate D2E/DX2                !
 ! D19   D(9,4,5,6)            179.8284         estimate D2E/DX2                !
 ! D20   D(9,4,5,10)             0.5241         estimate D2E/DX2                !
 ! D21   D(4,5,6,1)             -0.3559         estimate D2E/DX2                !
 ! D22   D(4,5,6,13)          -177.9637         estimate D2E/DX2                !
 ! D23   D(10,5,6,1)           178.9665         estimate D2E/DX2                !
 ! D24   D(10,5,6,13)            1.3587         estimate D2E/DX2                !
 ! D25   D(1,6,13,14)           91.181          estimate D2E/DX2                !
 ! D26   D(5,6,13,14)          -91.1804         estimate D2E/DX2                !
 ! D27   D(6,13,14,15)          60.8603         estimate D2E/DX2                !
 ! D28   D(6,13,14,16)         179.9999         estimate D2E/DX2                !
 ! D29   D(6,13,14,17)         -60.8603         estimate D2E/DX2                !
 --------------------------------------------------------------------------------
 Trust Radius=3.00D-01 FncErr=1.00D-07 GrdErr=1.00D-06 EigMax=2.50D+02 EigMin=1.00D-04
 Number of steps in this run=     83 maximum allowed number of steps=    102.
 GradGradGradGradGradGradGradGradGradGradGradGradGradGradGradGradGradGrad

                          Input orientation:                          
 ---------------------------------------------------------------------
 Center     Atomic      Atomic             Coordinates (Angstroms)
 Number     Number       Type             X           Y           Z
 ---------------------------------------------------------------------
      1          6           0       -0.502767   -1.223777   -0.229736
      2          6           0        0.873129   -1.226828   -0.080491
      3          6           0        1.598603    0.000000    0.001638
      4          6           0        0.873128    1.226827   -0.080494
      5          6           0       -0.502768    1.223773   -0.229739
      6          6           0       -1.193775   -0.000002   -0.300922
      7          1           0       -1.066419   -2.148847   -0.305046
      8          1           0        1.425373   -2.159727   -0.026267
      9          1           0        1.425371    2.159726   -0.026273
     10          1           0       -1.066421    2.148843   -0.305052
     11          6           0        2.985431   -0.000001    0.153893
     12          6           0        4.256922    0.000005    0.317411
     13          8           0       -2.547547   -0.000003   -0.490274
     14          6           0       -3.336903    0.000005    0.711223
     15          1           0       -3.132292    0.896757    1.310272
     16          1           0       -4.378947    0.000004    0.387586
     17          1           0       -3.132293   -0.896738    1.310284
 ---------------------------------------------------------------------
                    Distance matrix (angstroms):
                    1          2          3          4          5
     1  C    0.000000
     2  C    1.383970   0.000000
     3  C    2.442728   1.427643   0.000000
     4  C    2.814395   2.453655   1.427643   0.000000
     5  C    2.447550   2.814394   2.442727   1.383970   0.000000
     6  C    1.407190   2.413666   2.808722   2.413666   1.407190
     7  H    1.085877   2.159257   3.437141   3.899672   3.420225
     8  H    2.152934   1.085456   2.166843   3.431714   3.899641
     9  H    3.899642   3.431714   2.166842   1.085455   2.152934
    10  H    3.420226   3.899671   3.437141   2.159257   1.085878
    11  C    3.716494   2.453948   1.395161   2.453950   3.716494
    12  C    4.944861   3.621257   2.677008   3.621254   4.944859
    13  O    2.397213   3.657054   4.175229   3.657055   2.397212
    14  C    3.227286   4.456041   4.986254   4.456037   3.227280
    15  H    3.712505   4.742070   4.989796   4.252830   3.064795
    16  H    4.111386   5.413734   5.989997   5.413731   4.111382
    17  H    3.064804   4.252837   4.989797   4.742066   3.712498
                    6          7          8          9         10
     6  C    0.000000
     7  H    2.152620   0.000000
     8  H    3.405846   2.507362   0.000000
     9  H    3.405845   4.985031   4.319453   0.000000
    10  H    2.152620   4.297690   4.985031   2.507362   0.000000
    11  C    4.203881   4.609301   2.670329   2.670331   4.609302
    12  C    5.485657   5.774338   3.577740   3.577736   5.774335
    13  O    1.366950   2.616406   4.545746   4.545746   2.616406
    14  C    2.370113   3.287167   5.280872   5.280866   3.287158
    15  H    2.675438   4.019053   5.648074   4.914645   2.905996
    16  H    3.258737   4.008758   6.206919   6.206914   4.008751
    17  H    2.675439   2.906012   4.914655   5.648067   4.019042
                   11         12         13         14         15
    11  C    0.000000
    12  C    1.281962   0.000000
    13  O    5.570350   6.852237   0.000000
    14  C    6.346851   7.604030   1.437594   0.000000
    15  H    6.290304   7.509356   2.094772   1.097675   0.000000
    16  H    7.368085   8.636154   2.030927   1.091145   1.791554
    17  H    6.290304   7.509357   2.094772   1.097674   1.793495
                   16         17
    16  H    0.000000
    17  H    1.791554   0.000000
 Stoichiometry    C9H7O(2)
 Framework group  C1[X(C9H7O)]
 Deg. of freedom    45
 Full point group                 C1      NOp   1
 Largest Abelian subgroup         C1      NOp   1
 Largest concise Abelian subgroup C1      NOp   1
                         Standard orientation:                         
 ---------------------------------------------------------------------
 Center     Atomic      Atomic             Coordinates (Angstroms)
 Number     Number       Type             X           Y           Z
 ---------------------------------------------------------------------
      1          6           0        0.502767    1.223777   -0.229736
      2          6           0       -0.873129    1.226828   -0.080491
      3          6           0       -1.598603    0.000000    0.001638
      4          6           0       -0.873128   -1.226827   -0.080494
      5          6           0        0.502768   -1.223773   -0.229739
      6          6           0        1.193775    0.000002   -0.300922
      7          1           0        1.066419    2.148847   -0.305046
      8          1           0       -1.425373    2.159727   -0.026267
      9          1           0       -1.425371   -2.159726   -0.026273
     10          1           0        1.066421   -2.148843   -0.305052
     11          6           0       -2.985431    0.000001    0.153893
     12          6           0       -4.256922   -0.000005    0.317411
     13          8           0        2.547547    0.000003   -0.490274
     14          6           0        3.336903   -0.000005    0.711223
     15          1           0        3.132292   -0.896757    1.310272
     16          1           0        4.378947   -0.000004    0.387586
     17          1           0        3.132293    0.896738    1.310284
 ---------------------------------------------------------------------
 Rotational constants (GHZ):           4.5969583           0.7257126           0.6552781
 Standard basis: 6-31+G(d) (6D, 7F)
 There are   204 symmetry adapted cartesian basis functions of A   symmetry.
 There are   204 symmetry adapted basis functions of A   symmetry.
   204 basis functions,   348 primitive gaussians,   204 cartesian basis functions
    35 alpha electrons       34 beta electrons
       nuclear repulsion energy       443.7867638684 Hartrees.
 NAtoms=   17 NActive=   17 NUniq=   17 SFac= 1.00D+00 NAtFMM=   60 NAOKFM=F Big=F
 Integral buffers will be    131072 words long.
 Raffenetti 2 integral format.
 Two-electron integral symmetry is turned on.
 Nuclear repulsion after empirical dispersion term =      443.7753496082 Hartrees.
 One-electron integrals computed using PRISM.
 NBasis=   204 RedAO= T EigKep=  4.07D-06  NBF=   204
 NBsUse=   203 1.00D-06 EigRej=  2.33D-07 NBFU=   203
 ExpMin= 4.38D-02 ExpMax= 5.48D+03 ExpMxC= 8.25D+02 IAcc=3 IRadAn=         5 AccDes= 0.00D+00
 Harris functional with IExCor=  402 and IRadAn=       5 diagonalized for initial guess.
 HarFok:  IExCor=  402 AccDes= 0.00D+00 IRadAn=         5 IDoV= 1 UseB2=F ITyADJ=14
 ICtDFT=  3500011 ScaDFX=  1.000000  1.000000  1.000000  1.000000
 FoFCou: FMM=F IPFlag=           0 FMFlag=      100000 FMFlg1=           0
         NFxFlg=           0 DoJE=T BraDBF=F KetDBF=T FulRan=T
         wScrn=  0.000000 ICntrl=       500 IOpCl=  0 I1Cent=   200000004 NGrid=           0
         NMat0=    1 NMatS0=      1 NMatT0=    0 NMatD0=    1 NMtDS0=    0 NMtDT0=    0
 Petite list used in FoFCou.
 Initial guess <Sx>= 0.0000 <Sy>= 0.0000 <Sz>= 0.5000 <S**2>= 0.7500 S= 0.5000
 Requested convergence on RMS density matrix=1.00D-08 within 128 cycles.
 Requested convergence on MAX density matrix=1.00D-06.
 Requested convergence on             energy=1.00D-06.
 No special actions if energy rises.
 Restarting incremental Fock formation.
 SCF Done:  E(UB3LYP) =  -422.237191037     A.U. after   25 cycles
            NFock= 25  Conv=0.88D-08     -V/T= 2.0096
 <Sx>= 0.0000 <Sy>= 0.0000 <Sz>= 0.5000 <S**2>= 0.7639 S= 0.5069
 <L.S>= 0.000000000000E+00
 Annihilation of the first spin contaminant:
 S**2 before annihilation     0.7639,   after     0.7501

 **********************************************************************

            Population analysis using the SCF Density.

 **********************************************************************

 Orbital symmetries:
 Alpha Orbitals:
       Occupied  (A) (A) (A) (A) (A) (A) (A) (A) (A) (A) (A) (A)
                 (A) (A) (A) (A) (A) (A) (A) (A) (A) (A) (A) (A)
                 (A) (A) (A) (A) (A) (A) (A) (A) (A) (A) (A)
       Virtual   (A) (A) (A) (A) (A) (A) (A) (A) (A) (A) (A) (A)
                 (A) (A) (A) (A) (A) (A) (A) (A) (A) (A) (A) (A)
                 (A) (A) (A) (A) (A) (A) (A) (A) (A) (A) (A) (A)
                 (A) (A) (A) (A) (A) (A) (A) (A) (A) (A) (A) (A)
                 (A) (A) (A) (A) (A) (A) (A) (A) (A) (A) (A) (A)
                 (A) (A) (A) (A) (A) (A) (A) (A) (A) (A) (A) (A)
                 (A) (A) (A) (A) (A) (A) (A) (A) (A) (A) (A) (A)
                 (A) (A) (A) (A) (A) (A) (A) (A) (A) (A) (A) (A)
                 (A) (A) (A) (A) (A) (A) (A) (A) (A) (A) (A) (A)
                 (A) (A) (A) (A) (A) (A) (A) (A) (A) (A) (A) (A)
                 (A) (A) (A) (A) (A) (A) (A) (A) (A) (A) (A) (A)
                 (A) (A) (A) (A) (A) (A) (A) (A) (A) (A) (A) (A)
                 (A) (A) (A) (A) (A) (A) (A) (A) (A) (A) (A) (A)
                 (A) (A) (A) (A) (A) (A) (A) (A) (A) (A) (A) (A)
 Beta  Orbitals:
       Occupied  (A) (A) (A) (A) (A) (A) (A) (A) (A) (A) (A) (A)
                 (A) (A) (A) (A) (A) (A) (A) (A) (A) (A) (A) (A)
                 (A) (A) (A) (A) (A) (A) (A) (A) (A) (A)
       Virtual   (A) (A) (A) (A) (A) (A) (A) (A) (A) (A) (A) (A)
                 (A) (A) (A) (A) (A) (A) (A) (A) (A) (A) (A) (A)
                 (A) (A) (A) (A) (A) (A) (A) (A) (A) (A) (A) (A)
                 (A) (A) (A) (A) (A) (A) (A) (A) (A) (A) (A) (A)
                 (A) (A) (A) (A) (A) (A) (A) (A) (A) (A) (A) (A)
                 (A) (A) (A) (A) (A) (A) (A) (A) (A) (A) (A) (A)
                 (A) (A) (A) (A) (A) (A) (A) (A) (A) (A) (A) (A)
                 (A) (A) (A) (A) (A) (A) (A) (A) (A) (A) (A) (A)
                 (A) (A) (A) (A) (A) (A) (A) (A) (A) (A) (A) (A)
                 (A) (A) (A) (A) (A) (A) (A) (A) (A) (A) (A) (A)
                 (A) (A) (A) (A) (A) (A) (A) (A) (A) (A) (A) (A)
                 (A) (A) (A) (A) (A) (A) (A) (A) (A) (A) (A) (A)
                 (A) (A) (A) (A) (A) (A) (A) (A) (A) (A) (A) (A)
                 (A) (A) (A) (A) (A) (A) (A) (A) (A) (A) (A) (A)
                 (A)
 The electronic state is 2-A.
 Alpha  occ. eigenvalues --  -19.20833 -10.29977 -10.27018 -10.25556 -10.24402
 Alpha  occ. eigenvalues --  -10.24401 -10.23400 -10.23400 -10.20550 -10.20110
 Alpha  occ. eigenvalues --   -1.09533  -0.90193  -0.81614  -0.79618  -0.75400
 Alpha  occ. eigenvalues --   -0.71749  -0.65737  -0.64252  -0.57569  -0.54893
 Alpha  occ. eigenvalues --   -0.52094  -0.49784  -0.48258  -0.47062  -0.46544
 Alpha  occ. eigenvalues --   -0.44036  -0.41815  -0.39780  -0.38753  -0.33180
 Alpha  occ. eigenvalues --   -0.31378  -0.30212  -0.27006  -0.26984  -0.25399
 Alpha virt. eigenvalues --   -0.07096  -0.05230  -0.01074   0.00806   0.00955
 Alpha virt. eigenvalues --    0.01829   0.02690   0.03526   0.03622   0.04088
 Alpha virt. eigenvalues --    0.04634   0.05401   0.06577   0.06935   0.07959
 Alpha virt. eigenvalues --    0.08031   0.08796   0.09481   0.10612   0.10867
 Alpha virt. eigenvalues --    0.11644   0.12572   0.13008   0.13486   0.13767
 Alpha virt. eigenvalues --    0.13906   0.14798   0.15051   0.16703   0.16895
 Alpha virt. eigenvalues --    0.17459   0.18108   0.18925   0.19211   0.20289
 Alpha virt. eigenvalues --    0.21021   0.21175   0.22751   0.23114   0.23566
 Alpha virt. eigenvalues --    0.23851   0.24052   0.25525   0.25843   0.25935
 Alpha virt. eigenvalues --    0.26531   0.27635   0.29284   0.29631   0.31233
 Alpha virt. eigenvalues --    0.32183   0.33050   0.34677   0.35017   0.36748
 Alpha virt. eigenvalues --    0.37320   0.38615   0.40370   0.53713   0.54862
 Alpha virt. eigenvalues --    0.58975   0.62332   0.65300   0.65375   0.66130
 Alpha virt. eigenvalues --    0.66608   0.68643   0.68956   0.69925   0.70718
 Alpha virt. eigenvalues --    0.73967   0.74631   0.74688   0.75183   0.76635
 Alpha virt. eigenvalues --    0.78390   0.79603   0.80091   0.81698   0.83352
 Alpha virt. eigenvalues --    0.86487   0.87113   0.89966   0.90396   0.92109
 Alpha virt. eigenvalues --    0.92884   0.95885   0.96413   0.99615   1.02013
 Alpha virt. eigenvalues --    1.04567   1.04652   1.08813   1.12671   1.13531
 Alpha virt. eigenvalues --    1.18747   1.20037   1.21037   1.21845   1.23971
 Alpha virt. eigenvalues --    1.25693   1.27802   1.29361   1.32114   1.35877
 Alpha virt. eigenvalues --    1.38655   1.39944   1.40007   1.41798   1.45521
 Alpha virt. eigenvalues --    1.48589   1.49981   1.56207   1.57981   1.59196
 Alpha virt. eigenvalues --    1.71346   1.71563   1.75552   1.79007   1.79693
 Alpha virt. eigenvalues --    1.83855   1.88212   1.89008   1.92262   1.92579
 Alpha virt. eigenvalues --    1.93366   1.95327   2.01282   2.05865   2.06809
 Alpha virt. eigenvalues --    2.07687   2.09513   2.12859   2.14169   2.14974
 Alpha virt. eigenvalues --    2.16622   2.23038   2.24345   2.25322   2.27777
 Alpha virt. eigenvalues --    2.36726   2.40678   2.42637   2.49580   2.56579
 Alpha virt. eigenvalues --    2.60103   2.62783   2.63046   2.70880   2.72714
 Alpha virt. eigenvalues --    2.77126   2.78486   2.82041   2.95250   3.03940
 Alpha virt. eigenvalues --    3.14666   3.21039   3.41287   4.15820   4.20864
 Alpha virt. eigenvalues --    4.22348   4.25147   4.31030   4.32711   4.34434
 Alpha virt. eigenvalues --    4.41768   4.62230   4.80729
  Beta  occ. eigenvalues --  -19.20784 -10.29691 -10.26988 -10.25599 -10.24205
  Beta  occ. eigenvalues --  -10.24204 -10.23491 -10.23491 -10.20086 -10.19620
  Beta  occ. eigenvalues --   -1.09352  -0.89849  -0.81019  -0.79451  -0.74444
  Beta  occ. eigenvalues --   -0.70397  -0.65490  -0.63737  -0.57369  -0.54670
  Beta  occ. eigenvalues --   -0.51991  -0.49362  -0.48087  -0.46997  -0.46517
  Beta  occ. eigenvalues --   -0.43818  -0.40960  -0.39677  -0.38170  -0.31317
  Beta  occ. eigenvalues --   -0.30600  -0.29729  -0.26215  -0.25951
  Beta virt. eigenvalues --   -0.17220  -0.05089  -0.04512  -0.01054   0.00843
  Beta virt. eigenvalues --    0.00961   0.01885   0.02966   0.03820   0.04000
  Beta virt. eigenvalues --    0.04168   0.05139   0.05836   0.06575   0.07221
  Beta virt. eigenvalues --    0.07984   0.08708   0.08905   0.09609   0.10713
  Beta virt. eigenvalues --    0.11526   0.11701   0.12673   0.13063   0.13687
  Beta virt. eigenvalues --    0.13811   0.14167   0.14915   0.15408   0.16751
  Beta virt. eigenvalues --    0.17120   0.17458   0.18334   0.19204   0.20232
  Beta virt. eigenvalues --    0.20470   0.21183   0.21284   0.22787   0.23274
  Beta virt. eigenvalues --    0.23721   0.23849   0.24183   0.25733   0.26036
  Beta virt. eigenvalues --    0.26168   0.26788   0.27652   0.29403   0.29795
  Beta virt. eigenvalues --    0.31287   0.32558   0.33154   0.34940   0.35073
  Beta virt. eigenvalues --    0.36871   0.37452   0.38832   0.40522   0.53800
  Beta virt. eigenvalues --    0.55230   0.59349   0.62530   0.65521   0.66007
  Beta virt. eigenvalues --    0.66060   0.66649   0.68804   0.69739   0.70738
  Beta virt. eigenvalues --    0.71719   0.74089   0.74704   0.74806   0.76668
  Beta virt. eigenvalues --    0.77187   0.78438   0.79921   0.80768   0.81978
  Beta virt. eigenvalues --    0.84376   0.87106   0.87350   0.89985   0.90496
  Beta virt. eigenvalues --    0.92240   0.93201   0.95913   0.96793   0.99832
  Beta virt. eigenvalues --    1.02106   1.04672   1.04713   1.09127   1.12917
  Beta virt. eigenvalues --    1.13709   1.18897   1.20408   1.21393   1.22130
  Beta virt. eigenvalues --    1.24166   1.25959   1.28732   1.30534   1.32767
  Beta virt. eigenvalues --    1.35919   1.38963   1.40265   1.40373   1.42131
  Beta virt. eigenvalues --    1.45865   1.48827   1.50114   1.58106   1.58876
  Beta virt. eigenvalues --    1.61957   1.71610   1.71807   1.76813   1.79156
  Beta virt. eigenvalues --    1.80382   1.84160   1.89881   1.90742   1.92651
  Beta virt. eigenvalues --    1.92979   1.94677   1.95363   2.01632   2.06176
  Beta virt. eigenvalues --    2.07277   2.07985   2.09864   2.13521   2.14406
  Beta virt. eigenvalues --    2.15684   2.17314   2.23245   2.24539   2.25617
  Beta virt. eigenvalues --    2.28110   2.36896   2.41548   2.42924   2.50031
  Beta virt. eigenvalues --    2.57000   2.60552   2.63084   2.63285   2.72783
  Beta virt. eigenvalues --    2.73062   2.77441   2.78613   2.82247   2.95397
  Beta virt. eigenvalues --    3.04272   3.14799   3.21633   3.41525   4.16988
  Beta virt. eigenvalues --    4.21013   4.22704   4.25443   4.31123   4.32895
  Beta virt. eigenvalues --    4.34600   4.42283   4.62914   4.81218
          Condensed to atoms (all electrons):
               1          2          3          4          5          6
     1  C    9.829915  -1.896940  -0.223811   0.570931  -2.321303  -0.501817
     2  C   -1.896940  10.597817  -0.139724  -3.086167   0.570938   0.526981
     3  C   -0.223811  -0.139724   8.285385  -0.139726  -0.223809  -0.914565
     4  C    0.570931  -3.086167  -0.139726  10.597758  -1.896883   0.526977
     5  C   -2.321303   0.570938  -0.223809  -1.896883   9.829832  -0.501801
     6  C   -0.501817   0.526981  -0.914565   0.526977  -0.501801   7.183578
     7  H    0.343575  -0.075869   0.003382  -0.013722   0.027535   0.013078
     8  H   -0.055603   0.285065   0.023043   0.047660  -0.020931   0.004740
     9  H   -0.020932   0.047660   0.023044   0.285063  -0.055601   0.004740
    10  H    0.027534  -0.013722   0.003382  -0.075867   0.343574   0.013078
    11  C    0.553297  -0.802555  -2.793896  -0.802603   0.553311  -0.569239
    12  C   -0.406022   0.307916   2.461358   0.307977  -0.406038   0.242438
    13  O   -0.237454   0.049389  -0.019850   0.049389  -0.237452   0.487799
    14  C    0.083570  -0.028899   0.015033  -0.028898   0.083574  -0.333062
    15  H   -0.051035   0.017498  -0.000014  -0.023779   0.058503   0.000230
    16  H    0.007003  -0.001751   0.000704  -0.001751   0.007003  -0.008926
    17  H    0.058504  -0.023779  -0.000014   0.017497  -0.051035   0.000230
               7          8          9         10         11         12
     1  C    0.343575  -0.055603  -0.020932   0.027534   0.553297  -0.406022
     2  C   -0.075869   0.285065   0.047660  -0.013722  -0.802555   0.307916
     3  C    0.003382   0.023043   0.023044   0.003382  -2.793896   2.461358
     4  C   -0.013722   0.047660   0.285063  -0.075867  -0.802603   0.307977
     5  C    0.027535  -0.020931  -0.055601   0.343574   0.553311  -0.406038
     6  C    0.013078   0.004740   0.004740   0.013078  -0.569239   0.242438
     7  H    0.503813  -0.003959   0.000014  -0.000132  -0.000242  -0.001225
     8  H   -0.003959   0.491721  -0.000130   0.000014   0.018105  -0.008247
     9  H    0.000014  -0.000130   0.491721  -0.003959   0.018104  -0.008247
    10  H   -0.000132   0.000014  -0.003959   0.503813  -0.000241  -0.001225
    11  C   -0.000242   0.018105   0.018104  -0.000241  18.696805  -9.893963
    12  C   -0.001225  -0.008247  -0.008247  -0.001225  -9.893963  14.427656
    13  O   -0.002266  -0.000587  -0.000587  -0.002266   0.003859  -0.002423
    14  C   -0.000005  -0.000227  -0.000227  -0.000005   0.002820  -0.000394
    15  H    0.000032   0.000000   0.000007   0.000050  -0.000196   0.000024
    16  H   -0.000053   0.000000   0.000000  -0.000053   0.000039  -0.000001
    17  H    0.000050   0.000007   0.000000   0.000032  -0.000196   0.000024
              13         14         15         16         17
     1  C   -0.237454   0.083570  -0.051035   0.007003   0.058504
     2  C    0.049389  -0.028899   0.017498  -0.001751  -0.023779
     3  C   -0.019850   0.015033  -0.000014   0.000704  -0.000014
     4  C    0.049389  -0.028898  -0.023779  -0.001751   0.017497
     5  C   -0.237452   0.083574   0.058503   0.007003  -0.051035
     6  C    0.487799  -0.333062   0.000230  -0.008926   0.000230
     7  H   -0.002266  -0.000005   0.000032  -0.000053   0.000050
     8  H   -0.000587  -0.000227   0.000000   0.000000   0.000007
     9  H   -0.000587  -0.000227   0.000007   0.000000   0.000000
    10  H   -0.002266  -0.000005   0.000050  -0.000053   0.000032
    11  C    0.003859   0.002820  -0.000196   0.000039  -0.000196
    12  C   -0.002423  -0.000394   0.000024  -0.000001   0.000024
    13  O    8.317672   0.125832  -0.048772  -0.049486  -0.048772
    14  C    0.125832   5.280653   0.384651   0.395333   0.384650
    15  H   -0.048772   0.384651   0.530075  -0.028065  -0.041900
    16  H   -0.049486   0.395333  -0.028065   0.491961  -0.028065
    17  H   -0.048772   0.384650  -0.041900  -0.028065   0.530075
          Atomic-Atomic Spin Densities.
               1          2          3          4          5          6
     1  C   -0.013090  -0.078456  -0.014403  -0.068096   0.079536  -0.035578
     2  C   -0.078456   0.183125   0.059052   0.112982  -0.068094  -0.017790
     3  C   -0.014403   0.059052  -0.131780   0.059051  -0.014402  -0.000853
     4  C   -0.068096   0.112982   0.059051   0.183135  -0.078463  -0.017788
     5  C    0.079536  -0.068094  -0.014402  -0.078463  -0.013086  -0.035579
     6  C   -0.035578  -0.017790  -0.000853  -0.017788  -0.035579   0.391339
     7  H    0.000441  -0.000865   0.000217   0.000300  -0.000479   0.000822
     8  H   -0.000120   0.005025  -0.003773  -0.000447  -0.000152   0.000815
     9  H   -0.000152  -0.000447  -0.003773   0.005025  -0.000120   0.000815
    10  H   -0.000479   0.000300   0.000217  -0.000865   0.000441   0.000822
    11  C    0.071585  -0.067898   0.064713  -0.067898   0.071586   0.006915
    12  C   -0.048204   0.011583  -0.053882   0.011584  -0.048205  -0.000478
    13  O    0.001081  -0.000815   0.001019  -0.000815   0.001081  -0.015110
    14  C    0.012964   0.003951   0.000987   0.003951   0.012964  -0.064988
    15  H   -0.000334  -0.000087  -0.000022  -0.000115  -0.000595   0.002421
    16  H   -0.000432  -0.000050   0.000002  -0.000050  -0.000432   0.002573
    17  H   -0.000595  -0.000115  -0.000022  -0.000087  -0.000334   0.002421
               7          8          9         10         11         12
     1  C    0.000441  -0.000120  -0.000152  -0.000479   0.071585  -0.048204
     2  C   -0.000865   0.005025  -0.000447   0.000300  -0.067898   0.011583
     3  C    0.000217  -0.003773  -0.003773   0.000217   0.064713  -0.053882
     4  C    0.000300  -0.000447   0.005025  -0.000865  -0.067898   0.011584
     5  C   -0.000479  -0.000152  -0.000120   0.000441   0.071586  -0.048205
     6  C    0.000822   0.000815   0.000815   0.000822   0.006915  -0.000478
     7  H    0.002533   0.000042   0.000000   0.000001  -0.000033  -0.000067
     8  H    0.000042  -0.007054   0.000003   0.000000  -0.000736  -0.000634
     9  H    0.000000   0.000003  -0.007054   0.000042  -0.000736  -0.000634
    10  H    0.000001   0.000000   0.000042   0.002533  -0.000033  -0.000067
    11  C   -0.000033  -0.000736  -0.000736  -0.000033  -0.043678   0.305700
    12  C   -0.000067  -0.000634  -0.000634  -0.000067   0.305700   0.203030
    13  O    0.000058   0.000006   0.000006   0.000058   0.000075   0.000012
    14  C   -0.000037  -0.000007  -0.000007  -0.000037  -0.000423   0.000161
    15  H    0.000000   0.000000   0.000000   0.000002   0.000003  -0.000001
    16  H    0.000001   0.000000   0.000000   0.000001   0.000000   0.000000
    17  H    0.000002   0.000000   0.000000   0.000000   0.000003  -0.000001
              13         14         15         16         17
     1  C    0.001081   0.012964  -0.000334  -0.000432  -0.000595
     2  C   -0.000815   0.003951  -0.000087  -0.000050  -0.000115
     3  C    0.001019   0.000987  -0.000022   0.000002  -0.000022
     4  C   -0.000815   0.003951  -0.000115  -0.000050  -0.000087
     5  C    0.001081   0.012964  -0.000595  -0.000432  -0.000334
     6  C   -0.015110  -0.064988   0.002421   0.002573   0.002421
     7  H    0.000058  -0.000037   0.000000   0.000001   0.000002
     8  H    0.000006  -0.000007   0.000000   0.000000   0.000000
     9  H    0.000006  -0.000007   0.000000   0.000000   0.000000
    10  H    0.000058  -0.000037   0.000002   0.000001   0.000000
    11  C    0.000075  -0.000423   0.000003   0.000000   0.000003
    12  C    0.000012   0.000161  -0.000001   0.000000  -0.000001
    13  O    0.020622   0.000572   0.000047   0.000265   0.000047
    14  C    0.000572   0.037961  -0.001193  -0.001923  -0.001193
    15  H    0.000047  -0.001193  -0.000536   0.000168   0.000032
    16  H    0.000265  -0.001923   0.000168   0.000101   0.000168
    17  H    0.000047  -0.001193   0.000032   0.000168  -0.000536
 Mulliken charges and spin densities:
               1          2
     1  C    0.240588  -0.094332
     2  C   -0.333856   0.141402
     3  C   -0.359921  -0.037653
     4  C   -0.333854   0.141404
     5  C    0.240585  -0.094332
     6  C   -0.174457   0.220781
     7  H    0.205995   0.002933
     8  H    0.219333  -0.007032
     9  H    0.219333  -0.007032
    10  H    0.205995   0.002933
    11  C    1.016792   0.339145
    12  C   -1.019606   0.379899
    13  O   -0.384024   0.008208
    14  C   -0.364397   0.003703
    15  H    0.202694  -0.000209
    16  H    0.216107   0.000392
    17  H    0.202694  -0.000209
 Sum of Mulliken charges =   0.00000   1.00000
 Mulliken charges and spin densities with hydrogens summed into heavy atoms:
               1          2
     1  C    0.446583  -0.091400
     2  C   -0.114524   0.134371
     3  C   -0.359921  -0.037653
     4  C   -0.114522   0.134372
     5  C    0.446580  -0.091400
     6  C   -0.174457   0.220781
    11  C    1.016792   0.339145
    12  C   -1.019606   0.379899
    13  O   -0.384024   0.008208
    14  C    0.257097   0.003676
 Electronic spatial extent (au):  <R**2>=           1680.7343
 Charge=              0.0000 electrons
 Dipole moment (field-independent basis, Debye):
    X=              7.4903    Y=              0.0000    Z=              0.6854  Tot=              7.5216
 Quadrupole moment (field-independent basis, Debye-Ang):
   XX=            -86.2481   YY=            -52.2864   ZZ=            -61.1957
   XY=             -0.0001   XZ=              7.6184   YZ=              0.0000
 Traceless Quadrupole moment (field-independent basis, Debye-Ang):
   XX=            -19.6714   YY=             14.2904   ZZ=              5.3811
   XY=             -0.0001   XZ=              7.6184   YZ=              0.0000
 Octapole moment (field-independent basis, Debye-Ang**2):
  XXX=            237.7719  YYY=              0.0000  ZZZ=             -1.1146  XYY=             14.1882
  XXY=              0.0001  XXZ=             -1.2674  XZZ=             13.2019  YZZ=              0.0000
  YYZ=             -1.8527  XYZ=              0.0000
 Hexadecapole moment (field-independent basis, Debye-Ang**3):
 XXXX=          -2763.0085 YYYY=           -296.7804 ZZZZ=           -124.2097 XXXY=             -0.0014
 XXXZ=            125.1144 YYYX=             -0.0001 YYYZ=              0.0001 ZZZX=              8.6536
 ZZZY=              0.0000 XXYY=           -395.3815 XXZZ=           -364.4982 YYZZ=            -81.4208
 XXYZ=              0.0001 YYXZ=              3.1783 ZZXY=              0.0000
 N-N= 4.437753496082D+02 E-N=-1.866386158332D+03  KE= 4.182182453878D+02
                          Isotropic Fermi Contact Couplings
        Atom                 a.u.       MegaHertz       Gauss      10(-4) cm-1
     1  C(13)             -0.01198     -13.47022      -4.80651      -4.49318
     2  C(13)              0.01419      15.95211       5.69211       5.32105
     3  C(13)             -0.01241     -13.95344      -4.97893      -4.65437
     4  C(13)              0.01419      15.95211       5.69211       5.32105
     5  C(13)             -0.01198     -13.47021      -4.80651      -4.49318
     6  C(13)              0.02111      23.73316       8.46858       7.91653
     7  H(1)               0.00081       3.63529       1.29716       1.21260
     8  H(1)              -0.00231     -10.34662      -3.69193      -3.45126
     9  H(1)              -0.00231     -10.34662      -3.69193      -3.45126
    10  H(1)               0.00081       3.63528       1.29716       1.21260
    11  C(13)              0.01910      21.47027       7.66113       7.16171
    12  C(13)              0.02390      26.87376       9.58923       8.96412
    13  O(17)              0.02099     -12.72422      -4.54032      -4.24434
    14  C(13)              0.01317      14.80742       5.28366       4.93922
    15  H(1)              -0.00019      -0.85721      -0.30587      -0.28593
    16  H(1)              -0.00001      -0.03430      -0.01224      -0.01144
    17  H(1)              -0.00019      -0.85719      -0.30587      -0.28593
 --------------------------------------------------------
       Center         ----  Spin Dipole Couplings  ----
                      3XX-RR        3YY-RR        3ZZ-RR
 --------------------------------------------------------
     1   Atom        0.031083      0.027123     -0.058207
     2   Atom       -0.072298     -0.074028      0.146326
     3   Atom        0.011102     -0.003426     -0.007676
     4   Atom       -0.072298     -0.074028      0.146326
     5   Atom        0.031083      0.027123     -0.058206
     6   Atom       -0.105626     -0.111972      0.217598
     7   Atom        0.001663      0.001417     -0.003079
     8   Atom       -0.004404      0.008759     -0.004354
     9   Atom       -0.004404      0.008759     -0.004354
    10   Atom        0.001663      0.001417     -0.003079
    11   Atom       -0.163403     -0.220596      0.383999
    12   Atom       -0.177767     -0.224112      0.401879
    13   Atom       -0.036186     -0.036804      0.072991
    14   Atom        0.006193     -0.009333      0.003140
    15   Atom        0.000923     -0.001022      0.000099
    16   Atom        0.002948     -0.001840     -0.001108
    17   Atom        0.000923     -0.001022      0.000099
 --------------------------------------------------------
                        XY            XZ            YZ
 --------------------------------------------------------
     1   Atom       -0.001909     -0.009272     -0.001379
     2   Atom        0.001239      0.025216      0.000824
     3   Atom        0.000000     -0.003591      0.000000
     4   Atom       -0.001239      0.025216     -0.000824
     5   Atom        0.001909     -0.009272      0.001379
     6   Atom        0.000000      0.022946      0.000000
     7   Atom       -0.001686     -0.000505      0.000140
     8   Atom       -0.004469      0.000026      0.000484
     9   Atom        0.004469      0.000026     -0.000484
    10   Atom        0.001686     -0.000505     -0.000140
    11   Atom        0.000000      0.057261     -0.000001
    12   Atom        0.000000      0.111387     -0.000001
    13   Atom        0.000000     -0.030025      0.000001
    14   Atom        0.000000      0.012609      0.000000
    15   Atom       -0.001284      0.001764     -0.001903
    16   Atom        0.000000      0.000530      0.000000
    17   Atom        0.001284      0.001764      0.001903
 --------------------------------------------------------


 ---------------------------------------------------------------------------------
              Anisotropic Spin Dipole Couplings in Principal Axis System
 ---------------------------------------------------------------------------------

       Atom             a.u.   MegaHertz   Gauss  10(-4) cm-1        Axes

              Baa    -0.0592    -7.942    -2.834    -2.649  0.1025  0.0182  0.9946
     1 C(13)  Bbb     0.0266     3.567     1.273     1.190  0.3035  0.9516 -0.0487
              Bcc     0.0326     4.375     1.561     1.459  0.9473 -0.3069 -0.0921
 
              Baa    -0.0759   -10.181    -3.633    -3.396  0.8453 -0.5260 -0.0940
     2 C(13)  Bbb    -0.0733    -9.840    -3.511    -3.282  0.5222  0.8505 -0.0631
              Bcc     0.1492    20.021     7.144     6.678  0.1131  0.0043  0.9936
 
              Baa    -0.0083    -1.119    -0.399    -0.373  0.1816  0.0000  0.9834
     3 C(13)  Bbb    -0.0034    -0.460    -0.164    -0.153  0.0000  1.0000  0.0000
              Bcc     0.0118     1.579     0.563     0.527  0.9834  0.0000 -0.1816
 
              Baa    -0.0759   -10.181    -3.633    -3.396  0.8453  0.5260 -0.0940
     4 C(13)  Bbb    -0.0733    -9.840    -3.511    -3.282 -0.5222  0.8505  0.0631
              Bcc     0.1492    20.021     7.144     6.678  0.1131 -0.0043  0.9936
 
              Baa    -0.0592    -7.942    -2.834    -2.649  0.1025 -0.0182  0.9946
     5 C(13)  Bbb     0.0266     3.567     1.273     1.190 -0.3035  0.9516  0.0487
              Bcc     0.0326     4.375     1.561     1.459  0.9473  0.3069 -0.0921
 
              Baa    -0.1120   -15.026    -5.361    -5.012  0.0000  1.0000  0.0000
     6 C(13)  Bbb    -0.1072   -14.391    -5.135    -4.800  0.9975  0.0000 -0.0705
              Bcc     0.2192    29.417    10.497     9.812  0.0705  0.0000  0.9975
 
              Baa    -0.0031    -1.672    -0.596    -0.558  0.1080  0.0094  0.9941
     7 H(1)   Bbb    -0.0001    -0.070    -0.025    -0.023  0.6706  0.7375 -0.0799
              Bcc     0.0033     1.742     0.622     0.581  0.7340 -0.6752 -0.0734
 
              Baa    -0.0058    -3.093    -1.104    -1.032  0.9484  0.2951 -0.1161
     8 H(1)   Bbb    -0.0043    -2.321    -0.828    -0.774  0.1202  0.0044  0.9927
              Bcc     0.0101     5.414     1.932     1.806 -0.2934  0.9555  0.0313
 
              Baa    -0.0058    -3.093    -1.104    -1.032  0.9484 -0.2951 -0.1161
     9 H(1)   Bbb    -0.0043    -2.321    -0.828    -0.774  0.1202 -0.0044  0.9927
              Bcc     0.0101     5.414     1.932     1.806  0.2934  0.9555 -0.0313
 
              Baa    -0.0031    -1.672    -0.596    -0.558  0.1080 -0.0094  0.9941
    10 H(1)   Bbb    -0.0001    -0.070    -0.025    -0.023 -0.6706  0.7375  0.0799
              Bcc     0.0033     1.742     0.622     0.581  0.7339  0.6752 -0.0734
 
              Baa    -0.2206   -29.602   -10.563    -9.874  0.0000  1.0000  0.0000
    11 C(13)  Bbb    -0.1693   -22.722    -8.108    -7.579  0.9947  0.0000 -0.1029
              Bcc     0.3899    52.324    18.671    17.453  0.1029  0.0000  0.9947
 
              Baa    -0.2241   -30.074   -10.731   -10.031  0.0000  1.0000  0.0000
    12 C(13)  Bbb    -0.1984   -26.628    -9.502    -8.882  0.9832  0.0000 -0.1824
              Bcc     0.4225    56.702    20.233    18.914  0.1824  0.0000  0.9832
 
              Baa    -0.0439     3.176     1.133     1.060  0.9686  0.0000  0.2488
    13 O(17)  Bbb    -0.0368     2.663     0.950     0.888  0.0000  1.0000  0.0000
              Bcc     0.0807    -5.840    -2.084    -1.948 -0.2488  0.0000  0.9686
 
              Baa    -0.0093    -1.252    -0.447    -0.418  0.0000  1.0000  0.0000
    14 C(13)  Bbb    -0.0080    -1.078    -0.385    -0.360 -0.6632  0.0000  0.7484
              Bcc     0.0174     2.331     0.832     0.777  0.7484  0.0000  0.6632
 
              Baa    -0.0024    -1.305    -0.466    -0.435 -0.0129  0.7965  0.6045
    15 H(1)   Bbb    -0.0010    -0.523    -0.186    -0.174  0.7536  0.4051 -0.5177
              Bcc     0.0034     1.827     0.652     0.610  0.6572 -0.4489  0.6054
 
              Baa    -0.0018    -0.982    -0.350    -0.327  0.0000  1.0000  0.0000
    16 H(1)   Bbb    -0.0012    -0.627    -0.224    -0.209 -0.1274  0.0000  0.9919
              Bcc     0.0030     1.609     0.574     0.537  0.9919  0.0000  0.1274
 
              Baa    -0.0024    -1.305    -0.466    -0.435  0.0129  0.7965 -0.6045
    17 H(1)   Bbb    -0.0010    -0.523    -0.186    -0.174  0.7536 -0.4051 -0.5177
              Bcc     0.0034     1.827     0.652     0.610  0.6572  0.4489  0.6054
 

 ---------------------------------------------------------------------------------

 Evaluate density.
 Using the total density.
 Monte-Carlo method of calculating molar volume:
 based on  0.001 e/bohr**3 density envelope.
 Number of points per bohr**3 =   20 CutOff= 1.00D-04
 Using the SCF density.
 There are       386 points.  Will hold       386 in memory.
 LenV=  4026368320 MDV=  4026531840.
 Box volume = 7222.867 fraction occupied=0.197
 Integrated density= 6.7670042928130101D+01 error=-1.3299570718698988D+00
 Molar volume = 1422.119 bohr**3/mol (126.908 cm**3/mol)
 Recommended a0 for SCRF calculation =  4.56 angstrom (  8.62 bohr)
 Calling FoFJK, ICntrl=      2127 FMM=F ISym2X=0 I1Cent= 0 IOpClX= 1 NMat=1 NMatS=1 NMatT=0.
 ***** Axes restored to original set *****
 -------------------------------------------------------------------
 Center     Atomic                   Forces (Hartrees/Bohr)
 Number     Number              X              Y              Z
 -------------------------------------------------------------------
      1        6           0.000048663   -0.000032436   -0.000008604
      2        6          -0.000024144   -0.000008637   -0.000002343
      3        6          -0.000047167   -0.000000402    0.000031236
      4        6          -0.000024141    0.000008076   -0.000002379
      5        6           0.000048516    0.000033523   -0.000008617
      6        6          -0.000024146   -0.000000429    0.000020730
      7        1           0.000016934   -0.000004775   -0.000010363
      8        1           0.000002976    0.000010872   -0.000003029
      9        1           0.000003131   -0.000010439   -0.000002997
     10        1           0.000017147    0.000004367   -0.000010312
     11        6          -0.000058079    0.000000396   -0.000019694
     12        6           0.000067207   -0.000000107    0.000013156
     13        8          -0.000044025   -0.000000124    0.000027726
     14        6           0.000005995    0.000000700   -0.000022684
     15        1          -0.000000909   -0.000009126   -0.000002372
     16        1           0.000012829   -0.000000054    0.000002686
     17        1          -0.000000787    0.000008595   -0.000002140
 -------------------------------------------------------------------
 Cartesian Forces:  Max     0.000067207 RMS     0.000022460

 GradGradGradGradGradGradGradGradGradGradGradGradGradGradGradGradGradGrad
 Berny optimization.
 FormGI is forming the generalized inverse of G from B-inverse, IUseBI=4.
 Internal  Forces:  Max     0.000068216 RMS     0.000016316
 Search for a local minimum.
 Step number   1 out of a maximum of   83
 All quantities printed in internal units (Hartrees-Bohrs-Radians)
 Mixed Optimization -- En-DIIS/RFO-DIIS
 Second derivative matrix not updated -- first step.
 ITU=  0
     Eigenvalues ---    0.01194   0.01723   0.01819   0.01975   0.02005
     Eigenvalues ---    0.02021   0.02101   0.02103   0.02129   0.02170
     Eigenvalues ---    0.02185   0.03650   0.03650   0.10098   0.10591
     Eigenvalues ---    0.15999   0.15999   0.16000   0.16000   0.16000
     Eigenvalues ---    0.16000   0.16000   0.22000   0.22958   0.23997
     Eigenvalues ---    0.24978   0.25000   0.25000   0.33941   0.33941
     Eigenvalues ---    0.34681   0.35293   0.35293   0.35343   0.35343
     Eigenvalues ---    0.39069   0.39917   0.40125   0.43397   0.43478
     Eigenvalues ---    0.46296   0.46432   0.48384   0.51567   0.72462
 RFO step:  Lambda=-1.24207625D-07 EMin= 1.19447727D-02
 Linear search not attempted -- first point.
 Iteration  1 RMS(Cart)=  0.00039569 RMS(Int)=  0.00000006
 Iteration  2 RMS(Cart)=  0.00000008 RMS(Int)=  0.00000003
 Variable       Old X    -DE/DX   Delta X   Delta X   Delta X     New X
                                 (Linear)    (Quad)   (Total)
    R1        2.61532  -0.00004   0.00000  -0.00008  -0.00008   2.61524
    R2        2.65920   0.00005   0.00000   0.00012   0.00012   2.65932
    R3        2.05201   0.00000   0.00000  -0.00001  -0.00001   2.05200
    R4        2.69785  -0.00002   0.00000  -0.00005  -0.00005   2.69781
    R5        2.05121  -0.00001   0.00000  -0.00002  -0.00002   2.05119
    R6        2.69785  -0.00002   0.00000  -0.00005  -0.00005   2.69781
    R7        2.63647   0.00001   0.00000   0.00002   0.00002   2.63649
    R8        2.61532  -0.00004   0.00000  -0.00008  -0.00008   2.61524
    R9        2.05121  -0.00001   0.00000  -0.00002  -0.00002   2.05119
   R10        2.65920   0.00005   0.00000   0.00012   0.00012   2.65932
   R11        2.05201   0.00000   0.00000  -0.00001  -0.00001   2.05200
   R12        2.58316   0.00002   0.00000   0.00005   0.00005   2.58321
   R13        2.42256   0.00007   0.00000   0.00009   0.00009   2.42265
   R14        2.71666  -0.00003   0.00000  -0.00007  -0.00007   2.71659
   R15        2.07430  -0.00001   0.00000  -0.00002  -0.00002   2.07428
   R16        2.06196  -0.00001   0.00000  -0.00004  -0.00004   2.06193
   R17        2.07430  -0.00001   0.00000  -0.00002  -0.00002   2.07428
    A1        2.08928   0.00000   0.00000  -0.00001  -0.00001   2.08927
    A2        2.11958  -0.00001   0.00000  -0.00010  -0.00010   2.11948
    A3        2.07427   0.00002   0.00000   0.00011   0.00011   2.07437
    A4        2.10541   0.00000   0.00000  -0.00001  -0.00001   2.10539
    A5        2.10957   0.00001   0.00000   0.00006   0.00006   2.10962
    A6        2.06821  -0.00001   0.00000  -0.00004  -0.00004   2.06816
    A7        2.06795   0.00002   0.00000   0.00007   0.00007   2.06802
    A8        2.10761  -0.00001   0.00000  -0.00004  -0.00004   2.10758
    A9        2.10762  -0.00001   0.00000  -0.00004  -0.00004   2.10758
   A10        2.10541   0.00000   0.00000  -0.00001  -0.00001   2.10539
   A11        2.06821  -0.00001   0.00000  -0.00004  -0.00004   2.06816
   A12        2.10957   0.00001   0.00000   0.00006   0.00006   2.10962
   A13        2.08928  -0.00001   0.00000  -0.00001  -0.00001   2.08927
   A14        2.11958  -0.00001   0.00000  -0.00010  -0.00010   2.11948
   A15        2.07427   0.00002   0.00000   0.00011   0.00011   2.07437
   A16        2.10902  -0.00001   0.00000  -0.00004  -0.00004   2.10898
   A17        2.08671   0.00001   0.00000   0.00001   0.00001   2.08672
   A18        2.08671   0.00001   0.00000   0.00001   0.00001   2.08672
   A19        2.01309  -0.00001   0.00000  -0.00004  -0.00004   2.01305
   A20        1.93239   0.00000   0.00000   0.00001   0.00001   1.93240
   A21        1.85093   0.00000   0.00000   0.00001   0.00001   1.85093
   A22        1.93240   0.00000   0.00000   0.00001   0.00001   1.93240
   A23        1.91759   0.00000   0.00000   0.00001   0.00001   1.91760
   A24        1.91221   0.00000   0.00000  -0.00004  -0.00004   1.91217
   A25        1.91759   0.00000   0.00000   0.00001   0.00001   1.91760
   A26        3.14155   0.00000   0.00000  -0.00001  -0.00001   3.14154
   A27        3.16453   0.00001   0.00000   0.00017   0.00017   3.16470
    D1       -0.00028   0.00000   0.00000  -0.00007  -0.00007  -0.00035
    D2       -3.13860   0.00000   0.00000  -0.00002  -0.00002  -3.13861
    D3        3.12917   0.00000   0.00000  -0.00002  -0.00002   3.12914
    D4       -0.00915   0.00000   0.00000   0.00003   0.00003  -0.00912
    D5        0.00621   0.00001   0.00000   0.00070   0.00070   0.00691
    D6        3.10605   0.00001   0.00000   0.00046   0.00046   3.10652
    D7       -3.12355   0.00001   0.00000   0.00066   0.00066  -3.12289
    D8       -0.02371   0.00001   0.00000   0.00042   0.00042  -0.02329
    D9       -0.00544  -0.00001   0.00000  -0.00055  -0.00055  -0.00599
   D10        3.14009   0.00000   0.00000   0.00026   0.00026   3.14034
   D11        3.13295  -0.00001   0.00000  -0.00060  -0.00060   3.13235
   D12       -0.00471   0.00000   0.00000   0.00021   0.00021  -0.00450
   D13        0.00544   0.00001   0.00000   0.00055   0.00055   0.00599
   D14       -3.13295   0.00001   0.00000   0.00060   0.00060  -3.13235
   D15       -3.14009   0.00000   0.00000  -0.00026  -0.00026  -3.14034
   D16        0.00471   0.00000   0.00000  -0.00021  -0.00021   0.00450
   D17        0.00028   0.00000   0.00000   0.00007   0.00007   0.00035
   D18       -3.12917   0.00000   0.00000   0.00002   0.00002  -3.12914
   D19        3.13860   0.00000   0.00000   0.00002   0.00002   3.13861
   D20        0.00915   0.00000   0.00000  -0.00003  -0.00003   0.00912
   D21       -0.00621  -0.00001   0.00000  -0.00070  -0.00070  -0.00691
   D22       -3.10605  -0.00001   0.00000  -0.00046  -0.00046  -3.10652
   D23        3.12355  -0.00001   0.00000  -0.00066  -0.00066   3.12289
   D24        0.02371  -0.00001   0.00000  -0.00042  -0.00042   0.02329
   D25        1.59141   0.00000   0.00000   0.00012   0.00012   1.59153
   D26       -1.59140   0.00000   0.00000  -0.00012  -0.00012  -1.59151
   D27        1.06221   0.00000   0.00000  -0.00002  -0.00002   1.06219
   D28        3.14159   0.00000   0.00000   0.00000   0.00000   3.14159
   D29       -1.06221   0.00000   0.00000   0.00002   0.00002  -1.06219
         Item               Value     Threshold  Converged?
 Maximum Force            0.000068     0.000450     YES
 RMS     Force            0.000016     0.000300     YES
 Maximum Displacement     0.001428     0.001800     YES
 RMS     Displacement     0.000396     0.001200     YES
 Predicted change in Energy=-6.210494D-08
 Optimization completed.
    -- Stationary point found.
                           ----------------------------
                           !   Optimized Parameters   !
                           ! (Angstroms and Degrees)  !
 --------------------------                            --------------------------
 ! Name  Definition              Value          Derivative Info.                !
 --------------------------------------------------------------------------------
 ! R1    R(1,2)                  1.384          -DE/DX =    0.0                 !
 ! R2    R(1,6)                  1.4072         -DE/DX =    0.0                 !
 ! R3    R(1,7)                  1.0859         -DE/DX =    0.0                 !
 ! R4    R(2,3)                  1.4276         -DE/DX =    0.0                 !
 ! R5    R(2,8)                  1.0855         -DE/DX =    0.0                 !
 ! R6    R(3,4)                  1.4276         -DE/DX =    0.0                 !
 ! R7    R(3,11)                 1.3952         -DE/DX =    0.0                 !
 ! R8    R(4,5)                  1.384          -DE/DX =    0.0                 !
 ! R9    R(4,9)                  1.0855         -DE/DX =    0.0                 !
 ! R10   R(5,6)                  1.4072         -DE/DX =    0.0001              !
 ! R11   R(5,10)                 1.0859         -DE/DX =    0.0                 !
 ! R12   R(6,13)                 1.367          -DE/DX =    0.0                 !
 ! R13   R(11,12)                1.282          -DE/DX =    0.0001              !
 ! R14   R(13,14)                1.4376         -DE/DX =    0.0                 !
 ! R15   R(14,15)                1.0977         -DE/DX =    0.0                 !
 ! R16   R(14,16)                1.0911         -DE/DX =    0.0                 !
 ! R17   R(14,17)                1.0977         -DE/DX =    0.0                 !
 ! A1    A(2,1,6)              119.7069         -DE/DX =    0.0                 !
 ! A2    A(2,1,7)              121.4429         -DE/DX =    0.0                 !
 ! A3    A(6,1,7)              118.8467         -DE/DX =    0.0                 !
 ! A4    A(1,2,3)              120.631          -DE/DX =    0.0                 !
 ! A5    A(1,2,8)              120.8692         -DE/DX =    0.0                 !
 ! A6    A(3,2,8)              118.4995         -DE/DX =    0.0                 !
 ! A7    A(2,3,4)              118.4846         -DE/DX =    0.0                 !
 ! A8    A(2,3,11)             120.7574         -DE/DX =    0.0                 !
 ! A9    A(4,3,11)             120.7576         -DE/DX =    0.0                 !
 ! A10   A(3,4,5)              120.6309         -DE/DX =    0.0                 !
 ! A11   A(3,4,9)              118.4995         -DE/DX =    0.0                 !
 ! A12   A(5,4,9)              120.8693         -DE/DX =    0.0                 !
 ! A13   A(4,5,6)              119.7069         -DE/DX =    0.0                 !
 ! A14   A(4,5,10)             121.4428         -DE/DX =    0.0                 !
 ! A15   A(6,5,10)             118.8467         -DE/DX =    0.0                 !
 ! A16   A(1,6,5)              120.838          -DE/DX =    0.0                 !
 ! A17   A(1,6,13)             119.5595         -DE/DX =    0.0                 !
 ! A18   A(5,6,13)             119.5596         -DE/DX =    0.0                 !
 ! A19   A(6,13,14)            115.3417         -DE/DX =    0.0                 !
 ! A20   A(13,14,15)           110.718          -DE/DX =    0.0                 !
 ! A21   A(13,14,16)           106.0503         -DE/DX =    0.0                 !
 ! A22   A(13,14,17)           110.7181         -DE/DX =    0.0                 !
 ! A23   A(15,14,16)           109.8699         -DE/DX =    0.0                 !
 ! A24   A(15,14,17)           109.5617         -DE/DX =    0.0                 !
 ! A25   A(16,14,17)           109.87           -DE/DX =    0.0                 !
 ! A26   L(3,11,12,8,-1)       179.9975         -DE/DX =    0.0                 !
 ! A27   L(3,11,12,8,-2)       181.3143         -DE/DX =    0.0                 !
 ! D1    D(6,1,2,3)             -0.0163         -DE/DX =    0.0                 !
 ! D2    D(6,1,2,8)           -179.8284         -DE/DX =    0.0                 !
 ! D3    D(7,1,2,3)            179.288          -DE/DX =    0.0                 !
 ! D4    D(7,1,2,8)             -0.5241         -DE/DX =    0.0                 !
 ! D5    D(2,1,6,5)              0.3559         -DE/DX =    0.0                 !
 ! D6    D(2,1,6,13)           177.9637         -DE/DX =    0.0                 !
 ! D7    D(7,1,6,5)           -178.9665         -DE/DX =    0.0                 !
 ! D8    D(7,1,6,13)            -1.3587         -DE/DX =    0.0                 !
 ! D9    D(1,2,3,4)             -0.3117         -DE/DX =    0.0                 !
 ! D10   D(1,2,3,11)           179.9137         -DE/DX =    0.0                 !
 ! D11   D(8,2,3,4)            179.5049         -DE/DX =    0.0                 !
 ! D12   D(8,2,3,11)            -0.2697         -DE/DX =    0.0                 !
 ! D13   D(2,3,4,5)              0.3117         -DE/DX =    0.0                 !
 ! D14   D(2,3,4,9)           -179.5048         -DE/DX =    0.0                 !
 ! D15   D(11,3,4,5)          -179.9137         -DE/DX =    0.0                 !
 ! D16   D(11,3,4,9)             0.2698         -DE/DX =    0.0                 !
 ! D17   D(3,4,5,6)              0.0163         -DE/DX =    0.0                 !
 ! D18   D(3,4,5,10)          -179.288          -DE/DX =    0.0                 !
 ! D19   D(9,4,5,6)            179.8284         -DE/DX =    0.0                 !
 ! D20   D(9,4,5,10)             0.5241         -DE/DX =    0.0                 !
 ! D21   D(4,5,6,1)             -0.3559         -DE/DX =    0.0                 !
 ! D22   D(4,5,6,13)          -177.9637         -DE/DX =    0.0                 !
 ! D23   D(10,5,6,1)           178.9665         -DE/DX =    0.0                 !
 ! D24   D(10,5,6,13)            1.3587         -DE/DX =    0.0                 !
 ! D25   D(1,6,13,14)           91.181          -DE/DX =    0.0                 !
 ! D26   D(5,6,13,14)          -91.1804         -DE/DX =    0.0                 !
 ! D27   D(6,13,14,15)          60.8603         -DE/DX =    0.0                 !
 ! D28   D(6,13,14,16)         179.9999         -DE/DX =    0.0                 !
 ! D29   D(6,13,14,17)         -60.8603         -DE/DX =    0.0                 !
 --------------------------------------------------------------------------------
 GradGradGradGradGradGradGradGradGradGradGradGradGradGradGradGradGradGrad

                          Input orientation:                          
 ---------------------------------------------------------------------
 Center     Atomic      Atomic             Coordinates (Angstroms)
 Number     Number       Type             X           Y           Z
 ---------------------------------------------------------------------
      1          6           0       -0.502767   -1.223777   -0.229736
      2          6           0        0.873129   -1.226828   -0.080491
      3          6           0        1.598603    0.000000    0.001638
      4          6           0        0.873128    1.226827   -0.080494
      5          6           0       -0.502768    1.223773   -0.229739
      6          6           0       -1.193775   -0.000002   -0.300922
      7          1           0       -1.066419   -2.148847   -0.305046
      8          1           0        1.425373   -2.159727   -0.026267
      9          1           0        1.425371    2.159726   -0.026273
     10          1           0       -1.066421    2.148843   -0.305052
     11          6           0        2.985431   -0.000001    0.153893
     12          6           0        4.256922    0.000005    0.317411
     13          8           0       -2.547547   -0.000003   -0.490274
     14          6           0       -3.336903    0.000005    0.711223
     15          1           0       -3.132292    0.896757    1.310272
     16          1           0       -4.378947    0.000004    0.387586
     17          1           0       -3.132293   -0.896738    1.310284
 ---------------------------------------------------------------------
                    Distance matrix (angstroms):
                    1          2          3          4          5
     1  C    0.000000
     2  C    1.383970   0.000000
     3  C    2.442728   1.427643   0.000000
     4  C    2.814395   2.453655   1.427643   0.000000
     5  C    2.447550   2.814394   2.442727   1.383970   0.000000
     6  C    1.407190   2.413666   2.808722   2.413666   1.407190
     7  H    1.085877   2.159257   3.437141   3.899672   3.420225
     8  H    2.152934   1.085456   2.166843   3.431714   3.899641
     9  H    3.899642   3.431714   2.166842   1.085455   2.152934
    10  H    3.420226   3.899671   3.437141   2.159257   1.085878
    11  C    3.716494   2.453948   1.395161   2.453950   3.716494
    12  C    4.944861   3.621257   2.677008   3.621254   4.944859
    13  O    2.397213   3.657054   4.175229   3.657055   2.397212
    14  C    3.227286   4.456041   4.986254   4.456037   3.227280
    15  H    3.712505   4.742070   4.989796   4.252830   3.064795
    16  H    4.111386   5.413734   5.989997   5.413731   4.111382
    17  H    3.064804   4.252837   4.989797   4.742066   3.712498
                    6          7          8          9         10
     6  C    0.000000
     7  H    2.152620   0.000000
     8  H    3.405846   2.507362   0.000000
     9  H    3.405845   4.985031   4.319453   0.000000
    10  H    2.152620   4.297690   4.985031   2.507362   0.000000
    11  C    4.203881   4.609301   2.670329   2.670331   4.609302
    12  C    5.485657   5.774338   3.577740   3.577736   5.774335
    13  O    1.366950   2.616406   4.545746   4.545746   2.616406
    14  C    2.370113   3.287167   5.280872   5.280866   3.287158
    15  H    2.675438   4.019053   5.648074   4.914645   2.905996
    16  H    3.258737   4.008758   6.206919   6.206914   4.008751
    17  H    2.675439   2.906012   4.914655   5.648067   4.019042
                   11         12         13         14         15
    11  C    0.000000
    12  C    1.281962   0.000000
    13  O    5.570350   6.852237   0.000000
    14  C    6.346851   7.604030   1.437594   0.000000
    15  H    6.290304   7.509356   2.094772   1.097675   0.000000
    16  H    7.368085   8.636154   2.030927   1.091145   1.791554
    17  H    6.290304   7.509357   2.094772   1.097674   1.793495
                   16         17
    16  H    0.000000
    17  H    1.791554   0.000000
 Stoichiometry    C9H7O(2)
 Framework group  C1[X(C9H7O)]
 Deg. of freedom    45
 Full point group                 C1      NOp   1
 Largest Abelian subgroup         C1      NOp   1
 Largest concise Abelian subgroup C1      NOp   1
                         Standard orientation:                         
 ---------------------------------------------------------------------
 Center     Atomic      Atomic             Coordinates (Angstroms)
 Number     Number       Type             X           Y           Z
 ---------------------------------------------------------------------
      1          6           0        0.502767    1.223777   -0.229736
      2          6           0       -0.873129    1.226828   -0.080491
      3          6           0       -1.598603    0.000000    0.001638
      4          6           0       -0.873128   -1.226827   -0.080494
      5          6           0        0.502768   -1.223773   -0.229739
      6          6           0        1.193775    0.000002   -0.300922
      7          1           0        1.066419    2.148847   -0.305046
      8          1           0       -1.425373    2.159727   -0.026267
      9          1           0       -1.425371   -2.159726   -0.026273
     10          1           0        1.066421   -2.148843   -0.305052
     11          6           0       -2.985431    0.000001    0.153893
     12          6           0       -4.256922   -0.000005    0.317411
     13          8           0        2.547547    0.000003   -0.490274
     14          6           0        3.336903   -0.000005    0.711223
     15          1           0        3.132292   -0.896757    1.310272
     16          1           0        4.378947   -0.000004    0.387586
     17          1           0        3.132293    0.896738    1.310284
 ---------------------------------------------------------------------
 Rotational constants (GHZ):           4.5969583           0.7257126           0.6552781
 1\1\GINC-IP-172-31-15-30\FOpt\UB3LYP\6-31+G(d)\C9H7O1(2)\UBUNTU\17-Sep
 -2023\0\\# opt freq ub3lyp/6-31+g(d) geom=connectivity empiricaldisper
 sion=gd3 volume\\Title Card Required\\0,2\C,-0.502767,-1.223777,-0.229
 736\C,0.873129,-1.226828,-0.080491\C,1.598603,0.,0.001638\C,0.873128,1
 .226827,-0.080494\C,-0.502768,1.223773,-0.229739\C,-1.193775,-0.000002
 ,-0.300922\H,-1.066419,-2.148847,-0.305046\H,1.425373,-2.159727,-0.026
 267\H,1.425371,2.159726,-0.026273\H,-1.066421,2.148843,-0.305052\C,2.9
 85431,-0.000001,0.153893\C,4.256922,0.000005,0.317411\O,-2.547547,-0.0
 00003,-0.490274\C,-3.336903,0.000005,0.711223\H,-3.132292,0.896757,1.3
 10272\H,-4.378947,0.000004,0.387586\H,-3.132293,-0.896738,1.310284\\Ve
 rsion=EM64L-G16RevB.01\State=2-A\HF=-422.237191\S2=0.763935\S2-1=0.\S2
 A=0.750123\RMSD=8.781e-09\RMSF=2.246e-05\Dipole=-2.9469147,0.0000006,0
 .2696583\Quadrupole=-14.6252138,10.6245319,4.0006819,-0.0000487,-5.664
 1251,-0.0000133\PG=C01 [X(C9H7O1)]\\@


 BRING ME INTO THE COMPANY OF THOSE WHO SEEK TRUTH,
 AND DELIVER ME FROM THOSE WHO HAVE FOUND IT.
 Job cpu time:       0 days  0 hours 17 minutes 47.1 seconds.
 Elapsed time:       0 days  0 hours  0 minutes 35.6 seconds.
 File lengths (MBytes):  RWF=     44 Int=      0 D2E=      0 Chk=      5 Scr=      1
 Normal termination of Gaussian 16 at Sun Sep 17 09:01:07 2023.
 Link1:  Proceeding to internal job step number  2.
 ---------------------------------------------------------------------
 #N Geom=AllCheck Guess=TCheck SCRF=Check GenChk UB3LYP/6-31+G(d) Freq
 ---------------------------------------------------------------------
 1/10=4,29=7,30=1,38=1,40=1/1,3;
 2/12=2,40=1/2;
 3/5=1,6=6,7=11,11=2,14=-4,25=1,30=1,70=2,71=2,74=-5,116=2,124=31,140=1/1,2,3;
 4/5=101/1;
 5/5=2,38=6,98=1/2;
 8/6=4,10=90,11=11/1;
 11/6=1,8=1,9=11,15=111,16=1/1,2,10;
 10/6=1/2;
 6/7=2,8=2,9=2,10=2,28=1/1;
 7/8=1,10=1,25=1/1,2,3,16;
 1/10=4,30=1/3;
 99//99;
 Structure from the checkpoint file:  "molecule_2.chk"
 -------------------
 Title Card Required
 -------------------
 Charge =  0 Multiplicity = 2
 Redundant internal coordinates found in file.  (old form).
 C,0,-0.502767,-1.223777,-0.229736
 C,0,0.873129,-1.226828,-0.080491
 C,0,1.598603,0.,0.001638
 C,0,0.873128,1.226827,-0.080494
 C,0,-0.502768,1.223773,-0.229739
 C,0,-1.193775,-0.000002,-0.300922
 H,0,-1.066419,-2.148847,-0.305046
 H,0,1.425373,-2.159727,-0.026267
 H,0,1.425371,2.159726,-0.026273
 H,0,-1.066421,2.148843,-0.305052
 C,0,2.985431,-0.000001,0.153893
 C,0,4.256922,0.000005,0.317411
 O,0,-2.547547,-0.000003,-0.490274
 C,0,-3.336903,0.000005,0.711223
 H,0,-3.132292,0.896757,1.310272
 H,0,-4.378947,0.000004,0.387586
 H,0,-3.132293,-0.896738,1.310284
 Recover connectivity data from disk.

 GradGradGradGradGradGradGradGradGradGradGradGradGradGradGradGradGradGrad
 Berny optimization.
 Initialization pass.
                           ----------------------------
                           !    Initial Parameters    !
                           ! (Angstroms and Degrees)  !
 --------------------------                            --------------------------
 ! Name  Definition              Value          Derivative Info.                !
 --------------------------------------------------------------------------------
 ! R1    R(1,2)                  1.384          calculate D2E/DX2 analytically  !
 ! R2    R(1,6)                  1.4072         calculate D2E/DX2 analytically  !
 ! R3    R(1,7)                  1.0859         calculate D2E/DX2 analytically  !
 ! R4    R(2,3)                  1.4276         calculate D2E/DX2 analytically  !
 ! R5    R(2,8)                  1.0855         calculate D2E/DX2 analytically  !
 ! R6    R(3,4)                  1.4276         calculate D2E/DX2 analytically  !
 ! R7    R(3,11)                 1.3952         calculate D2E/DX2 analytically  !
 ! R8    R(4,5)                  1.384          calculate D2E/DX2 analytically  !
 ! R9    R(4,9)                  1.0855         calculate D2E/DX2 analytically  !
 ! R10   R(5,6)                  1.4072         calculate D2E/DX2 analytically  !
 ! R11   R(5,10)                 1.0859         calculate D2E/DX2 analytically  !
 ! R12   R(6,13)                 1.367          calculate D2E/DX2 analytically  !
 ! R13   R(11,12)                1.282          calculate D2E/DX2 analytically  !
 ! R14   R(13,14)                1.4376         calculate D2E/DX2 analytically  !
 ! R15   R(14,15)                1.0977         calculate D2E/DX2 analytically  !
 ! R16   R(14,16)                1.0911         calculate D2E/DX2 analytically  !
 ! R17   R(14,17)                1.0977         calculate D2E/DX2 analytically  !
 ! A1    A(2,1,6)              119.7069         calculate D2E/DX2 analytically  !
 ! A2    A(2,1,7)              121.4429         calculate D2E/DX2 analytically  !
 ! A3    A(6,1,7)              118.8467         calculate D2E/DX2 analytically  !
 ! A4    A(1,2,3)              120.631          calculate D2E/DX2 analytically  !
 ! A5    A(1,2,8)              120.8692         calculate D2E/DX2 analytically  !
 ! A6    A(3,2,8)              118.4995         calculate D2E/DX2 analytically  !
 ! A7    A(2,3,4)              118.4846         calculate D2E/DX2 analytically  !
 ! A8    A(2,3,11)             120.7574         calculate D2E/DX2 analytically  !
 ! A9    A(4,3,11)             120.7576         calculate D2E/DX2 analytically  !
 ! A10   A(3,4,5)              120.6309         calculate D2E/DX2 analytically  !
 ! A11   A(3,4,9)              118.4995         calculate D2E/DX2 analytically  !
 ! A12   A(5,4,9)              120.8693         calculate D2E/DX2 analytically  !
 ! A13   A(4,5,6)              119.7069         calculate D2E/DX2 analytically  !
 ! A14   A(4,5,10)             121.4428         calculate D2E/DX2 analytically  !
 ! A15   A(6,5,10)             118.8467         calculate D2E/DX2 analytically  !
 ! A16   A(1,6,5)              120.838          calculate D2E/DX2 analytically  !
 ! A17   A(1,6,13)             119.5595         calculate D2E/DX2 analytically  !
 ! A18   A(5,6,13)             119.5596         calculate D2E/DX2 analytically  !
 ! A19   A(6,13,14)            115.3417         calculate D2E/DX2 analytically  !
 ! A20   A(13,14,15)           110.718          calculate D2E/DX2 analytically  !
 ! A21   A(13,14,16)           106.0503         calculate D2E/DX2 analytically  !
 ! A22   A(13,14,17)           110.7181         calculate D2E/DX2 analytically  !
 ! A23   A(15,14,16)           109.8699         calculate D2E/DX2 analytically  !
 ! A24   A(15,14,17)           109.5617         calculate D2E/DX2 analytically  !
 ! A25   A(16,14,17)           109.87           calculate D2E/DX2 analytically  !
 ! A26   L(3,11,12,8,-1)       179.9975         calculate D2E/DX2 analytically  !
 ! A27   L(3,11,12,8,-2)       181.3143         calculate D2E/DX2 analytically  !
 ! D1    D(6,1,2,3)             -0.0163         calculate D2E/DX2 analytically  !
 ! D2    D(6,1,2,8)           -179.8284         calculate D2E/DX2 analytically  !
 ! D3    D(7,1,2,3)            179.288          calculate D2E/DX2 analytically  !
 ! D4    D(7,1,2,8)             -0.5241         calculate D2E/DX2 analytically  !
 ! D5    D(2,1,6,5)              0.3559         calculate D2E/DX2 analytically  !
 ! D6    D(2,1,6,13)           177.9637         calculate D2E/DX2 analytically  !
 ! D7    D(7,1,6,5)           -178.9665         calculate D2E/DX2 analytically  !
 ! D8    D(7,1,6,13)            -1.3587         calculate D2E/DX2 analytically  !
 ! D9    D(1,2,3,4)             -0.3117         calculate D2E/DX2 analytically  !
 ! D10   D(1,2,3,11)           179.9137         calculate D2E/DX2 analytically  !
 ! D11   D(8,2,3,4)            179.5049         calculate D2E/DX2 analytically  !
 ! D12   D(8,2,3,11)            -0.2697         calculate D2E/DX2 analytically  !
 ! D13   D(2,3,4,5)              0.3117         calculate D2E/DX2 analytically  !
 ! D14   D(2,3,4,9)           -179.5048         calculate D2E/DX2 analytically  !
 ! D15   D(11,3,4,5)          -179.9137         calculate D2E/DX2 analytically  !
 ! D16   D(11,3,4,9)             0.2698         calculate D2E/DX2 analytically  !
 ! D17   D(3,4,5,6)              0.0163         calculate D2E/DX2 analytically  !
 ! D18   D(3,4,5,10)          -179.288          calculate D2E/DX2 analytically  !
 ! D19   D(9,4,5,6)            179.8284         calculate D2E/DX2 analytically  !
 ! D20   D(9,4,5,10)             0.5241         calculate D2E/DX2 analytically  !
 ! D21   D(4,5,6,1)             -0.3559         calculate D2E/DX2 analytically  !
 ! D22   D(4,5,6,13)          -177.9637         calculate D2E/DX2 analytically  !
 ! D23   D(10,5,6,1)           178.9665         calculate D2E/DX2 analytically  !
 ! D24   D(10,5,6,13)            1.3587         calculate D2E/DX2 analytically  !
 ! D25   D(1,6,13,14)           91.181          calculate D2E/DX2 analytically  !
 ! D26   D(5,6,13,14)          -91.1804         calculate D2E/DX2 analytically  !
 ! D27   D(6,13,14,15)          60.8603         calculate D2E/DX2 analytically  !
 ! D28   D(6,13,14,16)         179.9999         calculate D2E/DX2 analytically  !
 ! D29   D(6,13,14,17)         -60.8603         calculate D2E/DX2 analytically  !
 --------------------------------------------------------------------------------
 Trust Radius=3.00D-01 FncErr=1.00D-07 GrdErr=1.00D-07 EigMax=2.50D+02 EigMin=1.00D-04
[...]
   z          0.295923D+01      0.752160D+01      0.250894D+02

 Dipole polarizability, Alpha (dipole orientation).
 (esu units = cm**3 , SI units = C**2 m**2 J**-1)
 Alpha(0;0):
               (au)            (10**-24 esu)      (10**-40 SI)
   iso        0.125413D+03      0.185842D+02      0.206777D+02
   aniso      0.130545D+03      0.193448D+02      0.215239D+02
   xx         0.705234D+02      0.104505D+02      0.116277D+02
   yx         0.140652D-04      0.208425D-05      0.231904D-05
   yy         0.976338D+02      0.144678D+02      0.160976D+02
   zx        -0.192727D+02     -0.285591D+01     -0.317763D+01
   zy        -0.127594D-03     -0.189075D-04     -0.210374D-04
   zz         0.208080D+03      0.308343D+02      0.343078D+02

 ----------------------------------------------------------------------
 1\1\GINC-IP-172-31-15-30\Freq\UB3LYP\6-31+G(d)\C9H7O1(2)\UBUNTU\17-Sep
 -2023\0\\#N Geom=AllCheck Guess=TCheck SCRF=Check GenChk UB3LYP/6-31+G
 (d) Freq\\Title Card Required\\0,2\C,-0.502767,-1.223777,-0.229736\C,0
 .873129,-1.226828,-0.080491\C,1.598603,0.,0.001638\C,0.873128,1.226827
 ,-0.080494\C,-0.502768,1.223773,-0.229739\C,-1.193775,-0.000002,-0.300
 922\H,-1.066419,-2.148847,-0.305046\H,1.425373,-2.159727,-0.026267\H,1
 .425371,2.159726,-0.026273\H,-1.066421,2.148843,-0.305052\C,2.985431,-
 0.000001,0.153893\C,4.256922,0.000005,0.317411\O,-2.547547,-0.000003,-
 0.490274\C,-3.336903,0.000005,0.711223\H,-3.132292,0.896757,1.310272\H
 ,-4.378947,0.000004,0.387586\H,-3.132293,-0.896738,1.310284\\Version=E
 M64L-G16RevB.01\State=2-A\HF=-422.237191\S2=0.763935\S2-1=0.\S2A=0.750
 123\RMSD=4.303e-09\RMSF=2.246e-05\ZeroPoint=0.1290331\Thermal=0.137671
 4\Dipole=-2.9469145,0.0000016,0.2696583\DipoleDeriv=-0.6369391,0.19632
 39,0.0160201,0.5264871,-0.0672569,0.0489,-0.0236863,0.0259553,-0.11244
 77,0.5378446,-0.0969102,0.0342086,0.2582232,0.0584509,0.0116342,0.0795
 037,-0.0119612,-0.0647102,-0.6580717,-0.0000002,0.0011497,0.0000018,0.
 1410254,-0.0000002,0.0220211,-0.0000003,-0.1634685,0.5378457,0.0969094
 ,0.0342085,-0.2582229,0.0584509,-0.0116345,0.0795031,0.0119609,-0.0647
 071,-0.6369396,-0.1963239,0.0160203,-0.5264899,-0.0672567,-0.0489003,-
 0.0236887,-0.0259554,-0.1124491,2.0095648,-0.0000007,-0.0170518,0.0000
 012,0.451966,-0.000001,0.2788578,-0.0000011,0.0714901,0.0286003,-0.058
 0521,-0.0171709,-0.0720588,-0.0019697,-0.0045328,-0.0192106,-0.0043168
 ,0.1422318,0.0433326,0.0497731,-0.0030321,0.021572,0.0076666,0.0027302
 ,-0.0106927,0.0025547,0.1208069,0.0433326,-0.0497728,-0.003032,-0.0215
 717,0.0076667,-0.0027299,-0.010692,-0.0025543,0.1208071,0.0285996,0.05
 80524,-0.0171711,0.0720594,-0.0019702,0.0045332,-0.0192109,0.0043173,0
 .1422314,-0.8311403,-0.0000039,-0.2416389,-0.0000086,-0.1981226,-0.000
 0003,-0.3375574,0.0000003,0.4794296,1.0417705,0.0000048,0.2536988,0.00
 00072,-0.2692655,0.0000007,0.2861801,0.0000002,-0.5726113,-2.2466109,0
 .0000022,0.2398884,0.0000072,-0.3823455,-0.0000014,0.2318165,-0.000001
 7,-0.5825885,0.8477299,-0.0000015,-0.2519753,-0.0000083,0.3302948,0.00
 00023,-0.7346254,0.0000023,0.6378279,0.0272252,-0.0664437,-0.0233089,0
 .0045043,-0.0791456,-0.1031412,0.1157634,-0.0530678,-0.0392192,-0.1633
 688,0.,0.002496,-0.0000002,0.0909543,-0.0000003,-0.0300465,-0.0000003,
 0.036598,0.0272248,0.0664431,-0.0233095,-0.0045031,-0.079143,0.1031413
 ,0.1157648,0.0530681,-0.0392211\Polar=210.4359259,0.0000757,97.6338234
 ,6.4699212,-0.0000169,68.1678051\Quadrupole=-14.6252131,10.6245315,4.0
 006816,-0.0000477,-5.6641252,-0.0000135\PG=C01 [X(C9H7O1)]\NImag=1\\0.
 70558015,0.05509210,0.70014527,0.06422702,0.01140112,0.12840110,-0.363
 12489,-0.03366525,-0.03342356,0.70125347,0.02660655,-0.13187678,0.0028
 5333,-0.06118268,0.68059472,-0.03316281,-0.00357051,-0.06075427,0.0613
 5544,-0.00418209,0.13959633,-0.03896014,-0.01857699,-0.00503537,-0.125
 92612,-0.06862591,-0.00644050,0.66419920,-0.04764644,0.02346347,-0.005
 10568,-0.05074509,-0.24772019,-0.00662037,-0.00000028,0.58523088,-0.00
 500820,-0.00210916,0.00741915,-0.00688603,-0.00828118,-0.06771965,0.05
 990021,-0.00000059,0.13898262,-0.03644571,0.02026087,-0.00419050,0.043
 91294,0.00874774,0.00356525,-0.12592627,0.05074530,-0.00688616,0.70125
 350,0.01909887,-0.01190417,0.00237096,-0.00874765,-0.04688619,-0.00077
 544,0.06862613,-0.24772027,0.00828164,0.06118372,0.68059611,-0.0036308
 6,0.00219343,-0.00242414,0.00356528,0.00077560,0.01030132,-0.00644072,
 0.00662083,-0.06771950,0.06135519,0.00418069,0.13959606,0.05682304,-0.
 01711538,0.00631902,-0.03644570,-0.01909888,-0.00363080,-0.03896033,0.
 04764642,-0.00500838,-0.36312479,-0.02660718,-0.03316268,0.70558025,0.
 01711550,-0.04776341,0.00227602,-0.02026090,-0.01190427,-0.00219340,0.
 01857696,0.02346355,0.00210910,0.03366463,-0.13187675,0.00357064,-0.05
 509009,0.70014484,0.00631893,-0.00227582,0.01002966,-0.00419043,-0.002
 37095,-0.00242412,-0.00503548,0.00510565,0.00741908,-0.03342356,-0.002
 85318,-0.06075423,0.06422722,-0.01140246,0.12840126,-0.14023029,0.0946
 9322,-0.00527629,-0.03444552,0.02564040,-0.00284796,0.01217010,-0.0000
 0001,0.00193417,-0.03444549,-0.02564046,-0.00284787,-0.14023051,-0.094
 69374,-0.00527606,0.64751387,0.02297598,-0.27163852,0.00083328,0.07490
 037,0.03018240,0.00805413,0.00000002,-0.04276625,0.00000006,-0.0749004
 4,0.03018225,-0.00805422,-0.02297655,-0.27163950,-0.00083286,0.0000005
 3,0.64501870,-0.00659894,0.00728515,-0.06602457,-0.00456127,0.00264364
 ,-0.00030368,0.00281285,0.00000005,-0.00556147,-0.00456107,-0.00264373
 ,-0.00030368,-0.00659900,-0.00728477,-0.06602438,0.02956655,-0.0000002
 7,0.18714067,-0.13298400,-0.12537419,-0.01236210,-0.01094806,-0.028422
 77,-0.00184743,-0.00417925,0.00218367,-0.00143206,-0.00067421,0.000531
 32,0.00001307,-0.00159868,0.00298352,-0.00068336,0.01105915,0.01453148
 ,0.00093888,0.13757872,-0.12367389,-0.26784421,-0.01662330,0.00188622,
 0.00573204,0.00019867,0.00133777,0.00153811,-0.00003644,0.00098449,0.0
 0026624,0.00011318,0.00393378,-0.00303809,0.00032118,-0.01789266,-0.01
 993276,-0.00239334,0.13467784,0.28058602,-0.01241883,-0.01788709,-0.03
 777137,-0.00137033,-0.00285972,0.00345230,-0.00130206,0.00021051,0.008
 25759,0.00004301,0.00000854,-0.00084476,-0.00057671,0.00045663,0.00474
 376,-0.00048275,0.00191108,0.00454345,0.01395746,0.01849451,0.02689035
 ,-0.01037335,0.02767585,-0.00165604,-0.13260654,0.12719038,-0.00942709
 ,0.01030514,-0.01591683,0.00076328,-0.00156954,-0.00309170,-0.00068830
 ,-0.00053221,-0.00048396,0.00007087,-0.00378073,-0.00226179,-0.0013170
 6,0.00061143,-0.00029548,0.00054736,0.13752620,-0.00284084,0.00594471,
 -0.00032422,0.12513404,-0.27229370,0.01220066,0.01441391,-0.01870721,0
 .00145681,-0.00383610,-0.00303680,-0.00046285,-0.00053929,0.00035865,-
 0.00003221,-0.00101004,0.00099805,-0.00020235,0.00032172,0.00074399,0.
 00006548,-0.13312982,0.28559638,-0.00152265,0.00262392,0.00606496,-0.0
 0953855,0.01217814,-0.03977109,0.00096392,-0.00170380,0.00271172,-0.00
 063827,-0.00044122,0.00463451,-0.00017277,-0.00012714,-0.00122299,-0.0
 0183775,-0.00002324,0.00863756,0.00061973,0.00009098,-0.00455667,0.011
 34493,-0.01290173,0.02646876,-0.00053222,0.00048396,0.00007086,-0.0015
 6954,0.00309171,-0.00068831,0.01030514,0.01591689,0.00076323,-0.132606
 59,-0.12719098,-0.00942671,-0.01037332,-0.02767587,-0.00165595,-0.0037
 8073,0.00226179,-0.00131706,0.00006510,-0.00009011,0.00008700,0.000670
 18,0.00078304,0.00001248,0.13752620,0.00053928,0.00035864,0.00003220,0
 .00383611,-0.00303677,0.00046287,-0.01441392,-0.01870726,-0.00145675,-
 0.12513463,-0.27229497,-0.01220000,0.00284082,0.00594469,0.00032422,0.
 00101004,0.00099806,0.00020237,-0.00010138,0.00001015,-0.00001329,-0.0
 0078304,-0.00094212,-0.00010066,0.13313040,0.28559771,-0.00017276,0.00
 012714,-0.00122298,-0.00063829,0.00044124,0.00463451,0.00096397,0.0017
 0384,0.00271174,-0.00953818,-0.01217746,-0.03977083,-0.00152266,-0.002
 62391,0.00606494,-0.00183776,0.00002326,0.00863756,0.00008712,0.000005
 34,-0.00074852,0.00001248,0.00010066,0.00073348,0.01134453,0.01290099,
 0.02646850,-0.00159867,-0.00298352,-0.00068335,-0.00067420,-0.00053132
 ,0.00001307,-0.00417925,-0.00218368,-0.00143205,-0.01094816,0.02842280
 ,-0.00184752,-0.13298385,0.12537338,-0.01236244,0.01105914,-0.01453141
 ,0.00093892,0.00058462,-0.00080530,0.00002294,0.00006509,0.00010138,0.
 00008712,0.00061143,-0.00032172,0.00061974,0.13757867,-0.00393379,-0.0
 0303810,-0.00032117,-0.00098449,0.00026624,-0.00011318,-0.00133778,0.0
 0153811,0.00003646,-0.00188619,0.00573202,-0.00019867,0.12367311,-0.26
 784276,0.01662391,0.01789271,-0.01993281,0.00239342,0.00080531,-0.0009
 8785,0.00004578,0.00009011,0.00001015,-0.00000534,0.00029547,0.0007439
 9,-0.00009100,-0.13467712,0.28058463,-0.00057671,-0.00045661,0.0047437
 6,0.00004301,-0.00000854,-0.00084476,-0.00130205,-0.00021049,0.0082575
 7,-0.00137034,0.00285972,0.00345231,-0.01241917,0.01788771,-0.03777170
 ,-0.00048280,-0.00191102,0.00454346,0.00002294,-0.00004577,0.00030222,
 0.00008700,0.00001329,-0.00074852,0.00054736,-0.00006550,-0.00455667,0
 .01395784,-0.01849519,0.02689067,0.00481071,-0.00486077,0.00065747,-0.
 04134756,-0.01812234,-0.00583551,-0.35889121,0.00000032,-0.03926340,-0
 .04134758,0.01812224,-0.00583548,0.00481074,0.00486078,0.00065743,-0.0
 0035925,0.,0.00018423,-0.00086529,-0.00012060,0.00004178,0.00127011,0.
 00086199,0.00011084,0.00127013,-0.00086198,0.00011084,-0.00086529,0.00
 012060,0.00004178,1.15970287,-0.00506377,-0.00317619,-0.00074669,-0.02
 944286,0.00488872,-0.00289372,-0.00000005,-0.07123356,0.00000004,0.029
 44279,0.00488869,0.00289372,0.00506371,-0.00317619,0.00074670,0.000000
 03,-0.00578572,0.00000002,-0.00134726,0.00022246,-0.00014792,-0.000671
 08,0.00097347,-0.00003436,0.00067105,0.00097345,0.00003435,0.00134725,
 0.00022247,0.00014791,0.00000302,0.08736764,-0.00034099,-0.00001736,0.
 00288953,-0.00436505,-0.00125366,0.00598800,-0.03933555,0.00000011,-0.
 03353756,-0.00436511,0.00125362,0.00598778,-0.00034097,0.00001739,0.00
 288959,0.00068893,0.,-0.00020540,-0.00004685,-0.00002798,-0.00033731,0
 .00027704,0.00006632,-0.00165424,0.00027704,-0.00006633,-0.00165424,-0
 .00004686,0.00002798,-0.00033729,0.14630425,0.00000032,0.03557192,0.00
 429102,-0.00406113,-0.00008385,-0.00421826,-0.00136705,-0.00010062,0.0
 0637902,-0.00000028,0.00278834,-0.00421817,0.00136705,-0.00010065,0.00
 429102,0.00406113,-0.00008382,-0.00542244,-0.00000001,-0.00100462,-0.0
 0003293,0.00018160,-0.00005189,-0.00000514,0.00005940,0.00023119,-0.00
 000514,-0.00005940,0.00023119,-0.00003293,-0.00018160,-0.00005189,-0.7
 2649946,-0.00000283,-0.09798685,0.72166902,0.00010325,0.00057536,0.000
 07221,0.00077855,-0.00122855,-0.00007060,0.00000013,0.01020955,0.00000
 001,-0.00077856,-0.00122851,0.00007060,-0.00010322,0.00057537,-0.00007
 222,-0.00000002,0.00010083,0.,0.00013821,-0.00005019,0.00002467,0.0001
 6572,0.00015434,0.00002014,-0.00016573,0.00015434,-0.00002014,-0.00013
 821,-0.00005019,-0.00002467,-0.00000327,-0.01701297,-0.00000043,0.0000
 0313,0.00780623,0.00074297,-0.00072363,0.00024054,-0.00098231,-0.00052
 376,0.00047964,0.00225213,-0.00000005,0.00037700,-0.00098229,0.0005237
 8,0.00047970,0.00074296,0.00072363,0.00024052,-0.00096725,0.,-0.000113
 08,-0.00000406,0.00002929,-0.00004651,0.00005208,0.00002547,-0.0003204
 9,0.00005208,-0.00002547,-0.00032049,-0.00000406,-0.00002929,-0.000046
 52,-0.09658845,-0.00000036,-0.01520569,0.09497158,0.00000041,0.0141000
 2,-0.05040829,0.01153662,-0.00863043,0.00782808,0.00649483,0.00069658,
 -0.00873774,0.,-0.00043919,0.00782811,-0.00649482,0.00069657,-0.050408
 30,-0.01153672,-0.00863048,-0.27806866,-0.00000028,-0.04290533,0.00150
 321,-0.00046099,0.00097280,-0.00163672,-0.00030964,0.00003605,-0.00163
 671,0.00030964,0.00003606,0.00150320,0.00046099,0.00097281,-0.00231055
 ,-0.00000003,-0.00100581,0.00521850,0.00000003,0.00092508,0.49336547,0
 .03764884,0.00675048,0.00024960,-0.00008006,-0.00558619,-0.00114919,0.
 00000004,0.00057051,0.,0.00008000,-0.00558620,0.00114921,-0.03764883,0
 .00675047,-0.00024964,-0.00000012,-0.07084297,-0.00000023,-0.00121525,
 0.00297315,-0.00016649,0.00134684,0.00018882,0.00087912,-0.00134684,0.
 00018882,-0.00087912,0.00121524,0.00297315,0.00016649,0.00000001,0.000
 77346,0.,-0.00000003,0.00000412,0.,-0.00000038,0.09002690,-0.00229328,
 0.00222158,0.00825316,-0.00025371,-0.00035273,0.00697023,0.00006157,0.
 ,-0.00134297,-0.00025372,0.00035275,0.00697022,-0.00229319,-0.00222155
 ,0.00825309,-0.01597430,-0.00000026,-0.07530926,0.00040428,0.00015987,
 -0.00377795,0.00022303,-0.00000610,-0.00090311,0.00022302,0.00000609,-
 0.00090310,0.00040428,-0.00015989,-0.00377796,-0.00004700,0.,-0.000249
 19,0.00005121,0.,0.00002012,-0.06464048,0.00000167,0.28319619,0.003577
 06,-0.00348023,0.00116316,-0.00179057,-0.00063904,-0.00138812,0.002569
 06,0.,0.00015793,-0.00179055,0.00063904,-0.00138811,0.00357706,0.00348
 021,0.00116318,-0.05034092,0.00000024,0.02653500,-0.00013275,0.0002753
 1,0.00019754,0.00013784,-0.00000786,0.00015705,0.00013784,0.00000786,0
 .00015705,-0.00013275,-0.00027531,0.00019753,0.00078273,0.00000001,0.0
 0035332,-0.00162105,0.,-0.00024816,-0.09662142,0.00000026,0.04252563,0
 .56969870,0.00455056,0.00055350,0.00338009,-0.00074231,-0.00121312,0.0
 0083345,-0.00000005,0.00064102,0.,0.00074239,-0.00121313,-0.00083344,-
 0.00455072,0.00055344,-0.00338012,0.00000025,-0.00752938,0.00000013,0.
 00026567,-0.00039601,-0.00042759,0.00019415,0.00001243,-0.00040292,-0.
 00019415,0.00001243,0.00040292,-0.00026567,-0.00039602,0.00042759,-0.0
 0000001,-0.00001200,-0.00000001,0.00000003,-0.00001260,0.,0.00000029,-
 0.04501870,-0.00000086,0.00000010,0.57116049,-0.00878007,0.00139080,-0
 .00090925,0.00183661,0.00177436,0.00015762,-0.00295375,0.,-0.00010577,
 0.00183660,-0.00177434,0.00015763,-0.00878003,-0.00139081,-0.00090923,
 0.01628863,0.00000010,0.00644706,0.00029644,0.00000536,0.00043675,-0.0
 0052910,-0.00001333,-0.00008945,-0.00052909,0.00001333,-0.00008946,0.0
 0029644,-0.00000536,0.00043676,-0.00086288,-0.00000001,-0.00025375,0.0
 0179551,0.,0.00021088,0.06330889,-0.00000088,-0.17182109,0.08767746,-0
 .00000193,0.47581037,-0.00093587,0.00015030,-0.00081851,0.00027971,0.0
 0025835,-0.00000332,0.00007895,-0.00018562,0.00001891,-0.00038330,0.00
 017582,-0.00012567,0.00107588,-0.00041922,-0.00027632,0.00416760,0.003
 00292,0.00225438,0.00003619,-0.00008384,0.00002703,-0.00005076,-0.0000
 0583,0.00008088,0.00002437,-0.00000986,0.00006217,-0.00003563,-0.00012
 684,0.00025907,0.00000209,-0.00006519,-0.00000784,-0.00002777,0.000003
 41,-0.00000459,-0.00223885,0.01554110,0.01996498,-0.06614950,-0.047446
 73,-0.03334913,0.06418972,0.00033457,-0.00054723,-0.00020466,-0.000230
 05,0.00002152,-0.00003575,0.00020843,0.00002013,-0.00001550,0.00013969
 ,0.00010976,0.00005566,0.00108970,0.00003762,0.00022126,-0.00146250,0.
 00098294,0.00014057,-0.00006602,0.00011232,0.00007187,0.00001046,-0.00
 000384,0.00001063,0.00004241,0.00000465,0.00003042,-0.00011686,0.00000
 299,-0.00006119,0.00006409,0.00003021,0.00000370,-0.00009688,0.0000016
 6,0.00000094,0.00452716,0.00737199,-0.00199797,-0.04580011,-0.23175510
 ,-0.10860889,0.04829272,0.24253360,0.00176957,-0.00033446,0.00081848,-
 0.00071965,-0.00036553,0.00000541,0.00037799,0.00021297,-0.00005110,0.
 00018530,0.00021786,-0.00003965,0.00053279,-0.00007066,0.00002796,-0.0
 0648507,-0.00048362,-0.00130105,-0.00004957,0.00004821,-0.00009420,0.0
 0008767,0.00000906,-0.00004523,0.00006874,-0.00000402,0.00008661,0.000
 09420,0.00024711,-0.00025839,0.00013633,0.00007298,0.00005074,-0.00026
 371,0.00000123,-0.00004011,0.00986036,-0.02125026,-0.02851950,-0.02995
 596,-0.10629228,-0.11512676,0.02426874,0.12243802,0.13597151,-0.000564
 44,-0.00019470,-0.00000122,0.00020607,0.00013586,-0.00013221,-0.000325
 24,0.,0.00001050,0.00020608,-0.00013586,-0.00013220,-0.00056444,0.0001
 9469,-0.00000122,0.00096705,0.00000003,0.00337911,0.00001237,0.0000190
 2,0.00004659,-0.00005536,-0.00000594,0.00000362,-0.00005536,0.00000594
 ,0.00000362,0.00001238,-0.00001902,0.00004659,-0.00016527,0.,-0.000050
 88,0.00026247,0.,0.00004687,-0.02294043,0.00000002,0.00193249,-0.29575
 145,-0.00000028,-0.08420262,-0.00299772,0.00016991,-0.00268786,0.32475
 097,0.00018292,-0.00004044,0.00007814,-0.00031427,-0.00004961,-0.00008
 988,0.,0.00015928,0.,0.00031427,-0.00004961,0.00008989,-0.00018291,-0.
 00004044,-0.00007813,0.,0.00062173,-0.00000003,-0.00002873,0.00006165,
 0.00015184,0.00000260,-0.00000199,-0.00003210,-0.00000260,-0.00000199,
 0.00003210,0.00002873,0.00006165,-0.00015185,0.,0.00002583,0.,0.,-0.00
 000044,0.,0.00000027,0.00108982,0.,-0.00000038,-0.05363374,-0.00000004
 ,-0.02618820,0.00187649,-0.00827777,0.00000029,0.04804523,0.00091481,0
 .00006088,0.00021831,-0.00005648,-0.00025028,0.00027187,0.00013485,0.,
 -0.00004735,-0.00005648,0.00025028,0.00027187,0.00091480,-0.00006087,0
 .00021832,0.00232268,-0.00000004,-0.00350211,-0.00000870,-0.00009265,-
 0.00019073,0.00008311,0.00000100,-0.00002581,0.00008311,-0.00000100,-0
 .00002581,-0.00000870,0.00009265,-0.00019073,0.00005145,0.,0.00000636,
 -0.00007741,0.,-0.00001540,0.03888608,0.,0.00146087,-0.09734778,-0.000
 00004,-0.07922206,-0.01513082,0.00178166,-0.00318744,0.08442665,0.0000
 0016,0.08714737,0.00107589,0.00041922,-0.00027633,-0.00038330,-0.00017
 582,-0.00012567,0.00007894,0.00018562,0.00001891,0.00027972,-0.0002583
 5,-0.00000332,-0.00093587,-0.00015031,-0.00081851,0.00416763,-0.003002
 90,0.00225443,-0.00003562,0.00012684,0.00025907,0.00002437,0.00000986,
 0.00006217,-0.00005076,0.00000583,0.00008088,0.00003619,0.00008384,0.0
 0002703,0.00000209,0.00006519,-0.00000784,-0.00002776,-0.00000341,-0.0
 0000459,-0.00223890,-0.01554084,0.01996519,-0.06614932,0.04744649,-0.0
 3334991,0.00296490,-0.00710671,0.00278012,-0.00299767,0.02618800,-0.01
 513116,0.06418949,-0.00108970,0.00003762,-0.00022124,-0.00013967,0.000
 10976,-0.00005565,-0.00020842,0.00002012,0.00001550,0.00023003,0.00002
 153,0.00003575,-0.00033453,-0.00054723,0.00020467,0.00146236,0.0009829
 5,-0.00014062,0.00011685,0.00000299,0.00006119,-0.00004241,0.00000465,
 -0.00003042,-0.00001046,-0.00000384,-0.00001063,0.00006602,0.00011232,
 -0.00007187,-0.00006409,0.00003021,-0.00000370,0.00009688,0.00000166,-
 0.00000094,-0.00452696,0.00737235,0.00199741,0.04579991,-0.23175349,0.
 10861163,0.00710672,-0.02079972,0.01383117,-0.00016996,0.00187658,-0.0
 0178173,-0.04829257,0.24253155,0.00053281,0.00007065,0.00002795,0.0001
 8530,-0.00021786,-0.00003965,0.00037800,-0.00021297,-0.00005110,-0.000
 71966,0.00036553,0.00000541,0.00176958,0.00033448,0.00081848,-0.006485
 10,0.00048361,-0.00130107,0.00009420,-0.00024710,-0.00025839,0.0000687
 4,0.00000402,0.00008662,0.00008767,-0.00000906,-0.00004523,-0.00004957
 ,-0.00004821,-0.00009420,0.00013633,-0.00007297,0.00005074,-0.00026371
 ,-0.00000124,-0.00004011,0.00986044,0.02124972,-0.02851973,-0.02995672
 ,0.10629500,-0.11513024,0.00278002,-0.01383076,0.01170272,-0.00268783,
 0.00827768,-0.00318751,0.02426953,-0.12244051,0.13597531\\-0.00004863,
 0.00003246,0.00000860,0.00002410,0.00000864,0.00000234,0.00004716,0.00
 000036,-0.00003124,0.00002418,-0.00000807,0.00000238,-0.00004854,-0.00
 003351,0.00000862,0.00002415,0.00000037,-0.00002073,-0.00001693,0.0000
 0479,0.00001036,-0.00000298,-0.00001086,0.00000303,-0.00000313,0.00001
 045,0.00000300,-0.00001715,-0.00000436,0.00001031,0.00005808,-0.000000
 39,0.00001969,-0.00006721,0.00000011,-0.00001316,0.00004403,0.00000013
 ,-0.00002773,-0.00000600,-0.00000070,0.00002268,0.00000091,0.00000913,
 0.00000237,-0.00001283,0.00000005,-0.00000269,0.00000079,-0.00000859,0
 .00000214\\\@


 The theorems and results in mathematical physics are
 not theorems and results about Nature, but about our
 description of it.
                   --Gerard 't Hooft
 Job cpu time:       0 days  1 hours  3 minutes 42.9 seconds.
 Elapsed time:       0 days  0 hours  2 minutes  7.5 seconds.
 File lengths (MBytes):  RWF=    153 Int=      0 D2E=      0 Chk=      6 Scr=      1
 Normal termination of Gaussian 16 at Sun Sep 17 09:03:15 2023.
