 Entering Gaussian System, Link 0=/home/ubuntu/g16/g16
 Input=/home/ubuntu/substrates/MOLECULE_9.gjf
 Output=/home/ubuntu/substrates/MOLECULE_9.log
 Initial command:
 /home/ubuntu/g16/l1.exe "/home/ubuntu/Scratch/Gau-17182.inp" -scrdir="/home/ubuntu/Scratch/"
 Entering Link 1 = /home/ubuntu/g16/l1.exe PID=     17184.
  
 Copyright (c) 1988-2017, Gaussian, Inc.  All Rights Reserved.
  
 This is part of the Gaussian(R) 16 program.  It is based on
 the Gaussian(R) 09 system (copyright 2009, Gaussian, Inc.),
 the Gaussian(R) 03 system (copyright 2003, Gaussian, Inc.),
 the Gaussian(R) 98 system (copyright 1998, Gaussian, Inc.),
 the Gaussian(R) 94 system (copyright 1995, Gaussian, Inc.),
 the Gaussian 92(TM) system (copyright 1992, Gaussian, Inc.),
 the Gaussian 90(TM) system (copyright 1990, Gaussian, Inc.),
 the Gaussian 88(TM) system (copyright 1988, Gaussian, Inc.),
 the Gaussian 86(TM) system (copyright 1986, Carnegie Mellon
 University), and the Gaussian 82(TM) system (copyright 1983,
 Carnegie Mellon University). Gaussian is a federally registered
 trademark of Gaussian, Inc.
  
 This software contains proprietary and confidential information,
 including trade secrets, belonging to Gaussian, Inc.
  
 This software is provided under written license and may be
 used, copied, transmitted, or stored only in accord with that
 written license.
  
 The following legend is applicable only to US Government
 contracts under FAR:
  
                    RESTRICTED RIGHTS LEGEND
  
 Use, reproduction and disclosure by the US Government is
 subject to restrictions as set forth in subparagraphs (a)
 and (c) of the Commercial Computer Software - Restricted
 Rights clause in FAR 52.227-19.
  
 Gaussian, Inc.
 340 Quinnipiac St., Bldg. 40, Wallingford CT 06492
  
  
 ---------------------------------------------------------------
 Warning -- This program may not be used in any manner that
 competes with the business of Gaussian, Inc. or will provide
 assistance to any competitor of Gaussian, Inc.  The licensee
 of this program is prohibited from giving any competitor of
 Gaussian, Inc. access to this program.  By using this program,
 the user acknowledges that Gaussian, Inc. is engaged in the
 business of creating and licensing software in the field of
 computational chemistry and represents and warrants to the
 licensee that it is not a competitor of Gaussian, Inc. and that
 it will not use this program in any manner prohibited above.
 ---------------------------------------------------------------
  

 Cite this work as:
 Gaussian 16, Revision B.01,
 M. J. Frisch, G. W. Trucks, H. B. Schlegel, G. E. Scuseria, 
 M. A. Robb, J. R. Cheeseman, G. Scalmani, V. Barone, 
 G. A. Petersson, H. Nakatsuji, X. Li, M. Caricato, A. V. Marenich, 
 J. Bloino, B. G. Janesko, R. Gomperts, B. Mennucci, H. P. Hratchian, 
 J. V. Ortiz, A. F. Izmaylov, J. L. Sonnenberg, D. Williams-Young, 
 F. Ding, F. Lipparini, F. Egidi, J. Goings, B. Peng, A. Petrone, 
 T. Henderson, D. Ranasinghe, V. G. Zakrzewski, J. Gao, N. Rega, 
 G. Zheng, W. Liang, M. Hada, M. Ehara, K. Toyota, R. Fukuda, 
 J. Hasegawa, M. Ishida, T. Nakajima, Y. Honda, O. Kitao, H. Nakai, 
 T. Vreven, K. Throssell, J. A. Montgomery, Jr., J. E. Peralta, 
 F. Ogliaro, M. J. Bearpark, J. J. Heyd, E. N. Brothers, K. N. Kudin, 
 V. N. Staroverov, T. A. Keith, R. Kobayashi, J. Normand, 
 K. Raghavachari, A. P. Rendell, J. C. Burant, S. S. Iyengar, 
 J. Tomasi, M. Cossi, J. M. Millam, M. Klene, C. Adamo, R. Cammi, 
 J. W. Ochterski, R. L. Martin, K. Morokuma, O. Farkas, 
 J. B. Foresman, and D. J. Fox, Gaussian, Inc., Wallingford CT, 2016.
 
 ******************************************
 Gaussian 16:  EM64L-G16RevB.01 20-Dec-2017
                17-Sep-2023 
 ******************************************
 %nprocshared=30
 Will use up to   30 processors via shared memory.
 %mem=30GB
 %chk=MOLECULE_9.chk
 ----------------------------------------------------------------------
 # opt freq b3lyp/6-31+g(d) geom=connectivity empiricaldispersion=gd3 v
 olume
 ----------------------------------------------------------------------
 1/18=20,19=15,26=3,38=1,57=2/1,3;
 2/9=110,12=2,17=6,18=5,40=1/2;
 3/5=1,6=6,7=11,11=2,25=1,30=1,71=1,74=-5,124=31/1,2,3;
 4//1;
 5/5=2,38=5/2;
 6/7=2,8=2,9=2,10=2,28=1,44=1/1,4;
 7//1,2,3,16;
 1/18=20,19=15,26=3/3(2);
 2/9=110/2;
 99//99;
 2/9=110/2;
 3/5=1,6=6,7=11,11=2,25=1,30=1,71=1,74=-5,124=31/1,2,3;
 4/5=5,16=3,69=1/1;
 5/5=2,38=5/2;
 7//1,2,3,16;
 1/18=20,19=15,26=3/3(-5);
 2/9=110/2;
 6/7=2,8=2,9=2,10=2,19=2,28=1,44=1/1,4;
 99/9=1/99;
 -------------------
 Title Card Required
 -------------------
 Symbolic Z-matrix:
 Charge =  0 Multiplicity = 1
 C                    -1.06049  -1.21727  -0.00001 
 C                     0.33478  -1.20532  -0.00004 
 C                     1.05978   0.00029  -0.00003 
 C                     0.33496   1.20563  0. 
 C                    -1.06055   1.21745   0.00002 
 C                    -1.7442    0.00029   0.00001 
 H                    -1.61313  -2.15154  -0.00002 
 H                     0.8731   -2.14919  -0.00006 
 H                     0.87284   2.14976  0. 
 H                    -1.61354   2.15157   0.00004 
 B                     2.62093  -0.00004  -0.00007 
 O                     3.26847   1.21541  -0.00001 
 H                     4.23543   1.19113   0.00006 
 O                     3.26797  -1.21579   0. 
 H                     4.23494  -1.19195   0.00001 
 Cl                   -3.5042   -0.00018   0.00004 
 

 GradGradGradGradGradGradGradGradGradGradGradGradGradGradGradGradGradGrad
 Berny optimization.
 Initialization pass.
                           ----------------------------
                           !    Initial Parameters    !
                           ! (Angstroms and Degrees)  !
 --------------------------                            --------------------------
 ! Name  Definition              Value          Derivative Info.                !
 --------------------------------------------------------------------------------
 ! R1    R(1,2)                  1.3953         estimate D2E/DX2                !
 ! R2    R(1,6)                  1.3964         estimate D2E/DX2                !
 ! R3    R(1,7)                  1.0855         estimate D2E/DX2                !
 ! R4    R(2,3)                  1.4068         estimate D2E/DX2                !
 ! R5    R(2,8)                  1.0866         estimate D2E/DX2                !
 ! R6    R(3,4)                  1.4065         estimate D2E/DX2                !
 ! R7    R(3,11)                 1.5612         estimate D2E/DX2                !
 ! R8    R(4,5)                  1.3956         estimate D2E/DX2                !
 ! R9    R(4,9)                  1.0866         estimate D2E/DX2                !
 ! R10   R(5,6)                  1.396          estimate D2E/DX2                !
 ! R11   R(5,10)                 1.0855         estimate D2E/DX2                !
 ! R12   R(6,16)                 1.76           estimate D2E/DX2                !
 ! R13   R(11,12)                1.3772         estimate D2E/DX2                !
 ! R14   R(11,14)                1.3772         estimate D2E/DX2                !
 ! R15   R(12,13)                0.9673         estimate D2E/DX2                !
 ! R16   R(14,15)                0.9673         estimate D2E/DX2                !
 ! A1    A(2,1,6)              118.8254         estimate D2E/DX2                !
 ! A2    A(2,1,7)              121.0961         estimate D2E/DX2                !
 ! A3    A(6,1,7)              120.0786         estimate D2E/DX2                !
 ! A4    A(1,2,3)              121.5119         estimate D2E/DX2                !
 ! A5    A(1,2,8)              119.2069         estimate D2E/DX2                !
 ! A6    A(3,2,8)              119.2812         estimate D2E/DX2                !
 ! A7    A(2,3,4)              117.9589         estimate D2E/DX2                !
 ! A8    A(2,3,11)             121.009          estimate D2E/DX2                !
 ! A9    A(4,3,11)             121.0321         estimate D2E/DX2                !
 ! A10   A(3,4,5)              121.5054         estimate D2E/DX2                !
 ! A11   A(3,4,9)              119.3095         estimate D2E/DX2                !
 ! A12   A(5,4,9)              119.1851         estimate D2E/DX2                !
 ! A13   A(4,5,6)              118.8366         estimate D2E/DX2                !
 ! A14   A(4,5,10)             121.1102         estimate D2E/DX2                !
 ! A15   A(6,5,10)             120.0533         estimate D2E/DX2                !
 ! A16   A(1,6,5)              121.3619         estimate D2E/DX2                !
 ! A17   A(1,6,16)             119.3009         estimate D2E/DX2                !
 ! A18   A(5,6,16)             119.3372         estimate D2E/DX2                !
 ! A19   A(3,11,12)            118.0348         estimate D2E/DX2                !
 ! A20   A(3,11,14)            118.0347         estimate D2E/DX2                !
 ! A21   A(12,11,14)           123.9305         estimate D2E/DX2                !
 ! A22   A(11,12,13)           116.6089         estimate D2E/DX2                !
 ! A23   A(11,14,15)           116.6108         estimate D2E/DX2                !
 ! D1    D(6,1,2,3)             -0.0001         estimate D2E/DX2                !
 ! D2    D(6,1,2,8)           -179.9999         estimate D2E/DX2                !
 ! D3    D(7,1,2,3)            179.9999         estimate D2E/DX2                !
 ! D4    D(7,1,2,8)              0.0            estimate D2E/DX2                !
 ! D5    D(2,1,6,5)              0.0001         estimate D2E/DX2                !
 ! D6    D(2,1,6,16)          -180.0            estimate D2E/DX2                !
 ! D7    D(7,1,6,5)           -179.9999         estimate D2E/DX2                !
 ! D8    D(7,1,6,16)             0.0001         estimate D2E/DX2                !
 ! D9    D(1,2,3,4)              0.0003         estimate D2E/DX2                !
 ! D10   D(1,2,3,11)          -179.9996         estimate D2E/DX2                !
 ! D11   D(8,2,3,4)           -179.9999         estimate D2E/DX2                !
 ! D12   D(8,2,3,11)             0.0002         estimate D2E/DX2                !
 ! D13   D(2,3,4,5)             -0.0005         estimate D2E/DX2                !
 ! D14   D(2,3,4,9)           -179.9999         estimate D2E/DX2                !
 ! D15   D(11,3,4,5)           179.9994         estimate D2E/DX2                !
 ! D16   D(11,3,4,9)             0.0            estimate D2E/DX2                !
 ! D17   D(2,3,11,12)         -179.9976         estimate D2E/DX2                !
 ! D18   D(2,3,11,14)           -0.0047         estimate D2E/DX2                !
 ! D19   D(4,3,11,12)            0.0024         estimate D2E/DX2                !
 ! D20   D(4,3,11,14)          179.9954         estimate D2E/DX2                !
 ! D21   D(3,4,5,6)              0.0005         estimate D2E/DX2                !
 ! D22   D(3,4,5,10)          -179.9997         estimate D2E/DX2                !
 ! D23   D(9,4,5,6)            179.9999         estimate D2E/DX2                !
 ! D24   D(9,4,5,10)            -0.0003         estimate D2E/DX2                !
 ! D25   D(4,5,6,1)             -0.0003         estimate D2E/DX2                !
 ! D26   D(4,5,6,16)           179.9998         estimate D2E/DX2                !
 ! D27   D(10,5,6,1)           179.9999         estimate D2E/DX2                !
 ! D28   D(10,5,6,16)            0.0            estimate D2E/DX2                !
 ! D29   D(3,11,12,13)         179.9937         estimate D2E/DX2                !
 ! D30   D(14,11,12,13)          0.0013         estimate D2E/DX2                !
 ! D31   D(3,11,14,15)        -179.9978         estimate D2E/DX2                !
 ! D32   D(12,11,14,15)         -0.0053         estimate D2E/DX2                !
 --------------------------------------------------------------------------------
 Trust Radius=3.00D-01 FncErr=1.00D-07 GrdErr=1.00D-06 EigMax=2.50D+02 EigMin=1.00D-04
 Number of steps in this run=     81 maximum allowed number of steps=    100.
 GradGradGradGradGradGradGradGradGradGradGradGradGradGradGradGradGradGrad

                          Input orientation:                          
 ---------------------------------------------------------------------
 Center     Atomic      Atomic             Coordinates (Angstroms)
 Number     Number       Type             X           Y           Z
 ---------------------------------------------------------------------
      1          6           0       -1.060485   -1.217268   -0.000013
      2          6           0        0.334775   -1.205315   -0.000035
      3          6           0        1.059777    0.000286   -0.000033
      4          6           0        0.334960    1.205628   -0.000002
      5          6           0       -1.060553    1.217450    0.000016
      6          6           0       -1.744202    0.000294    0.000013
      7          1           0       -1.613125   -2.151537   -0.000017
      8          1           0        0.873103   -2.149190   -0.000057
      9          1           0        0.872836    2.149756   -0.000001
     10          1           0       -1.613536    2.151570    0.000035
     11          5           0        2.620929   -0.000042   -0.000066
     12          8           0        3.268469    1.215405   -0.000012
     13          1           0        4.235435    1.191132    0.000061
     14          8           0        3.267968   -1.215785    0.000003
     15          1           0        4.234940   -1.191952    0.000014
     16         17           0       -3.504202   -0.000176    0.000041
 ---------------------------------------------------------------------
                    Distance matrix (angstroms):
                    1          2          3          4          5
     1  C    0.000000
     2  C    1.395311   0.000000
     3  C    2.444984   1.406805   0.000000
     4  C    2.796014   2.410943   1.406488   0.000000
     5  C    2.434718   2.795842   2.444849   1.395563   0.000000
     6  C    1.396398   2.403256   2.803979   2.403278   1.396010
     7  H    1.085481   2.165560   3.431435   3.881442   3.414002
     8  H    2.146449   1.086599   2.157567   3.397705   3.882434
     9  H    3.882600   3.397942   2.157584   1.086595   2.146436
    10  H    3.413932   3.881313   3.431417   2.165974   1.085528
    11  B    3.877428   2.584412   1.561152   2.584433   3.877576
    12  O    4.965656   3.803478   2.520880   2.933525   4.329022
    13  H    5.817831   4.578002   3.391595   3.900502   5.296053
    14  O    4.328453   2.933212   2.520900   3.803390   4.965554
    15  H    5.295486   3.900188   3.391621   4.578016   5.817857
    16  Cl   2.730030   4.023693   4.563979   4.024069   2.730208
                    6          7          8          9         10
     6  C    0.000000
     7  H    2.155820   0.000000
     8  H    3.386823   2.486229   0.000000
     9  H    3.386602   4.968010   4.298946   0.000000
    10  H    2.155241   4.303107   4.967888   2.486373   0.000000
    11  B    4.365131   4.749331   2.770150   2.770823   4.749750
    12  O    5.157845   5.930115   4.130167   2.571394   4.970953
    13  H    6.097061   6.736400   4.739518   3.496574   5.927301
    14  O    5.157586   4.969980   2.570335   4.130802   5.930275
    15  H    6.096851   5.926269   3.495462   4.740333   6.736751
    16  Cl   1.760000   2.864354   4.876378   4.876543   2.864372
                   11         12         13         14         15
    11  B    0.000000
    12  O    1.377178   0.000000
    13  H    2.006371   0.967271   0.000000
    14  O    1.377204   2.431190   2.594078   0.000000
    15  H    2.006410   2.594115   2.383084   0.967266   0.000000
    16  Cl   6.125131   6.880895   7.830785   6.880406   7.830367
                   16
    16  Cl   0.000000
 Stoichiometry    C6H6BClO2
 Framework group  C1[X(C6H6BClO2)]
 Deg. of freedom    42
 Full point group                 C1      NOp   1
 Largest Abelian subgroup         C1      NOp   1
 Largest concise Abelian subgroup C1      NOp   1
                         Standard orientation:                         
 ---------------------------------------------------------------------
 Center     Atomic      Atomic             Coordinates (Angstroms)
 Number     Number       Type             X           Y           Z
 ---------------------------------------------------------------------
      1          6           0        1.060485   -1.217268    0.000013
      2          6           0       -0.334775   -1.205315    0.000035
      3          6           0       -1.059777    0.000286    0.000033
      4          6           0       -0.334960    1.205628    0.000002
      5          6           0        1.060553    1.217450   -0.000016
      6          6           0        1.744202    0.000294   -0.000013
      7          1           0        1.613125   -2.151537    0.000017
      8          1           0       -0.873103   -2.149190    0.000057
      9          1           0       -0.872836    2.149756    0.000001
     10          1           0        1.613536    2.151570   -0.000035
     11          5           0       -2.620929   -0.000042    0.000066
     12          8           0       -3.268469    1.215405    0.000012
     13          1           0       -4.235435    1.191132   -0.000061
     14          8           0       -3.267968   -1.215785   -0.000003
     15          1           0       -4.234940   -1.191952   -0.000014
     16         17           0        3.504202   -0.000176   -0.000041
 ---------------------------------------------------------------------
 Rotational constants (GHZ):           3.6301062           0.5215801           0.4560535
 Standard basis: 6-31+G(d) (6D, 7F)
 There are   206 symmetry adapted cartesian basis functions of A   symmetry.
 There are   206 symmetry adapted basis functions of A   symmetry.
   206 basis functions,   368 primitive gaussians,   206 cartesian basis functions
    40 alpha electrons       40 beta electrons
       nuclear repulsion energy       530.7920494910 Hartrees.
 NAtoms=   16 NActive=   16 NUniq=   16 SFac= 1.00D+00 NAtFMM=   60 NAOKFM=F Big=F
 Integral buffers will be    131072 words long.
 Raffenetti 2 integral format.
 Two-electron integral symmetry is turned on.
 Nuclear repulsion after empirical dispersion term =      530.7797583532 Hartrees.
 One-electron integrals computed using PRISM.
 NBasis=   206 RedAO= T EigKep=  2.88D-06  NBF=   206
 NBsUse=   206 1.00D-06 EigRej= -1.00D+00 NBFU=   206
 ExpMin= 3.15D-02 ExpMax= 2.52D+04 ExpMxC= 3.78D+03 IAcc=3 IRadAn=         5 AccDes= 0.00D+00
 Harris functional with IExCor=  402 and IRadAn=       5 diagonalized for initial guess.
 HarFok:  IExCor=  402 AccDes= 0.00D+00 IRadAn=         5 IDoV= 1 UseB2=F ITyADJ=14
 ICtDFT=  3500011 ScaDFX=  1.000000  1.000000  1.000000  1.000000
 FoFCou: FMM=F IPFlag=           0 FMFlag=      100000 FMFlg1=           0
         NFxFlg=           0 DoJE=T BraDBF=F KetDBF=T FulRan=T
         wScrn=  0.000000 ICntrl=       500 IOpCl=  0 I1Cent=   200000004 NGrid=           0
         NMat0=    1 NMatS0=      1 NMatT0=    0 NMatD0=    1 NMtDS0=    0 NMtDT0=    0
 Petite list used in FoFCou.
 Requested convergence on RMS density matrix=1.00D-08 within 128 cycles.
 Requested convergence on MAX density matrix=1.00D-06.
 Requested convergence on             energy=1.00D-06.
 No special actions if energy rises.
 SCF Done:  E(RB3LYP) =  -867.891969643     A.U. after   14 cycles
            NFock= 14  Conv=0.73D-08     -V/T= 2.0061

 **********************************************************************

            Population analysis using the SCF Density.

 **********************************************************************

 Orbital symmetries:
       Occupied  (A) (A) (A) (A) (A) (A) (A) (A) (A) (A) (A) (A)
                 (A) (A) (A) (A) (A) (A) (A) (A) (A) (A) (A) (A)
                 (A) (A) (A) (A) (A) (A) (A) (A) (A) (A) (A) (A)
                 (A) (A) (A) (A)
       Virtual   (A) (A) (A) (A) (A) (A) (A) (A) (A) (A) (A) (A)
                 (A) (A) (A) (A) (A) (A) (A) (A) (A) (A) (A) (A)
                 (A) (A) (A) (A) (A) (A) (A) (A) (A) (A) (A) (A)
                 (A) (A) (A) (A) (A) (A) (A) (A) (A) (A) (A) (A)
                 (A) (A) (A) (A) (A) (A) (A) (A) (A) (A) (A) (A)
                 (A) (A) (A) (A) (A) (A) (A) (A) (A) (A) (A) (A)
                 (A) (A) (A) (A) (A) (A) (A) (A) (A) (A) (A) (A)
                 (A) (A) (A) (A) (A) (A) (A) (A) (A) (A) (A) (A)
                 (A) (A) (A) (A) (A) (A) (A) (A) (A) (A) (A) (A)
                 (A) (A) (A) (A) (A) (A) (A) (A) (A) (A) (A) (A)
                 (A) (A) (A) (A) (A) (A) (A) (A) (A) (A) (A) (A)
                 (A) (A) (A) (A) (A) (A) (A) (A) (A) (A) (A) (A)
                 (A) (A) (A) (A) (A) (A) (A) (A) (A) (A) (A) (A)
                 (A) (A) (A) (A) (A) (A) (A) (A) (A) (A)
 The electronic state is 1-A.
 Alpha  occ. eigenvalues -- -101.55345 -19.18568 -19.18567 -10.25990 -10.20649
 Alpha  occ. eigenvalues --  -10.20649 -10.20466 -10.20463 -10.18416  -9.46867
 Alpha  occ. eigenvalues --   -7.23265  -7.22309  -7.22272  -6.80674  -1.05881
 Alpha  occ. eigenvalues --   -1.02580  -0.89237  -0.83598  -0.75971  -0.73662
 Alpha  occ. eigenvalues --   -0.62310  -0.61553  -0.57915  -0.56478  -0.51192
 Alpha  occ. eigenvalues --   -0.46531  -0.46449  -0.44799  -0.43417  -0.41131
 Alpha  occ. eigenvalues --   -0.41019  -0.39256  -0.36569  -0.35440  -0.34407
 Alpha  occ. eigenvalues --   -0.34348  -0.33277  -0.31482  -0.26492  -0.25055
 Alpha virt. eigenvalues --   -0.04273  -0.03502  -0.02012   0.00744   0.01291
 Alpha virt. eigenvalues --    0.01556   0.02914   0.03707   0.03822   0.05347
 Alpha virt. eigenvalues --    0.05973   0.07686   0.08613   0.08869   0.08969
 Alpha virt. eigenvalues --    0.09265   0.11195   0.11202   0.11556   0.12767
 Alpha virt. eigenvalues --    0.13360   0.14168   0.14508   0.15132   0.15716
 Alpha virt. eigenvalues --    0.15820   0.16451   0.16791   0.17434   0.18700
 Alpha virt. eigenvalues --    0.19944   0.20103   0.20237   0.21542   0.22313
 Alpha virt. eigenvalues --    0.22520   0.22990   0.23016   0.23465   0.23507
 Alpha virt. eigenvalues --    0.24525   0.24834   0.25023   0.26022   0.28957
 Alpha virt. eigenvalues --    0.29222   0.29972   0.31179   0.32452   0.33521
 Alpha virt. eigenvalues --    0.33870   0.34381   0.36562   0.41923   0.42252
 Alpha virt. eigenvalues --    0.45048   0.45452   0.47957   0.54083   0.54796
 Alpha virt. eigenvalues --    0.58054   0.62126   0.62902   0.64016   0.66758
 Alpha virt. eigenvalues --    0.67442   0.67536   0.68727   0.70511   0.71085
 Alpha virt. eigenvalues --    0.71729   0.73885   0.73886   0.76994   0.77852
 Alpha virt. eigenvalues --    0.80020   0.81034   0.84264   0.87087   0.88492
 Alpha virt. eigenvalues --    0.90740   0.91990   0.93033   0.94390   0.94601
 Alpha virt. eigenvalues --    0.96413   0.97315   1.01244   1.04395   1.05436
 Alpha virt. eigenvalues --    1.08294   1.10016   1.11262   1.11649   1.13682
 Alpha virt. eigenvalues --    1.15709   1.16400   1.19222   1.21762   1.21824
 Alpha virt. eigenvalues --    1.24052   1.24493   1.26056   1.27198   1.30044
 Alpha virt. eigenvalues --    1.35303   1.35931   1.41434   1.42844   1.44033
 Alpha virt. eigenvalues --    1.46550   1.46606   1.49637   1.50090   1.54904
 Alpha virt. eigenvalues --    1.55430   1.65136   1.65684   1.70385   1.73047
 Alpha virt. eigenvalues --    1.73416   1.76995   1.79840   1.84083   1.86314
 Alpha virt. eigenvalues --    1.89152   1.95030   1.98055   2.08296   2.08376
 Alpha virt. eigenvalues --    2.10103   2.13616   2.14387   2.15640   2.17493
 Alpha virt. eigenvalues --    2.21518   2.24911   2.24997   2.30045   2.37838
 Alpha virt. eigenvalues --    2.38157   2.42162   2.51809   2.58540   2.60027
 Alpha virt. eigenvalues --    2.64095   2.66483   2.74797   2.74877   2.77399
 Alpha virt. eigenvalues --    2.80936   2.90755   2.91655   2.98290   3.12947
 Alpha virt. eigenvalues --    3.36625   3.69219   4.15867   4.23682   4.24987
 Alpha virt. eigenvalues --    4.30650   4.36945   4.37757   4.39258   4.46352
 Alpha virt. eigenvalues --    4.70373
          Condensed to atoms (all electrons):
               1          2          3          4          5          6
     1  C   12.019674  -6.389366   1.389306   1.558714  -1.591367  -0.702535
     2  C   -6.389366  17.532864  -2.641132  -5.686614   1.561298   1.200457
     3  C    1.389306  -2.641132  10.708754  -2.654344   1.393909  -1.665943
     4  C    1.558714  -5.686614  -2.654344  17.538609  -6.387186   1.207858
     5  C   -1.591367   1.561298   1.393909  -6.387186  12.017406  -0.709768
     6  C   -0.702535   1.200457  -1.665943   1.207858  -0.709768   6.416524
     7  H    0.234890  -0.004200   0.015557  -0.025428   0.056533   0.015763
     8  H   -0.017154   0.234641   0.039139   0.033499  -0.010149   0.000801
     9  H   -0.010145   0.033455   0.039139   0.234817  -0.017324   0.000816
    10  H    0.056547  -0.025444   0.015480  -0.004392   0.234869   0.016074
    11  B   -0.156961   0.128066   0.413658   0.128205  -0.156580   0.052447
    12  O    0.104740  -0.542847  -0.101633   0.532472  -0.030273  -0.005772
    13  H    0.004349  -0.022060  -0.010313   0.026224   0.002841  -0.000994
    14  O   -0.030352   0.532179  -0.100594  -0.543241   0.104680  -0.005913
    15  H    0.002851   0.026274  -0.010309  -0.022116   0.004343  -0.000997
    16  Cl  -0.181971   0.154005  -0.100352   0.153893  -0.181720  -0.050994
               7          8          9         10         11         12
     1  C    0.234890  -0.017154  -0.010145   0.056547  -0.156961   0.104740
     2  C   -0.004200   0.234641   0.033455  -0.025444   0.128066  -0.542847
     3  C    0.015557   0.039139   0.039139   0.015480   0.413658  -0.101633
     4  C   -0.025428   0.033499   0.234817  -0.004392   0.128205   0.532472
     5  C    0.056533  -0.010149  -0.017324   0.234869  -0.156580  -0.030273
     6  C    0.015763   0.000801   0.000816   0.016074   0.052447  -0.005772
     7  H    0.511258  -0.004525   0.000014  -0.000154   0.000621   0.000019
     8  H   -0.004525   0.521803  -0.000131   0.000014  -0.011331   0.001274
     9  H    0.000014  -0.000131   0.521798  -0.004522  -0.011303   0.007557
    10  H   -0.000154   0.000014  -0.004522   0.511254   0.000618   0.000135
    11  B    0.000621  -0.011331  -0.011303   0.000618   3.340323   0.203112
    12  O    0.000019   0.001274   0.007557   0.000135   0.203112   8.730413
    13  H    0.000000  -0.000011  -0.000200   0.000000   0.005709   0.155993
    14  O    0.000135   0.007545   0.001271   0.000019   0.203113  -0.259608
    15  H    0.000000  -0.000200  -0.000011   0.000000   0.005711  -0.008002
    16  Cl   0.001090   0.000556   0.000557   0.001087  -0.001707  -0.000326
              13         14         15         16
     1  C    0.004349  -0.030352   0.002851  -0.181971
     2  C   -0.022060   0.532179   0.026274   0.154005
     3  C   -0.010313  -0.100594  -0.010309  -0.100352
     4  C    0.026224  -0.543241  -0.022116   0.153893
     5  C    0.002841   0.104680   0.004343  -0.181720
     6  C   -0.000994  -0.005913  -0.000997  -0.050994
     7  H    0.000000   0.000135   0.000000   0.001090
     8  H   -0.000011   0.007545  -0.000200   0.000556
     9  H   -0.000200   0.001271  -0.000011   0.000557
    10  H    0.000000   0.000019   0.000000   0.001087
    11  B    0.005709   0.203113   0.005711  -0.001707
    12  O    0.155993  -0.259608  -0.008002  -0.000326
    13  H    0.347602  -0.007999   0.004721  -0.000010
    14  O   -0.007999   8.730422   0.155990  -0.000325
    15  H    0.004721   0.155990   0.347563  -0.000010
    16  Cl  -0.000010  -0.000325  -0.000010  17.018156
 Mulliken charges:
               1
     1  C   -0.291221
     2  C   -0.091575
     3  C   -0.730323
     4  C   -0.090970
     5  C   -0.291512
     6  C    0.232177
     7  H    0.198426
     8  H    0.204229
     9  H    0.204211
    10  H    0.198416
    11  B    0.856299
    12  O   -0.787251
    13  H    0.494150
    14  O   -0.787321
    15  H    0.494193
    16  Cl   0.188071
 Sum of Mulliken charges =   0.00000
 Mulliken charges with hydrogens summed into heavy atoms:
               1
     1  C   -0.092795
     2  C    0.112654
     3  C   -0.730323
     4  C    0.113241
     5  C   -0.093095
     6  C    0.232177
    11  B    0.856299
    12  O   -0.293102
    14  O   -0.293128
    16  Cl   0.188071
 Electronic spatial extent (au):  <R**2>=           2192.1768
 Charge=              0.0000 electrons
 Dipole moment (field-independent basis, Debye):
    X=             -4.3251    Y=             -0.0004    Z=              0.0000  Tot=              4.3251
 Quadrupole moment (field-independent basis, Debye-Ang):
   XX=            -47.3827   YY=            -63.2993   ZZ=            -68.1654
   XY=              0.0047   XZ=              0.0003   YZ=             -0.0003
 Traceless Quadrupole moment (field-independent basis, Debye-Ang):
   XX=             12.2331   YY=             -3.6835   ZZ=             -8.5496
   XY=              0.0047   XZ=              0.0003   YZ=             -0.0003
 Octapole moment (field-independent basis, Debye-Ang**2):
  XXX=           -156.5871  YYY=             -0.0010  ZZZ=             -0.0004  XYY=              7.2542
  XXY=             -0.0253  XXZ=             -0.0021  XZZ=             -4.0311  YZZ=             -0.0011
  YYZ=             -0.0004  XYZ=              0.0007
 Hexadecapole moment (field-independent basis, Debye-Ang**3):
 XXXX=          -1621.4917 YYYY=           -424.4188 ZZZZ=            -79.1640 XXXY=              0.0780
 XXXZ=              0.0203 YYYX=              0.0140 YYYZ=              0.0005 ZZZX=              0.0095
 ZZZY=              0.0016 XXYY=           -453.9357 XXZZ=           -406.9947 YYZZ=            -95.2170
 XXYZ=             -0.0028 YYXZ=              0.0045 ZZXY=              0.0008
 N-N= 5.307797583532D+02 E-N=-3.105301479900D+03  KE= 8.625997553602D+02
 Evaluate density.
 Using the total density.
 Monte-Carlo method of calculating molar volume:
 based on  0.001 e/bohr**3 density envelope.
 Number of points per bohr**3 =   20 CutOff= 1.00D-04
 Using the SCF density.
 There are       395 points.  Will hold       395 in memory.
 LenV=  4026406248 MDV=  4026531840.
 Box volume = 7723.911 fraction occupied=0.175
 Integrated density= 9.3242940669014047D+01 error= 1.3242940669014047D+01
 Molar volume = 1349.240 bohr**3/mol (120.405 cm**3/mol)
 Recommended a0 for SCRF calculation =  4.49 angstrom (  8.49 bohr)
 Calling FoFJK, ICntrl=      2127 FMM=F ISym2X=0 I1Cent= 0 IOpClX= 0 NMat=1 NMatS=1 NMatT=0.
 ***** Axes restored to original set *****
 -------------------------------------------------------------------
 Center     Atomic                   Forces (Hartrees/Bohr)
 Number     Number              X              Y              Z
 -------------------------------------------------------------------
      1        6          -0.000035437    0.000078660    0.000000401
      2        6           0.000076346    0.000076497   -0.000000646
      3        6           0.000023479   -0.000134411   -0.000003949
      4        6          -0.000146082    0.000061337   -0.000001334
      5        6           0.000050386    0.000130146    0.000000854
      6        6           0.000033062   -0.000251428   -0.000000245
      7        1          -0.000006231    0.000038536    0.000000109
      8        1          -0.000006111   -0.000006097   -0.000000022
      9        1           0.000029888   -0.000010043    0.000000101
     10        1           0.000054401   -0.000032267    0.000000078
     11        5          -0.000025369    0.000004229    0.000013491
     12        8           0.000056472   -0.000011360   -0.000003563
     13        1          -0.000027333    0.000016432   -0.000000795
     14        8           0.000043123    0.000023316   -0.000004220
     15        1          -0.000024225   -0.000013182   -0.000000193
     16       17          -0.000096369    0.000029636   -0.000000067
 -------------------------------------------------------------------
 Cartesian Forces:  Max     0.000251428 RMS     0.000059823

 GradGradGradGradGradGradGradGradGradGradGradGradGradGradGradGradGradGrad
 Berny optimization.
 FormGI is forming the generalized inverse of G from B-inverse, IUseBI=4.
 Internal  Forces:  Max     0.000116667 RMS     0.000032161
 Search for a local minimum.
 Step number   1 out of a maximum of   81
 All quantities printed in internal units (Hartrees-Bohrs-Radians)
 Mixed Optimization -- En-DIIS/RFO-DIIS
 Second derivative matrix not updated -- first step.
 ITU=  0
     Eigenvalues ---    0.00486   0.01527   0.01567   0.02019   0.02068
     Eigenvalues ---    0.02080   0.02116   0.02139   0.02142   0.02144
     Eigenvalues ---    0.02145   0.02523   0.02523   0.16000   0.16000
     Eigenvalues ---    0.16000   0.16000   0.16000   0.16000   0.22000
     Eigenvalues ---    0.22975   0.24000   0.25000   0.25000   0.25000
     Eigenvalues ---    0.25000   0.26724   0.29539   0.35209   0.35209
     Eigenvalues ---    0.35335   0.35340   0.41505   0.41654   0.44982
     Eigenvalues ---    0.45537   0.46281   0.46386   0.49617   0.49622
     Eigenvalues ---    0.53939   0.53940
 RFO step:  Lambda=-2.30595437D-07 EMin= 4.86323909D-03
 Linear search not attempted -- first point.
 Iteration  1 RMS(Cart)=  0.00019698 RMS(Int)=  0.00000002
 Iteration  2 RMS(Cart)=  0.00000002 RMS(Int)=  0.00000000
 Variable       Old X    -DE/DX   Delta X   Delta X   Delta X     New X
                                 (Linear)    (Quad)   (Total)
    R1        2.63676   0.00006   0.00000   0.00012   0.00012   2.63688
    R2        2.63881  -0.00009   0.00000  -0.00020  -0.00020   2.63861
    R3        2.05126  -0.00003   0.00000  -0.00008  -0.00008   2.05118
    R4        2.65848  -0.00007   0.00000  -0.00016  -0.00016   2.65832
    R5        2.05337   0.00000   0.00000   0.00001   0.00001   2.05338
    R6        2.65788   0.00007   0.00000   0.00015   0.00015   2.65803
    R7        2.95015   0.00002   0.00000   0.00008   0.00008   2.95023
    R8        2.63723  -0.00006   0.00000  -0.00012  -0.00012   2.63711
    R9        2.05337   0.00001   0.00000   0.00002   0.00002   2.05338
   R10        2.63808   0.00012   0.00000   0.00026   0.00026   2.63833
   R11        2.05135  -0.00006   0.00000  -0.00016  -0.00016   2.05119
   R12        3.32592   0.00010   0.00000   0.00033   0.00033   3.32624
   R13        2.60249   0.00002   0.00000   0.00004   0.00004   2.60253
   R14        2.60254   0.00000   0.00000   0.00000   0.00000   2.60254
   R15        1.82788  -0.00003   0.00000  -0.00005  -0.00005   1.82783
   R16        1.82787  -0.00002   0.00000  -0.00005  -0.00005   1.82782
    A1        2.07389   0.00004   0.00000   0.00015   0.00015   2.07404
    A2        2.11352   0.00001   0.00000   0.00009   0.00009   2.11361
    A3        2.09577  -0.00004   0.00000  -0.00023  -0.00023   2.09553
    A4        2.12078   0.00001   0.00000   0.00001   0.00001   2.12080
    A5        2.08055  -0.00001   0.00000  -0.00006  -0.00006   2.08049
    A6        2.08185   0.00000   0.00000   0.00005   0.00005   2.08190
    A7        2.05877  -0.00003   0.00000  -0.00011  -0.00011   2.05866
    A8        2.11201   0.00004   0.00000   0.00017   0.00017   2.11218
    A9        2.11241  -0.00002   0.00000  -0.00006  -0.00006   2.11235
   A10        2.12067   0.00002   0.00000   0.00011   0.00011   2.12078
   A11        2.08234  -0.00004   0.00000  -0.00025  -0.00025   2.08209
   A12        2.08017   0.00002   0.00000   0.00014   0.00014   2.08032
   A13        2.07409   0.00000   0.00000  -0.00001  -0.00001   2.07408
   A14        2.11377  -0.00003   0.00000  -0.00019  -0.00019   2.11358
   A15        2.09532   0.00003   0.00000   0.00020   0.00020   2.09552
   A16        2.11816  -0.00004   0.00000  -0.00015  -0.00015   2.11801
   A17        2.08219   0.00007   0.00000   0.00027   0.00027   2.08247
   A18        2.08283  -0.00003   0.00000  -0.00012  -0.00012   2.08271
   A19        2.06010   0.00001   0.00000   0.00004   0.00004   2.06014
   A20        2.06009   0.00001   0.00000   0.00004   0.00004   2.06014
   A21        2.16300  -0.00002   0.00000  -0.00009  -0.00009   2.16291
   A22        2.03521   0.00003   0.00000   0.00018   0.00018   2.03539
   A23        2.03524   0.00002   0.00000   0.00014   0.00014   2.03539
    D1        0.00000   0.00000   0.00000   0.00001   0.00001   0.00000
    D2       -3.14159   0.00000   0.00000  -0.00001  -0.00001   3.14159
    D3        3.14159   0.00000   0.00000   0.00001   0.00001  -3.14159
    D4        0.00000   0.00000   0.00000   0.00000   0.00000   0.00000
    D5        0.00000   0.00000   0.00000   0.00000   0.00000   0.00000
    D6       -3.14159   0.00000   0.00000   0.00000   0.00000   3.14159
    D7       -3.14159   0.00000   0.00000   0.00000   0.00000   3.14159
    D8        0.00000   0.00000   0.00000   0.00000   0.00000   0.00000
    D9        0.00000   0.00000   0.00000  -0.00001  -0.00001  -0.00001
   D10       -3.14159   0.00000   0.00000  -0.00002  -0.00002   3.14158
   D11       -3.14159   0.00000   0.00000   0.00000   0.00000   3.14159
   D12        0.00000   0.00000   0.00000  -0.00001  -0.00001  -0.00001
   D13       -0.00001   0.00000   0.00000   0.00002   0.00002   0.00001
   D14       -3.14159   0.00000   0.00000   0.00000   0.00000  -3.14159
   D15        3.14158   0.00000   0.00000   0.00002   0.00002  -3.14158
   D16        0.00000   0.00000   0.00000   0.00001   0.00001   0.00001
   D17       -3.14155   0.00000   0.00000  -0.00015  -0.00015   3.14148
   D18       -0.00008   0.00000   0.00000   0.00017   0.00017   0.00009
   D19        0.00004   0.00000   0.00000  -0.00016  -0.00016  -0.00012
   D20        3.14151   0.00000   0.00000   0.00017   0.00017  -3.14151
   D21        0.00001   0.00000   0.00000  -0.00002  -0.00002  -0.00001
   D22       -3.14159   0.00000   0.00000  -0.00001  -0.00001   3.14159
   D23        3.14159   0.00000   0.00000   0.00000   0.00000  -3.14159
   D24        0.00000   0.00000   0.00000   0.00001   0.00001   0.00000
   D25        0.00000   0.00000   0.00000   0.00001   0.00001   0.00000
   D26        3.14159   0.00000   0.00000   0.00001   0.00001  -3.14159
   D27        3.14159   0.00000   0.00000   0.00000   0.00000  -3.14159
   D28        0.00000   0.00000   0.00000   0.00000   0.00000   0.00000
   D29        3.14148   0.00000   0.00000   0.00020   0.00020  -3.14150
   D30        0.00002   0.00000   0.00000  -0.00015  -0.00015  -0.00013
   D31       -3.14155   0.00000   0.00000  -0.00018  -0.00018   3.14145
   D32       -0.00009   0.00000   0.00000   0.00017   0.00017   0.00007
         Item               Value     Threshold  Converged?
 Maximum Force            0.000117     0.000450     YES
 RMS     Force            0.000032     0.000300     YES
 Maximum Displacement     0.000595     0.001800     YES
 RMS     Displacement     0.000197     0.001200     YES
 Predicted change in Energy=-1.152979D-07
 Optimization completed.
    -- Stationary point found.
                           ----------------------------
                           !   Optimized Parameters   !
                           ! (Angstroms and Degrees)  !
 --------------------------                            --------------------------
 ! Name  Definition              Value          Derivative Info.                !
 --------------------------------------------------------------------------------
 ! R1    R(1,2)                  1.3953         -DE/DX =    0.0001              !
 ! R2    R(1,6)                  1.3964         -DE/DX =   -0.0001              !
 ! R3    R(1,7)                  1.0855         -DE/DX =    0.0                 !
 ! R4    R(2,3)                  1.4068         -DE/DX =   -0.0001              !
 ! R5    R(2,8)                  1.0866         -DE/DX =    0.0                 !
 ! R6    R(3,4)                  1.4065         -DE/DX =    0.0001              !
 ! R7    R(3,11)                 1.5612         -DE/DX =    0.0                 !
 ! R8    R(4,5)                  1.3956         -DE/DX =   -0.0001              !
 ! R9    R(4,9)                  1.0866         -DE/DX =    0.0                 !
 ! R10   R(5,6)                  1.396          -DE/DX =    0.0001              !
 ! R11   R(5,10)                 1.0855         -DE/DX =   -0.0001              !
 ! R12   R(6,16)                 1.76           -DE/DX =    0.0001              !
 ! R13   R(11,12)                1.3772         -DE/DX =    0.0                 !
 ! R14   R(11,14)                1.3772         -DE/DX =    0.0                 !
 ! R15   R(12,13)                0.9673         -DE/DX =    0.0                 !
 ! R16   R(14,15)                0.9673         -DE/DX =    0.0                 !
 ! A1    A(2,1,6)              118.8254         -DE/DX =    0.0                 !
 ! A2    A(2,1,7)              121.0961         -DE/DX =    0.0                 !
 ! A3    A(6,1,7)              120.0786         -DE/DX =    0.0                 !
 ! A4    A(1,2,3)              121.5119         -DE/DX =    0.0                 !
 ! A5    A(1,2,8)              119.2069         -DE/DX =    0.0                 !
 ! A6    A(3,2,8)              119.2812         -DE/DX =    0.0                 !
 ! A7    A(2,3,4)              117.9589         -DE/DX =    0.0                 !
 ! A8    A(2,3,11)             121.009          -DE/DX =    0.0                 !
 ! A9    A(4,3,11)             121.0321         -DE/DX =    0.0                 !
 ! A10   A(3,4,5)              121.5054         -DE/DX =    0.0                 !
 ! A11   A(3,4,9)              119.3095         -DE/DX =    0.0                 !
 ! A12   A(5,4,9)              119.1851         -DE/DX =    0.0                 !
 ! A13   A(4,5,6)              118.8366         -DE/DX =    0.0                 !
 ! A14   A(4,5,10)             121.1102         -DE/DX =    0.0                 !
 ! A15   A(6,5,10)             120.0533         -DE/DX =    0.0                 !
 ! A16   A(1,6,5)              121.3619         -DE/DX =    0.0                 !
 ! A17   A(1,6,16)             119.3009         -DE/DX =    0.0001              !
 ! A18   A(5,6,16)             119.3372         -DE/DX =    0.0                 !
 ! A19   A(3,11,12)            118.0348         -DE/DX =    0.0                 !
 ! A20   A(3,11,14)            118.0347         -DE/DX =    0.0                 !
 ! A21   A(12,11,14)           123.9305         -DE/DX =    0.0                 !
 ! A22   A(11,12,13)           116.6089         -DE/DX =    0.0                 !
 ! A23   A(11,14,15)           116.6108         -DE/DX =    0.0                 !
 ! D1    D(6,1,2,3)             -0.0001         -DE/DX =    0.0                 !
 ! D2    D(6,1,2,8)            180.0001         -DE/DX =    0.0                 !
 ! D3    D(7,1,2,3)           -180.0001         -DE/DX =    0.0                 !
 ! D4    D(7,1,2,8)              0.0            -DE/DX =    0.0                 !
 ! D5    D(2,1,6,5)              0.0001         -DE/DX =    0.0                 !
 ! D6    D(2,1,6,16)           180.0            -DE/DX =    0.0                 !
 ! D7    D(7,1,6,5)            180.0001         -DE/DX =    0.0                 !
 ! D8    D(7,1,6,16)             0.0001         -DE/DX =    0.0                 !
 ! D9    D(1,2,3,4)              0.0003         -DE/DX =    0.0                 !
 ! D10   D(1,2,3,11)           180.0004         -DE/DX =    0.0                 !
 ! D11   D(8,2,3,4)            180.0001         -DE/DX =    0.0                 !
 ! D12   D(8,2,3,11)             0.0002         -DE/DX =    0.0                 !
 ! D13   D(2,3,4,5)             -0.0005         -DE/DX =    0.0                 !
 ! D14   D(2,3,4,9)           -179.9999         -DE/DX =    0.0                 !
 ! D15   D(11,3,4,5)          -180.0006         -DE/DX =    0.0                 !
 ! D16   D(11,3,4,9)             0.0            -DE/DX =    0.0                 !
 ! D17   D(2,3,11,12)          180.0024         -DE/DX =    0.0                 !
 ! D18   D(2,3,11,14)           -0.0047         -DE/DX =    0.0                 !
 ! D19   D(4,3,11,12)            0.0024         -DE/DX =    0.0                 !
 ! D20   D(4,3,11,14)         -180.0046         -DE/DX =    0.0                 !
 ! D21   D(3,4,5,6)              0.0005         -DE/DX =    0.0                 !
 ! D22   D(3,4,5,10)           180.0003         -DE/DX =    0.0                 !
 ! D23   D(9,4,5,6)           -180.0001         -DE/DX =    0.0                 !
 ! D24   D(9,4,5,10)            -0.0003         -DE/DX =    0.0                 !
 ! D25   D(4,5,6,1)             -0.0003         -DE/DX =    0.0                 !
 ! D26   D(4,5,6,16)          -180.0002         -DE/DX =    0.0                 !
 ! D27   D(10,5,6,1)          -180.0001         -DE/DX =    0.0                 !
 ! D28   D(10,5,6,16)            0.0            -DE/DX =    0.0                 !
 ! D29   D(3,11,12,13)        -180.0063         -DE/DX =    0.0                 !
 ! D30   D(14,11,12,13)          0.0013         -DE/DX =    0.0                 !
 ! D31   D(3,11,14,15)         180.0022         -DE/DX =    0.0                 !
 ! D32   D(12,11,14,15)         -0.0053         -DE/DX =    0.0                 !
 --------------------------------------------------------------------------------
 GradGradGradGradGradGradGradGradGradGradGradGradGradGradGradGradGradGrad

                          Input orientation:                          
 ---------------------------------------------------------------------
 Center     Atomic      Atomic             Coordinates (Angstroms)
 Number     Number       Type             X           Y           Z
 ---------------------------------------------------------------------
      1          6           0       -1.060485   -1.217268   -0.000013
      2          6           0        0.334775   -1.205315   -0.000035
      3          6           0        1.059777    0.000286   -0.000033
      4          6           0        0.334960    1.205628   -0.000002
      5          6           0       -1.060553    1.217450    0.000016
      6          6           0       -1.744202    0.000294    0.000013
      7          1           0       -1.613125   -2.151537   -0.000017
      8          1           0        0.873103   -2.149190   -0.000057
      9          1           0        0.872836    2.149756   -0.000001
     10          1           0       -1.613536    2.151570    0.000035
     11          5           0        2.620929   -0.000042   -0.000066
     12          8           0        3.268469    1.215405   -0.000012
     13          1           0        4.235435    1.191132    0.000061
     14          8           0        3.267968   -1.215785    0.000003
     15          1           0        4.234940   -1.191952    0.000014
     16         17           0       -3.504202   -0.000176    0.000041
 ---------------------------------------------------------------------
                    Distance matrix (angstroms):
                    1          2          3          4          5
     1  C    0.000000
     2  C    1.395311   0.000000
     3  C    2.444984   1.406805   0.000000
     4  C    2.796014   2.410943   1.406488   0.000000
     5  C    2.434718   2.795842   2.444849   1.395563   0.000000
     6  C    1.396398   2.403256   2.803979   2.403278   1.396010
     7  H    1.085481   2.165560   3.431435   3.881442   3.414002
     8  H    2.146449   1.086599   2.157567   3.397705   3.882434
     9  H    3.882600   3.397942   2.157584   1.086595   2.146436
    10  H    3.413932   3.881313   3.431417   2.165974   1.085528
    11  B    3.877428   2.584412   1.561152   2.584433   3.877576
    12  O    4.965656   3.803478   2.520880   2.933525   4.329022
    13  H    5.817831   4.578002   3.391595   3.900502   5.296053
    14  O    4.328453   2.933212   2.520900   3.803390   4.965554
    15  H    5.295486   3.900188   3.391621   4.578016   5.817857
    16  Cl   2.730030   4.023693   4.563979   4.024069   2.730208
                    6          7          8          9         10
     6  C    0.000000
     7  H    2.155820   0.000000
     8  H    3.386823   2.486229   0.000000
     9  H    3.386602   4.968010   4.298946   0.000000
    10  H    2.155241   4.303107   4.967888   2.486373   0.000000
    11  B    4.365131   4.749331   2.770150   2.770823   4.749750
    12  O    5.157845   5.930115   4.130167   2.571394   4.970953
    13  H    6.097061   6.736400   4.739518   3.496574   5.927301
    14  O    5.157586   4.969980   2.570335   4.130802   5.930275
    15  H    6.096851   5.926269   3.495462   4.740333   6.736751
    16  Cl   1.760000   2.864354   4.876378   4.876543   2.864372
                   11         12         13         14         15
    11  B    0.000000
    12  O    1.377178   0.000000
    13  H    2.006371   0.967271   0.000000
    14  O    1.377204   2.431190   2.594078   0.000000
    15  H    2.006410   2.594115   2.383084   0.967266   0.000000
    16  Cl   6.125131   6.880895   7.830785   6.880406   7.830367
                   16
    16  Cl   0.000000
 Stoichiometry    C6H6BClO2
 Framework group  C1[X(C6H6BClO2)]
 Deg. of freedom    42
 Full point group                 C1      NOp   1
 Largest Abelian subgroup         C1      NOp   1
 Largest concise Abelian subgroup C1      NOp   1
                         Standard orientation:                         
 ---------------------------------------------------------------------
 Center     Atomic      Atomic             Coordinates (Angstroms)
 Number     Number       Type             X           Y           Z
 ---------------------------------------------------------------------
      1          6           0        1.060485   -1.217268    0.000013
      2          6           0       -0.334775   -1.205315    0.000035
      3          6           0       -1.059777    0.000286    0.000033
      4          6           0       -0.334960    1.205628    0.000002
      5          6           0        1.060553    1.217450   -0.000016
      6          6           0        1.744202    0.000294   -0.000013
      7          1           0        1.613125   -2.151537    0.000017
      8          1           0       -0.873103   -2.149190    0.000057
      9          1           0       -0.872836    2.149756    0.000001
     10          1           0        1.613536    2.151570   -0.000035
     11          5           0       -2.620929   -0.000042    0.000066
     12          8           0       -3.268469    1.215405    0.000012
     13          1           0       -4.235435    1.191132   -0.000061
     14          8           0       -3.267968   -1.215785   -0.000003
     15          1           0       -4.234940   -1.191952   -0.000014
     16         17           0        3.504202   -0.000176   -0.000041
 ---------------------------------------------------------------------
 Rotational constants (GHZ):           3.6301062           0.5215801           0.4560535
 1\1\GINC-IP-172-31-15-30\FOpt\RB3LYP\6-31+G(d)\C6H6B1Cl1O2\UBUNTU\17-S
 ep-2023\0\\# opt freq b3lyp/6-31+g(d) geom=connectivity empiricaldispe
 rsion=gd3 volume\\Title Card Required\\0,1\C,-1.060485,-1.217268,-0.00
 0013\C,0.334775,-1.205315,-0.000035\C,1.059777,0.000286,-0.000033\C,0.
 33496,1.205628,-0.000002\C,-1.060553,1.21745,0.000016\C,-1.744202,0.00
 0294,0.000013\H,-1.613125,-2.151537,-0.000017\H,0.873103,-2.14919,-0.0
 00057\H,0.872836,2.149756,-0.000001\H,-1.613536,2.15157,0.000035\B,2.6
 20929,-0.000042,-0.000066\O,3.268469,1.215405,-0.000012\H,4.235435,1.1
 91132,0.000061\O,3.267968,-1.215785,0.000003\H,4.23494,-1.191952,0.000
 014\Cl,-3.504202,-0.000176,0.000041\\Version=EM64L-G16RevB.01\State=1-
 A\HF=-867.8919696\RMSD=7.315e-09\RMSF=5.982e-05\Dipole=1.7016129,-0.00
 01506,-0.0000004\Quadrupole=9.0949753,-2.7385697,-6.3564056,-0.0034651
 ,0.0002321,0.0002088\PG=C01 [X(C6H6B1Cl1O2)]\\@


       THE DEATH-KNELL OF THE ATOM

 SO THE ATOMS IN TURN, WE NOW CLEARLY DISCERN,
 FLY TO BITS WITH THE UTMOST FACILITY;
 THEY WEND ON THEIR WAY, AND, IN SPLITTING, DISPLAY
 AN ABSOLUTE LACK OF STABILITY.

          SIR WM. RAMSAY, 1905
 Job cpu time:       0 days  0 hours  6 minutes 30.3 seconds.
 Elapsed time:       0 days  0 hours  0 minutes 13.1 seconds.
 File lengths (MBytes):  RWF=     28 Int=      0 D2E=      0 Chk=      4 Scr=      1
 Normal termination of Gaussian 16 at Sun Sep 17 09:14:07 2023.
 Link1:  Proceeding to internal job step number  2.
 ---------------------------------------------------------------------
 #N Geom=AllCheck Guess=TCheck SCRF=Check GenChk RB3LYP/6-31+G(d) Freq
 ---------------------------------------------------------------------
 1/10=4,29=7,30=1,38=1,40=1/1,3;
 2/12=2,40=1/2;
 3/5=1,6=6,7=11,11=2,14=-4,25=1,30=1,70=2,71=2,74=-5,116=1,124=31,140=1/1,2,3;
 4/5=101/1;
 5/5=2,38=6,98=1/2;
 8/6=4,10=90,11=11/1;
 11/6=1,8=1,9=11,15=111,16=1/1,2,10;
 10/6=1/2;
 6/7=2,8=2,9=2,10=2,28=1/1;
 7/8=1,10=1,25=1/1,2,3,16;
 1/10=4,30=1/3;
 99//99;
 Structure from the checkpoint file:  "MOLECULE_9.chk"
 -------------------
 Title Card Required
 -------------------
 Charge =  0 Multiplicity = 1
 Redundant internal coordinates found in file.  (old form).
 C,0,-1.060485,-1.217268,-0.000013
 C,0,0.334775,-1.205315,-0.000035
 C,0,1.059777,0.000286,-0.000033
 C,0,0.33496,1.205628,-0.000002
 C,0,-1.060553,1.21745,0.000016
 C,0,-1.744202,0.000294,0.000013
 H,0,-1.613125,-2.151537,-0.000017
 H,0,0.873103,-2.14919,-0.000057
 H,0,0.872836,2.149756,-0.000001
 H,0,-1.613536,2.15157,0.000035
 B,0,2.620929,-0.000042,-0.000066
 O,0,3.268469,1.215405,-0.000012
 H,0,4.235435,1.191132,0.000061
 O,0,3.267968,-1.215785,0.000003
 H,0,4.23494,-1.191952,0.000014
 Cl,0,-3.504202,-0.000176,0.000041
 Recover connectivity data from disk.

 GradGradGradGradGradGradGradGradGradGradGradGradGradGradGradGradGradGrad
 Berny optimization.
 Initialization pass.
                           ----------------------------
                           !    Initial Parameters    !
                           ! (Angstroms and Degrees)  !
 --------------------------                            --------------------------
 ! Name  Definition              Value          Derivative Info.                !
 --------------------------------------------------------------------------------
 ! R1    R(1,2)                  1.3953         calculate D2E/DX2 analytically  !
 ! R2    R(1,6)                  1.3964         calculate D2E/DX2 analytically  !
 ! R3    R(1,7)                  1.0855         calculate D2E/DX2 analytically  !
 ! R4    R(2,3)                  1.4068         calculate D2E/DX2 analytically  !
 ! R5    R(2,8)                  1.0866         calculate D2E/DX2 analytically  !
 ! R6    R(3,4)                  1.4065         calculate D2E/DX2 analytically  !
 ! R7    R(3,11)                 1.5612         calculate D2E/DX2 analytically  !
 ! R8    R(4,5)                  1.3956         calculate D2E/DX2 analytically  !
 ! R9    R(4,9)                  1.0866         calculate D2E/DX2 analytically  !
 ! R10   R(5,6)                  1.396          calculate D2E/DX2 analytically  !
 ! R11   R(5,10)                 1.0855         calculate D2E/DX2 analytically  !
 ! R12   R(6,16)                 1.76           calculate D2E/DX2 analytically  !
 ! R13   R(11,12)                1.3772         calculate D2E/DX2 analytically  !
 ! R14   R(11,14)                1.3772         calculate D2E/DX2 analytically  !
 ! R15   R(12,13)                0.9673         calculate D2E/DX2 analytically  !
 ! R16   R(14,15)                0.9673         calculate D2E/DX2 analytically  !
 ! A1    A(2,1,6)              118.8254         calculate D2E/DX2 analytically  !
 ! A2    A(2,1,7)              121.0961         calculate D2E/DX2 analytically  !
 ! A3    A(6,1,7)              120.0786         calculate D2E/DX2 analytically  !
 ! A4    A(1,2,3)              121.5119         calculate D2E/DX2 analytically  !
 ! A5    A(1,2,8)              119.2069         calculate D2E/DX2 analytically  !
 ! A6    A(3,2,8)              119.2812         calculate D2E/DX2 analytically  !
 ! A7    A(2,3,4)              117.9589         calculate D2E/DX2 analytically  !
 ! A8    A(2,3,11)             121.009          calculate D2E/DX2 analytically  !
 ! A9    A(4,3,11)             121.0321         calculate D2E/DX2 analytically  !
 ! A10   A(3,4,5)              121.5054         calculate D2E/DX2 analytically  !
 ! A11   A(3,4,9)              119.3095         calculate D2E/DX2 analytically  !
 ! A12   A(5,4,9)              119.1851         calculate D2E/DX2 analytically  !
 ! A13   A(4,5,6)              118.8366         calculate D2E/DX2 analytically  !
 ! A14   A(4,5,10)             121.1102         calculate D2E/DX2 analytically  !
 ! A15   A(6,5,10)             120.0533         calculate D2E/DX2 analytically  !
 ! A16   A(1,6,5)              121.3619         calculate D2E/DX2 analytically  !
 ! A17   A(1,6,16)             119.3009         calculate D2E/DX2 analytically  !
 ! A18   A(5,6,16)             119.3372         calculate D2E/DX2 analytically  !
 ! A19   A(3,11,12)            118.0348         calculate D2E/DX2 analytically  !
 ! A20   A(3,11,14)            118.0347         calculate D2E/DX2 analytically  !
 ! A21   A(12,11,14)           123.9305         calculate D2E/DX2 analytically  !
 ! A22   A(11,12,13)           116.6089         calculate D2E/DX2 analytically  !
 ! A23   A(11,14,15)           116.6108         calculate D2E/DX2 analytically  !
 ! D1    D(6,1,2,3)             -0.0001         calculate D2E/DX2 analytically  !
 ! D2    D(6,1,2,8)           -179.9999         calculate D2E/DX2 analytically  !
 ! D3    D(7,1,2,3)            179.9999         calculate D2E/DX2 analytically  !
 ! D4    D(7,1,2,8)              0.0            calculate D2E/DX2 analytically  !
 ! D5    D(2,1,6,5)              0.0001         calculate D2E/DX2 analytically  !
 ! D6    D(2,1,6,16)          -180.0            calculate D2E/DX2 analytically  !
 ! D7    D(7,1,6,5)           -179.9999         calculate D2E/DX2 analytically  !
 ! D8    D(7,1,6,16)             0.0001         calculate D2E/DX2 analytically  !
 ! D9    D(1,2,3,4)              0.0003         calculate D2E/DX2 analytically  !
 ! D10   D(1,2,3,11)          -179.9996         calculate D2E/DX2 analytically  !
 ! D11   D(8,2,3,4)           -179.9999         calculate D2E/DX2 analytically  !
 ! D12   D(8,2,3,11)             0.0002         calculate D2E/DX2 analytically  !
 ! D13   D(2,3,4,5)             -0.0005         calculate D2E/DX2 analytically  !
 ! D14   D(2,3,4,9)           -179.9999         calculate D2E/DX2 analytically  !
 ! D15   D(11,3,4,5)           179.9994         calculate D2E/DX2 analytically  !
 ! D16   D(11,3,4,9)             0.0            calculate D2E/DX2 analytically  !
 ! D17   D(2,3,11,12)         -179.9976         calculate D2E/DX2 analytically  !
 ! D18   D(2,3,11,14)           -0.0047         calculate D2E/DX2 analytically  !
 ! D19   D(4,3,11,12)            0.0024         calculate D2E/DX2 analytically  !
 ! D20   D(4,3,11,14)          179.9954         calculate D2E/DX2 analytically  !
 ! D21   D(3,4,5,6)              0.0005         calculate D2E/DX2 analytically  !
 ! D22   D(3,4,5,10)          -179.9997         calculate D2E/DX2 analytically  !
 ! D23   D(9,4,5,6)            179.9999         calculate D2E/DX2 analytically  !
 ! D24   D(9,4,5,10)            -0.0003         calculate D2E/DX2 analytically  !
 ! D25   D(4,5,6,1)             -0.0003         calculate D2E/DX2 analytically  !
 ! D26   D(4,5,6,16)           179.9998         calculate D2E/DX2 analytically  !
 ! D27   D(10,5,6,1)           179.9999         calculate D2E/DX2 analytically  !
 ! D28   D(10,5,6,16)            0.0            calculate D2E/DX2 analytically  !
 ! D29   D(3,11,12,13)         179.9937         calculate D2E/DX2 analytically  !
 ! D30   D(14,11,12,13)          0.0013         calculate D2E/DX2 analytically  !
 ! D31   D(3,11,14,15)        -179.9978         calculate D2E/DX2 analytically  !
 ! D32   D(12,11,14,15)         -0.0053         calculate D2E/DX2 analytically  !
 --------------------------------------------------------------------------------
 Trust Radius=3.00D-01 FncErr=1.00D-07 GrdErr=1.00D-07 EigMax=2.50D+02 EigMin=1.00D-04
 Number of steps in this run=      2 maximum allowed number of steps=      2.
 GradGradGradGradGradGradGradGradGradGradGradGradGradGradGradGradGradGrad

                          Input orientation:                          
 ---------------------------------------------------------------------
 Center     Atomic      Atomic             Coordinates (Angstroms)
 Number     Number       Type             X           Y           Z
 ---------------------------------------------------------------------
      1          6           0       -1.060485   -1.217268   -0.000013
      2          6           0        0.334775   -1.205315   -0.000035
      3          6           0        1.059777    0.000286   -0.000033
      4          6           0        0.334960    1.205628   -0.000002
      5          6           0       -1.060553    1.217450    0.000016
      6          6           0       -1.744202    0.000294    0.000013
      7          1           0       -1.613125   -2.151537   -0.000017
      8          1           0        0.873103   -2.149190   -0.000057
      9          1           0        0.872836    2.149756   -0.000001
     10          1           0       -1.613536    2.151570    0.000035
     11          5           0        2.620929   -0.000042   -0.000066
     12          8           0        3.268469    1.215405   -0.000012
     13          1           0        4.235435    1.191132    0.000061
     14          8           0        3.267968   -1.215785    0.000003
     15          1           0        4.234940   -1.191952    0.000014
     16         17           0       -3.504202   -0.000176    0.000041
 ---------------------------------------------------------------------
                    Distance matrix (angstroms):
                    1          2          3          4          5
     1  C    0.000000
     2  C    1.395311   0.000000
     3  C    2.444984   1.406805   0.000000
     4  C    2.796014   2.410943   1.406488   0.000000
     5  C    2.434718   2.795842   2.444849   1.395563   0.000000
     6  C    1.396398   2.403256   2.803979   2.403278   1.396010
     7  H    1.085481   2.165560   3.431435   3.881442   3.414002
     8  H    2.146449   1.086599   2.157567   3.397705   3.882434
     9  H    3.882600   3.397942   2.157584   1.086595   2.146436
    10  H    3.413932   3.881313   3.431417   2.165974   1.085528
    11  B    3.877428   2.584412   1.561152   2.584433   3.877576
    12  O    4.965656   3.803478   2.520880   2.933525   4.329022
    13  H    5.817831   4.578002   3.391595   3.900502   5.296053
    14  O    4.328453   2.933212   2.520900   3.803390   4.965554
    15  H    5.295486   3.900188   3.391621   4.578016   5.817857
    16  Cl   2.730030   4.023693   4.563979   4.024069   2.730208
                    6          7          8          9         10
     6  C    0.000000
     7  H    2.155820   0.000000
     8  H    3.386823   2.486229   0.000000
     9  H    3.386602   4.968010   4.298946   0.000000
    10  H    2.155241   4.303107   4.967888   2.486373   0.000000
    11  B    4.365131   4.749331   2.770150   2.770823   4.749750
    12  O    5.157845   5.930115   4.130167   2.571394   4.970953
    13  H    6.097061   6.736400   4.739518   3.496574   5.927301
    14  O    5.157586   4.969980   2.570335   4.130802   5.930275
    15  H    6.096851   5.926269   3.495462   4.740333   6.736751
    16  Cl   1.760000   2.864354   4.876378   4.876543   2.864372
                   11         12         13         14         15
    11  B    0.000000
    12  O    1.377178   0.000000
    13  H    2.006371   0.967271   0.000000
    14  O    1.377204   2.431190   2.594078   0.000000
    15  H    2.006410   2.594115   2.383084   0.967266   0.000000
    16  Cl   6.125131   6.880895   7.830785   6.880406   7.830367
                   16
    16  Cl   0.000000
 Stoichiometry    C6H6BClO2
 Framework group  C1[X(C6H6BClO2)]
 Deg. of freedom    42
 Full point group                 C1      NOp   1
 Largest Abelian subgroup         C1      NOp   1
 Largest concise Abelian subgroup C1      NOp   1
                         Standard orientation:                         
 ---------------------------------------------------------------------
 Center     Atomic      Atomic             Coordinates (Angstroms)
 Number     Number       Type             X           Y           Z
 ---------------------------------------------------------------------
      1          6           0        1.060485   -1.217268    0.000013
      2          6           0       -0.334775   -1.205315    0.000035
      3          6           0       -1.059777    0.000286    0.000033
      4          6           0       -0.334960    1.205628    0.000002
      5          6           0        1.060553    1.217450   -0.000016
      6          6           0        1.744202    0.000294   -0.000013
      7          1           0        1.613125   -2.151537    0.000017
      8          1           0       -0.873103   -2.149190    0.000057
      9          1           0       -0.872836    2.149756    0.000001
     10          1           0        1.613536    2.151570   -0.000035
     11          5           0       -2.620929   -0.000042    0.000066
     12          8           0       -3.268469    1.215405    0.000012
     13          1           0       -4.235435    1.191132   -0.000061
     14          8           0       -3.267968   -1.215785   -0.000003
     15          1           0       -4.234940   -1.191952   -0.000014
     16         17           0        3.504202   -0.000176   -0.000041
 ---------------------------------------------------------------------
 Rotational constants (GHZ):           3.6301062           0.5215801           0.4560535
 Standard basis: 6-31+G(d) (6D, 7F)
 There are   206 symmetry adapted cartesian basis functions of A   symmetry.
 There are   206 symmetry adapted basis functions of A   symmetry.
   206 basis functions,   368 primitive gaussians,   206 cartesian basis functions
    40 alpha electrons       40 beta electrons
       nuclear repulsion energy       530.7920494910 Hartrees.
 NAtoms=   16 NActive=   16 NUniq=   16 SFac= 1.00D+00 NAtFMM=   60 NAOKFM=F Big=F
 Integral buffers will be    131072 words long.
 Raffenetti 2 integral format.
 Two-electron integral symmetry is turned on.
 Nuclear repulsion after empirical dispersion term =      530.7797583532 Hartrees.
 One-electron integrals computed using PRISM.
 NBasis=   206 RedAO= T EigKep=  2.88D-06  NBF=   206
 NBsUse=   206 1.00D-06 EigRej= -1.00D+00 NBFU=   206
 Initial guess from the checkpoint file:  "MOLECULE_9.chk"
 B after Tr=     0.000000    0.000000    0.000000
         Rot=    1.000000    0.000000    0.000000    0.000000 Ang=   0.00 deg.
 Requested convergence on RMS density matrix=1.00D-08 within 128 cycles.
 Requested convergence on MAX density matrix=1.00D-06.
 Requested convergence on             energy=1.00D-06.
 No special actions if energy rises.
 SCF Done:  E(RB3LYP) =  -867.891969643     A.U. after    1 cycles
            NFock=  1  Conv=0.49D-08     -V/T= 2.0061
 DoSCS=F DFT=T ScalE2(SS,OS)=  1.000000  1.000000
 Range of M.O.s used for correlation:     1   206
 NBasis=   206 NAE=    40 NBE=    40 NFC=     0 NFV=     0
 NROrb=    206 NOA=    40 NOB=    40 NVA=   166 NVB=   166

 **** Warning!!: The largest alpha MO coefficient is  0.15002888D+03

 Symmetrizing basis deriv contribution to polar:
 IMax=3 JMax=2 DiffMx= 0.00D+00
 G2DrvN: will do    17 centers at a time, making    1 passes.
 Calling FoFCou, ICntrl=  3107 FMM=F I1Cent=   0 AccDes= 0.00D+00.
 End of G2Drv F.D. properties file   721 does not exist.
 End of G2Drv F.D. properties file   722 does not exist.
 End of G2Drv F.D. properties file   788 does not exist.
          IDoAtm=1111111111111111
          Differentiating once with respect to electric field.
                with respect to dipole field.
          Differentiating once with respect to nuclear coordinates.
 Keep R1 ints in memory in canonical form, NReq=258250092.
          There are    51 degrees of freedom in the 1st order CPHF.  IDoFFX=6 NUNeed=     3.
     48 vectors produced by pass  0 Test12= 1.30D-14 1.96D-09 XBig12= 1.67D+02 9.09D+00.
 AX will form    48 AO Fock derivatives at one time.
     48 vectors produced by pass  1 Test12= 1.30D-14 1.96D-09 XBig12= 3.79D+01 1.68D+00.
     48 vectors produced by pass  2 Test12= 1.30D-14 1.96D-09 XBig12= 4.14D-01 8.22D-02.
     48 vectors produced by pass  3 Test12= 1.30D-14 1.96D-09 XBig12= 2.36D-03 1.11D-02.
     48 vectors produced by pass  4 Test12= 1.30D-14 1.96D-09 XBig12= 5.54D-06 6.55D-04.
     46 vectors produced by pass  5 Test12= 1.30D-14 1.96D-09 XBig12= 7.85D-09 1.42D-05.
     11 vectors produced by pass  6 Test12= 1.30D-14 1.96D-09 XBig12= 7.00D-12 3.67D-07.
      3 vectors produced by pass  7 Test12= 1.30D-14 1.96D-09 XBig12= 5.11D-15 9.28D-09.
 InvSVY:  IOpt=1 It=  1 EMax= 3.55D-15
 Solved reduced A of dimension   300 with    51 vectors.
 Isotropic polarizability for W=    0.000000      102.54 Bohr**3.
 End of Minotr F.D. properties file   721 does not exist.
 End of Minotr F.D. properties file   722 does not exist.
 End of Minotr F.D. properties file   788 does not exist.

 **********************************************************************

            Population analysis using the SCF Density.

 **********************************************************************

 Orbital symmetries:
       Occupied  (A) (A) (A) (A) (A) (A) (A) (A) (A) (A) (A) (A)
                 (A) (A) (A) (A) (A) (A) (A) (A) (A) (A) (A) (A)
                 (A) (A) (A) (A) (A) (A) (A) (A) (A) (A) (A) (A)
                 (A) (A) (A) (A)
       Virtual   (A) (A) (A) (A) (A) (A) (A) (A) (A) (A) (A) (A)
                 (A) (A) (A) (A) (A) (A) (A) (A) (A) (A) (A) (A)
                 (A) (A) (A) (A) (A) (A) (A) (A) (A) (A) (A) (A)
                 (A) (A) (A) (A) (A) (A) (A) (A) (A) (A) (A) (A)
                 (A) (A) (A) (A) (A) (A) (A) (A) (A) (A) (A) (A)
                 (A) (A) (A) (A) (A) (A) (A) (A) (A) (A) (A) (A)
                 (A) (A) (A) (A) (A) (A) (A) (A) (A) (A) (A) (A)
                 (A) (A) (A) (A) (A) (A) (A) (A) (A) (A) (A) (A)
                 (A) (A) (A) (A) (A) (A) (A) (A) (A) (A) (A) (A)
                 (A) (A) (A) (A) (A) (A) (A) (A) (A) (A) (A) (A)
                 (A) (A) (A) (A) (A) (A) (A) (A) (A) (A) (A) (A)
                 (A) (A) (A) (A) (A) (A) (A) (A) (A) (A) (A) (A)
                 (A) (A) (A) (A) (A) (A) (A) (A) (A) (A) (A) (A)
                 (A) (A) (A) (A) (A) (A) (A) (A) (A) (A)
 The electronic state is 1-A.
 Alpha  occ. eigenvalues -- -101.55345 -19.18568 -19.18567 -10.25990 -10.20649
 Alpha  occ. eigenvalues --  -10.20649 -10.20466 -10.20463 -10.18416  -9.46867
 Alpha  occ. eigenvalues --   -7.23265  -7.22309  -7.22272  -6.80674  -1.05881
 Alpha  occ. eigenvalues --   -1.02580  -0.89237  -0.83598  -0.75971  -0.73662
 Alpha  occ. eigenvalues --   -0.62310  -0.61553  -0.57915  -0.56478  -0.51192
 Alpha  occ. eigenvalues --   -0.46531  -0.46449  -0.44799  -0.43417  -0.41131
 Alpha  occ. eigenvalues --   -0.41019  -0.39256  -0.36569  -0.35440  -0.34407
 Alpha  occ. eigenvalues --   -0.34348  -0.33277  -0.31482  -0.26492  -0.25055
 Alpha virt. eigenvalues --   -0.04273  -0.03502  -0.02012   0.00744   0.01291
 Alpha virt. eigenvalues --    0.01556   0.02914   0.03707   0.03822   0.05347
 Alpha virt. eigenvalues --    0.05973   0.07686   0.08613   0.08869   0.08969
 Alpha virt. eigenvalues --    0.09265   0.11195   0.11202   0.11556   0.12767
 Alpha virt. eigenvalues --    0.13360   0.14168   0.14508   0.15132   0.15716
 Alpha virt. eigenvalues --    0.15820   0.16451   0.16791   0.17434   0.18700
 Alpha virt. eigenvalues --    0.19944   0.20103   0.20237   0.21542   0.22313
 Alpha virt. eigenvalues --    0.22520   0.22990   0.23016   0.23465   0.23507
 Alpha virt. eigenvalues --    0.24525   0.24834   0.25023   0.26022   0.28957
 Alpha virt. eigenvalues --    0.29222   0.29972   0.31179   0.32452   0.33521
 Alpha virt. eigenvalues --    0.33870   0.34381   0.36562   0.41923   0.42252
 Alpha virt. eigenvalues --    0.45048   0.45452   0.47957   0.54083   0.54796
 Alpha virt. eigenvalues --    0.58054   0.62126   0.62902   0.64016   0.66758
 Alpha virt. eigenvalues --    0.67442   0.67536   0.68727   0.70511   0.71085
 Alpha virt. eigenvalues --    0.71729   0.73885   0.73886   0.76994   0.77852
 Alpha virt. eigenvalues --    0.80020   0.81034   0.84264   0.87087   0.88492
 Alpha virt. eigenvalues --    0.90740   0.91990   0.93033   0.94390   0.94601
 Alpha virt. eigenvalues --    0.96413   0.97315   1.01244   1.04395   1.05436
 Alpha virt. eigenvalues --    1.08294   1.10016   1.11262   1.11649   1.13682
 Alpha virt. eigenvalues --    1.15709   1.16400   1.19222   1.21762   1.21824
 Alpha virt. eigenvalues --    1.24052   1.24493   1.26056   1.27198   1.30044
 Alpha virt. eigenvalues --    1.35303   1.35931   1.41434   1.42844   1.44033
 Alpha virt. eigenvalues --    1.46550   1.46606   1.49637   1.50090   1.54904
 Alpha virt. eigenvalues --    1.55430   1.65136   1.65684   1.70385   1.73047
 Alpha virt. eigenvalues --    1.73416   1.76995   1.79840   1.84083   1.86314
 Alpha virt. eigenvalues --    1.89152   1.95030   1.98055   2.08296   2.08376
 Alpha virt. eigenvalues --    2.10103   2.13616   2.14387   2.15640   2.17493
 Alpha virt. eigenvalues --    2.21518   2.24911   2.24997   2.30045   2.37838
 Alpha virt. eigenvalues --    2.38157   2.42162   2.51809   2.58540   2.60027
 Alpha virt. eigenvalues --    2.64095   2.66483   2.74797   2.74877   2.77399
 Alpha virt. eigenvalues --    2.80936   2.90755   2.91655   2.98290   3.12947
 Alpha virt. eigenvalues --    3.36625   3.69219   4.15867   4.23682   4.24987
 Alpha virt. eigenvalues --    4.30650   4.36945   4.37757   4.39258   4.46352
 Alpha virt. eigenvalues --    4.70373
          Condensed to atoms (all electrons):
               1          2          3          4          5          6
     1  C   12.019674  -6.389365   1.389306   1.558714  -1.591367  -0.702535
     2  C   -6.389365  17.532863  -2.641132  -5.686614   1.561298   1.200456
     3  C    1.389306  -2.641132  10.708754  -2.654344   1.393909  -1.665943
     4  C    1.558714  -5.686614  -2.654344  17.538609  -6.387186   1.207858
     5  C   -1.591367   1.561298   1.393909  -6.387186  12.017407  -0.709768
     6  C   -0.702535   1.200456  -1.665943   1.207858  -0.709768   6.416524
     7  H    0.234890  -0.004200   0.015557  -0.025428   0.056533   0.015763
     8  H   -0.017154   0.234641   0.039139   0.033499  -0.010149   0.000801
     9  H   -0.010145   0.033455   0.039139   0.234817  -0.017324   0.000816
    10  H    0.056547  -0.025444   0.015480  -0.004392   0.234869   0.016074
    11  B   -0.156961   0.128066   0.413658   0.128205  -0.156580   0.052447
    12  O    0.104740  -0.542847  -0.101633   0.532472  -0.030273  -0.005772
    13  H    0.004349  -0.022060  -0.010313   0.026224   0.002841  -0.000994
    14  O   -0.030352   0.532178  -0.100594  -0.543241   0.104680  -0.005913
    15  H    0.002851   0.026274  -0.010309  -0.022116   0.004343  -0.000997
    16  Cl  -0.181971   0.154005  -0.100352   0.153893  -0.181720  -0.050994
               7          8          9         10         11         12
     1  C    0.234890  -0.017154  -0.010145   0.056547  -0.156961   0.104740
     2  C   -0.004200   0.234641   0.033455  -0.025444   0.128066  -0.542847
     3  C    0.015557   0.039139   0.039139   0.015480   0.413658  -0.101633
     4  C   -0.025428   0.033499   0.234817  -0.004392   0.128205   0.532472
     5  C    0.056533  -0.010149  -0.017324   0.234869  -0.156580  -0.030273
     6  C    0.015763   0.000801   0.000816   0.016074   0.052447  -0.005772
     7  H    0.511258  -0.004525   0.000014  -0.000154   0.000621   0.000019
     8  H   -0.004525   0.521803  -0.000131   0.000014  -0.011331   0.001274
     9  H    0.000014  -0.000131   0.521798  -0.004522  -0.011303   0.007557
    10  H   -0.000154   0.000014  -0.004522   0.511254   0.000618   0.000135
    11  B    0.000621  -0.011331  -0.011303   0.000618   3.340323   0.203112
    12  O    0.000019   0.001274   0.007557   0.000135   0.203112   8.730413
    13  H    0.000000  -0.000011  -0.000200   0.000000   0.005709   0.155993
    14  O    0.000135   0.007545   0.001271   0.000019   0.203113  -0.259608
    15  H    0.000000  -0.000200  -0.000011   0.000000   0.005711  -0.008002
    16  Cl   0.001090   0.000556   0.000557   0.001087  -0.001707  -0.000326
              13         14         15         16
     1  C    0.004349  -0.030352   0.002851  -0.181971
     2  C   -0.022060   0.532178   0.026274   0.154005
     3  C   -0.010313  -0.100594  -0.010309  -0.100352
     4  C    0.026224  -0.543241  -0.022116   0.153893
     5  C    0.002841   0.104680   0.004343  -0.181720
     6  C   -0.000994  -0.005913  -0.000997  -0.050994
     7  H    0.000000   0.000135   0.000000   0.001090
     8  H   -0.000011   0.007545  -0.000200   0.000556
     9  H   -0.000200   0.001271  -0.000011   0.000557
    10  H    0.000000   0.000019   0.000000   0.001087
    11  B    0.005709   0.203113   0.005711  -0.001707
    12  O    0.155993  -0.259608  -0.008002  -0.000326
    13  H    0.347602  -0.007999   0.004721  -0.000010
    14  O   -0.007999   8.730422   0.155990  -0.000325
    15  H    0.004721   0.155990   0.347563  -0.000010
    16  Cl  -0.000010  -0.000325  -0.000010  17.018156
 Mulliken charges:
               1
     1  C   -0.291221
     2  C   -0.091575
     3  C   -0.730323
     4  C   -0.090970
     5  C   -0.291512
     6  C    0.232177
     7  H    0.198426
     8  H    0.204229
     9  H    0.204211
    10  H    0.198416
    11  B    0.856299
    12  O   -0.787252
    13  H    0.494150
    14  O   -0.787321
    15  H    0.494193
    16  Cl   0.188071
 Sum of Mulliken charges =   0.00000
 Mulliken charges with hydrogens summed into heavy atoms:
               1
     1  C   -0.092795
     2  C    0.112654
     3  C   -0.730323
     4  C    0.113241
     5  C   -0.093096
     6  C    0.232177
    11  B    0.856299
    12  O   -0.293102
    14  O   -0.293128
    16  Cl   0.188071
 APT charges:
               1
     1  C   -0.175487
     2  C    0.059646
     3  C   -0.389345
     4  C    0.059875
     5  C   -0.175660
     6  C    0.491791
     7  H    0.051430
     8  H    0.045122
     9  H    0.045085
    10  H    0.051409
    11  B    1.439217
    12  O   -0.841200
    13  H    0.277731
    14  O   -0.841213
    15  H    0.277749
    16  Cl  -0.376148
 Sum of APT charges =   0.00000
 APT charges with hydrogens summed into heavy atoms:
               1
     1  C   -0.124057
     2  C    0.104768
     3  C   -0.389345
     4  C    0.104959
     5  C   -0.124252
     6  C    0.491791
    11  B    1.439217
    12  O   -0.563470
    14  O   -0.563464
    16  Cl  -0.376148
 Electronic spatial extent (au):  <R**2>=           2192.1768
 Charge=              0.0000 electrons
 Dipole moment (field-independent basis, Debye):
    X=             -4.3251    Y=             -0.0004    Z=              0.0000  Tot=              4.3251
 Quadrupole moment (field-independent basis, Debye-Ang):
   XX=            -47.3827   YY=            -63.2993   ZZ=            -68.1654
   XY=              0.0047   XZ=              0.0003   YZ=             -0.0003
 Traceless Quadrupole moment (field-independent basis, Debye-Ang):
   XX=             12.2331   YY=             -3.6835   ZZ=             -8.5496
[...]
   x          0.170161D+01      0.432507D+01      0.144269D+02
   y         -0.151342D-03     -0.384674D-03     -0.128313D-02
   z          0.000000D+00      0.000000D+00      0.000000D+00

 Dipole polarizability, Alpha (input orientation).
 (esu units = cm**3 , SI units = C**2 m**2 J**-1)
 Alpha(0;0):
               (au)            (10**-24 esu)      (10**-40 SI)
   iso        0.102537D+03      0.151945D+02      0.169061D+02
   aniso      0.802236D+02      0.118879D+02      0.132271D+02
   xx         0.149844D+03      0.222046D+02      0.247060D+02
   yx         0.184796D-02      0.273840D-03      0.304688D-03
   yy         0.100490D+03      0.148911D+02      0.165686D+02
   zx        -0.946337D-03     -0.140233D-03     -0.156030D-03
   zy         0.454269D-03      0.673157D-04      0.748988D-04
   zz         0.572779D+02      0.848771D+01      0.944385D+01

 ----------------------------------------------------------------------

 Dipole orientation:
     6         -0.00017962         -2.30048136         -2.00382161
     6         -0.00013657         -2.27765897          0.63283564
     6          0.00006200          0.00071858          2.00268823
     6          0.00020629          2.27836301          0.63278003
     6          0.00017479          2.30046880         -2.00435932
     6         -0.00002385          0.00026243         -3.29606412
     1         -0.00032887         -4.06608677         -3.04800283
     1         -0.00025384         -4.06123372          1.65028676
     1          0.00036287          4.06259674          1.64905967
     1          0.00029610          4.06560682         -3.04950274
     5          0.00012371          0.00036113          4.95283799
     8          0.00022571          2.29733190          6.17630696
     1          0.00008331          2.25162511          8.00361194
     8         -0.00021126         -2.29695140          6.17576882
     1         -0.00022841         -2.25175103          8.00307706
    17         -0.00007617         -0.00092155         -6.62198201

 Electric dipole moment (dipole orientation):
 (Debye = 10**-18 statcoulomb cm , SI units = C m)
                  (au)            (Debye)         (10**-30 SI)
   Tot        0.170161D+01      0.432507D+01      0.144269D+02
   x          0.000000D+00      0.000000D+00      0.000000D+00
   y          0.000000D+00      0.000000D+00      0.000000D+00
   z          0.170161D+01      0.432507D+01      0.144269D+02

 Dipole polarizability, Alpha (dipole orientation).
 (esu units = cm**3 , SI units = C**2 m**2 J**-1)
 Alpha(0;0):
               (au)            (10**-24 esu)      (10**-40 SI)
   iso        0.102537D+03      0.151945D+02      0.169061D+02
   aniso      0.802236D+02      0.118879D+02      0.132271D+02
   xx         0.572779D+02      0.848771D+01      0.944385D+01
   yx         0.338914D-02      0.502219D-03      0.558794D-03
   yy         0.100490D+03      0.148911D+02      0.165686D+02
   zx         0.927510D-03      0.137443D-03      0.152926D-03
   zy         0.623744D-02      0.924293D-03      0.102842D-02
   zz         0.149844D+03      0.222046D+02      0.247060D+02

 ----------------------------------------------------------------------
 1\1\GINC-IP-172-31-15-30\Freq\RB3LYP\6-31+G(d)\C6H6B1Cl1O2\UBUNTU\17-S
 ep-2023\0\\#N Geom=AllCheck Guess=TCheck SCRF=Check GenChk RB3LYP/6-31
 +G(d) Freq\\Title Card Required\\0,1\C,-1.060485,-1.217268,-0.000013\C
 ,0.334775,-1.205315,-0.000035\C,1.059777,0.000286,-0.000033\C,0.33496,
 1.205628,-0.000002\C,-1.060553,1.21745,0.000016\C,-1.744202,0.000294,0
 .000013\H,-1.613125,-2.151537,-0.000017\H,0.873103,-2.14919,-0.000057\
 H,0.872836,2.149756,-0.000001\H,-1.613536,2.15157,0.000035\B,2.620929,
 -0.000042,-0.000066\O,3.268469,1.215405,-0.000012\H,4.235435,1.191132,
 0.000061\O,3.267968,-1.215785,0.000003\H,4.23494,-1.191952,0.000014\Cl
 ,-3.504202,-0.000176,0.000041\\Version=EM64L-G16RevB.01\State=1-A\HF=-
 867.8919696\RMSD=4.851e-09\RMSF=5.983e-05\ZeroPoint=0.1151482\Thermal=
 0.124203\Dipole=1.7016129,-0.0001513,-0.0000004\DipoleDeriv=-0.3929677
 ,0.1604728,0.0000064,0.1469101,-0.0214696,-0.0000012,0.0000036,-0.0000
 006,-0.1120237,0.1968354,-0.1142872,-0.0000071,0.1373112,0.0824611,-0.
 000001,0.0000128,0.0000015,-0.1003572,-0.8169406,0.0001575,0.0000069,0
 .0003921,-0.2090508,-0.0000002,0.000011,-0.000002,-0.1420451,0.1974088
 ,0.1142468,-0.0000044,-0.1373775,0.0825413,0.0000062,-0.0000015,0.0000
 009,-0.1003261,-0.3933368,-0.1607163,0.0000033,-0.1473206,-0.0216095,0
 .0000032,0.0000052,0.0000049,-0.1120344,1.3504173,0.0002527,-0.0000221
 ,0.0004113,0.1529366,0.0000022,-0.0000222,0.0000019,-0.0279822,0.02821
 46,-0.0669015,0.0000009,-0.0649913,-0.0153416,-0.0000011,-0.0000008,0.
 ,0.1414176,0.0493975,0.0607942,0.0000029,0.0544422,-0.0367142,-0.00000
 3,0.000004,-0.0000039,0.1226827,0.0493442,-0.0607559,0.000001,-0.05445
 54,-0.0367784,-0.0000016,0.0000017,0.0000009,0.1226883,0.0281567,0.067
 009,0.0000022,0.0650117,-0.0153493,-0.0000027,0.0000006,-0.0000047,0.1
 414181,2.2567406,-0.0000325,0.0000065,-0.0000123,1.5771447,-0.0000046,
 0.0000384,-0.0000084,0.4837655,-0.9472492,-0.3864927,0.0000097,-0.5486
 362,-1.0465835,-0.0000093,-0.0000016,-0.0000259,-0.5297678,0.1502272,0
 .0527645,-0.0000113,0.1259551,0.3263699,0.0000054,-0.0000227,0.000001,
 0.3565945,-0.946925,0.3863775,-0.0000078,0.5484532,-1.0469324,0.000005
 6,-0.0000485,0.0000359,-0.5297829,0.1501931,-0.0527018,-0.0000011,-0.1
 258855,0.3264526,0.0000023,0.0000057,-0.000001,0.3566025,-0.9595161,-0
 .000187,0.0000138,-0.0002082,-0.0980769,-0.0000003,0.0000143,-0.000000
 3,-0.0708498\Polar=149.8442295,0.001848,100.4902882,-0.0009463,0.00045
 43,57.27792\Quadrupole=9.0949756,-2.7385698,-6.3564058,-0.0034651,0.00
 02321,0.0002088\PG=C01 [X(C6H6B1Cl1O2)]\NImag=0\\0.68778390,0.04543221
 ,0.72276855,-0.00000812,0.00000678,0.12698908,-0.34012114,-0.03751799,
 0.00000376,0.68698584,0.03028221,-0.12902768,-0.00000165,-0.03807170,0
 .70410851,0.00000494,-0.00000041,-0.06231877,-0.00001021,0.00000799,0.
 14243707,-0.02884214,-0.02537989,0.00000051,-0.17295490,-0.10856282,0.
 00000105,0.62675489,-0.06804591,0.03084743,0.00000171,-0.06185935,-0.2
 6414005,-0.00000129,-0.00036100,0.64597204,-0.00000029,0.00000109,0.01
 139874,0.00000218,-0.00000045,-0.06585649,-0.00000808,0.00000655,0.136
 23920,-0.04846216,0.02788118,0.00000115,0.06216253,0.01975943,-0.00000
 073,-0.17311393,0.06219097,0.00000394,0.68640656,0.02759097,-0.0169450
 0,-0.00000074,-0.01975830,-0.05917050,-0.00000054,0.10888091,-0.264664
 91,-0.00000488,0.03772828,0.70474342,0.00000103,-0.00000060,-0.0050383
 4,-0.00000124,-0.00000125,0.00726073,0.00000408,-0.00000417,-0.0657986
 9,-0.00000862,0.00000645,0.14241738,0.06021136,-0.02190247,-0.00000127
 ,-0.04846644,-0.02759321,0.00000041,-0.02886678,0.06805768,0.00000136,
 -0.33951045,-0.03032306,0.00000337,0.68742926,0.02190899,-0.05208023,-
 0.00000107,-0.02788650,-0.01695555,0.00000034,0.02537598,0.03085861,-0
 .00000054,0.03748541,-0.12903330,-0.00000123,-0.04497079,0.72326353,-0
 .00000063,-0.00000044,0.00788760,0.00000039,0.00000041,-0.00504043,0.0
 0000123,-0.00000112,0.01140363,0.00000378,-0.00000007,-0.06234498,-0.0
 0000841,0.00000777,0.12696668,-0.14944181,0.11503265,0.00000277,-0.030
 44928,0.02539024,0.00000095,0.00392046,-0.00000663,-0.00000028,-0.0304
 6058,-0.02538283,0.00000035,-0.14963710,-0.11543922,-0.00000003,0.4969
 3728,0.04933220,-0.28770787,-0.00000342,0.08285871,0.03421863,-0.00000
 105,0.00001174,-0.06702943,-0.00000081,-0.08286867,0.03421518,0.000001
 69,-0.04972665,-0.28834569,-0.00000191,0.00041487,0.65602527,0.0000020
 0,-0.00000458,-0.06194196,0.00000155,-0.00000010,0.00616162,-0.0000002
 1,-0.00000071,-0.00828561,-0.00000059,0.00000071,0.00615969,0.00000097
 ,-0.00000073,-0.06187215,-0.00000593,0.00000636,0.12339263,-0.13032890
 ,-0.12630614,-0.00000025,-0.01055166,-0.02833051,-0.00000016,-0.005311
 91,0.00152091,0.00000030,-0.00077226,0.00085803,0.00000002,-0.00143364
 ,0.00311518,0.00000012,0.00944371,0.01546558,0.00000008,0.13680964,-0.
 12291452,-0.27084252,-0.00000122,0.00195758,0.00495176,0.,0.00065056,0
 .00156260,-0.00000010,0.00086557,0.00026853,0.,0.00422620,-0.00265380,
 -0.00000018,-0.01662754,-0.01981725,-0.00000001,0.13262380,0.28587832,
 -0.00000020,-0.00000119,-0.03503166,0.00000024,0.00000047,0.00313045,0
 .00000020,-0.00000006,0.00723643,0.00000002,0.,-0.00071480,0.00000017,
 -0.00000016,0.00562726,-0.00000032,-0.00000050,0.00244284,0.00000004,0
 .00000139,0.02448348,-0.01192412,0.02837294,0.00000069,-0.12891955,0.1
 2162803,0.00000336,0.01259275,-0.01421335,-0.00000046,-0.00135772,-0.0
 0355656,0.00000008,-0.00066597,-0.00073683,0.,-0.00407902,-0.00123974,
 0.00000017,0.00069110,-0.00028369,-0.00000008,0.13535455,-0.00261824,0
 .00442298,0.00000005,0.12068704,-0.27126915,-0.00000523,0.01367463,-0.
 01917672,-0.00000054,-0.00406005,-0.00312629,0.,-0.00067887,0.00024782
 ,0.00000001,-0.00071503,0.00150682,-0.00000006,0.00033213,0.00080874,0
 .00000006,-0.12876267,0.28798822,0.00000012,-0.00000049,0.00428272,0.0
 0000349,-0.00000496,-0.03960017,-0.00000018,-0.00000037,0.00246145,0.0
 0000001,0.00000002,0.00677398,0.00000011,0.00000007,-0.00082222,0.0000
 0019,-0.00000018,0.00760547,-0.00000009,0.00000008,-0.00425239,-0.0000
 0372,0.00000571,0.02703696,-0.00066586,0.00073785,0.00000002,-0.001356
 66,0.00355557,0.00000018,0.01259850,0.01421420,-0.00000011,-0.12881365
 ,-0.12155753,0.00000024,-0.01192948,-0.02838228,0.00000001,-0.00408148
 ,0.00123822,0.00000018,0.00007809,-0.00008028,-0.00000002,0.00058027,0
 .00089639,0.00000002,0.13523801,0.00067784,0.00024716,0.,0.00406011,-0
 .00312100,-0.00000024,-0.01366985,-0.01917042,0.,-0.12063112,-0.271384
 11,-0.00000050,0.00261264,0.00441461,-0.00000003,0.00071425,0.00150638
 ,-0.00000008,-0.00012501,0.00000416,0.00000001,-0.00089641,-0.00102872
 ,0.,0.12870883,0.28809872,0.00000009,0.,-0.00082184,0.00000022,-0.0000
 0027,0.00678462,-0.00000061,-0.00000031,0.00246083,0.00000052,-0.00000
 056,-0.03959450,0.00000014,0.00000041,0.00428006,0.00000017,0.00000001
 ,0.00759601,-0.00000001,0.00000001,-0.00097849,-0.00000002,-0.00000004
 ,0.00027634,-0.00000048,0.00000073,0.02703194,-0.00143204,-0.00311429,
 0.00000004,-0.00077041,-0.00085802,0.,-0.00531478,-0.00152177,0.000000
 23,-0.01053730,0.02831310,0.00000057,-0.13038521,0.12630245,0.00000279
 ,0.00944604,-0.01546583,-0.00000029,0.00066212,-0.00079502,-0.00000002
 ,0.00007792,0.00012480,0.,0.00069166,-0.00033184,-0.00000008,0.1368480
 4,-0.00422619,-0.00265485,-0.00000002,-0.00086668,0.00026730,0.0000000
 2,-0.00065284,0.00156163,-0.00000004,-0.00196026,0.00496003,0.00000004
 ,0.12288545,-0.27068609,-0.00000458,0.01663978,-0.01985352,-0.00000054
 ,0.00079577,-0.00091461,-0.00000003,0.00008043,0.00000419,0.00000001,0
 .00028482,0.00080779,0.00000005,-0.13260297,0.28575305,0.00000010,-0.0
 0000005,0.00563382,-0.00000001,0.,-0.00071497,0.00000015,-0.00000011,0
 .00722721,0.00000014,-0.00000033,0.00311696,0.00000281,-0.00000471,-0.
 03504845,0.00000011,0.,0.00246021,0.,0.,0.00046037,-0.00000002,0.00000
 001,-0.00097760,-0.00000007,0.00000006,-0.00424572,-0.00000316,0.00000
 504,0.02449698,0.00447019,-0.00291766,-0.00000018,-0.01438273,-0.01060
 683,0.00000004,-0.20058304,0.00002121,0.00000397,-0.01438381,0.0106093
 3,0.00000016,0.00447673,0.00292546,-0.00000012,-0.00406242,-0.00000755
 ,0.00000010,0.00068413,0.00037793,0.00000002,0.00031639,0.00144597,0.0
 0000012,0.00031712,-0.00144799,0.00000013,0.00068530,-0.00037765,0.000
 00001,0.53257268,-0.00464186,-0.00410040,-0.00000007,-0.02043381,0.007
 20319,0.00000067,0.00003129,-0.06899540,-0.00000009,0.02043323,0.00719
 430,-0.00000042,0.00464139,-0.00409798,-0.00000029,0.00000031,-0.00385
 244,-0.00000002,-0.00122407,0.00006213,0.,-0.00193048,-0.00257422,0.00
 000006,0.00192515,-0.00256995,-0.00000001,0.00122300,0.00006271,0.,0.0
 0004838,0.58727280,0.00000005,-0.00000008,0.00602506,-0.00000023,-0.00
 000049,0.00049421,0.00000154,-0.00000004,-0.06024383,0.00000022,0.0000
 0064,0.00049591,0.00000023,-0.00000012,0.00603315,-0.00000022,-0.00000
 011,-0.00043098,0.,0.,0.00035449,-0.00000003,0.00000007,-0.00277372,0.
 ,-0.00000004,-0.00278127,0.00000003,0.,0.00035549,0.00001190,-0.000001
 80,0.14639069,-0.00235182,-0.00040755,0.00000007,-0.00326645,0.0043963
 5,0.00000012,-0.02008879,-0.02760957,-0.00000091,-0.00158335,-0.002394
 13,0.00000016,0.00013483,-0.00068003,-0.00000013,0.00149811,-0.0012055
 8,0.,-0.00061592,-0.00008775,0.,0.00018862,-0.00015179,-0.00000003,-0.
 00145656,-0.00029891,0.00000002,-0.00021775,0.00012599,0.,-0.13877462,
 -0.12049138,-0.00000646,0.65317932,-0.00099561,0.00112129,0.00000008,0
 .00109714,0.00163012,-0.00000004,-0.01268467,-0.00120875,-0.00000061,0
 .00119234,-0.00467012,0.00000004,-0.00111256,0.00035633,0.00000012,0.0
 0123924,-0.00015323,-0.00000006,-0.00014426,-0.00005437,0.,0.00062064,
 0.00058853,0.,0.00025361,0.00106574,-0.00000010,-0.00031741,0.00007517
 ,0.,-0.07902200,-0.25892893,-0.00000659,0.10981931,0.34715197,0.000000
 02,-0.00000006,-0.00042830,-0.00000024,0.00000009,0.00133356,-0.000000
 23,-0.00000086,0.00659078,0.00000011,-0.00000024,0.00076972,-0.0000001
 4,-0.00000002,-0.00048336,0.00000007,0.00000006,0.00012857,-0.00000002
 ,0.,-0.00012478,0.00000002,0.,0.00008968,0.00000002,0.00000004,-0.0002
 1469,-0.00000001,0.,-0.00001257,-0.00000635,-0.00001037,-0.04640041,0.
 00004451,0.00000863,0.02910089,0.00006746,-0.00060121,0.00000008,-0.00
 124502,0.00065677,-0.00000004,0.00212486,-0.00356480,-0.00000044,0.000
 52812,-0.00020319,-0.00000018,0.00002115,0.00014019,0.00000013,-0.0000
 0223,0.00007310,-0.00000007,-0.00010532,0.00003057,0.,-0.00001993,-0.0
 0010543,-0.00000003,0.00008741,0.00001949,-0.00000002,-0.00001998,-0.0
 0000221,0.,-0.01899649,0.00746098,-0.00000054,-0.50388431,-0.00525647,
 -0.00003741,0.51706146,0.00001339,-0.00026403,0.00000002,-0.00086965,0
 .00040690,0.00000002,-0.00004604,-0.00359193,-0.00000021,0.00056502,-0
 .00023829,0.00000007,0.00005529,0.00021476,-0.00000005,-0.00008324,-0.
 00003424,0.00000001,-0.00005414,0.00000597,0.,-0.00006359,-0.00006413,
 -0.00000001,-0.00031077,0.00049226,0.00000004,0.00003129,-0.00000886,0
 .,-0.03457416,0.00117293,-0.00000206,0.03245350,-0.03075722,0.00000136
 ,-0.00139735,0.03342553,-0.00000003,0.,-0.00054680,0.00000003,0.000000
 12,0.00056137,0.00000046,-0.00000003,0.00473397,0.00000005,-0.00000007
 ,-0.00038008,0.00000001,0.00000003,-0.00000798,0.00000003,-0.00000001,
 0.00006740,0.,0.,-0.00005803,0.,-0.00000001,0.00024433,-0.00000003,0.0
 0000004,-0.00009858,0.,0.,0.00002459,-0.00000181,0.00000090,-0.0001785
 8,-0.00003742,-0.00000135,-0.00931351,0.00003822,0.00000052,0.00761880
 ,0.00013685,0.00067960,0.00000007,-0.00159377,0.00238824,-0.00000011,-
 0.02007070,0.02762039,-0.00000100,-0.00326309,-0.00439709,0.,-0.002353
 72,0.00040524,0.00000016,0.00149741,0.00120975,-0.00000001,-0.00021730
 ,-0.00012597,-0.00000001,-0.00146585,0.00030052,-0.00000006,0.00018849
 ,0.00015240,-0.00000006,-0.00061594,0.00008750,0.,-0.13868038,0.120410
 93,-0.00000693,0.01569645,-0.00926206,-0.00000049,0.00335412,0.0027702
 0,0.00000051,0.65311579,0.00111081,0.00035845,-0.00000006,-0.00118995,
 -0.00467101,-0.00000009,0.01269095,-0.00123193,0.00000016,-0.00109811,
 0.00163569,0.00000004,0.00099794,0.00112243,0.,-0.00123951,-0.00015722
 ,0.00000002,0.00031742,0.00007527,0.,-0.00025663,0.00106535,0.00000003
 ,-0.00061983,0.00058800,0.00000002,0.00014483,-0.00005426,0.,0.0789423
 4,-0.25896768,0.00001030,0.00923232,-0.05964076,0.00000139,0.00409583,
 0.00328815,0.00000011,-0.10993092,0.34719600,-0.00000002,0.00000003,-0
 .00048231,0.,0.00000019,0.00076958,-0.00000037,0.00000043,0.00659074,0
 .00000010,-0.00000028,0.00133317,-0.00000012,-0.00000006,-0.00042891,0
 .00000012,0.00000009,0.00012843,0.,-0.00000001,-0.00001244,-0.00000003
 ,-0.00000003,-0.00021590,0.00000002,0.,0.00009003,-0.00000002,0.,-0.00
 012482,-0.00000516,0.00001118,-0.04640381,-0.00000025,-0.00000005,0.02
 334613,0.00000036,0.00000050,-0.00442930,0.00001228,-0.00001299,0.0291
 0155,0.00002083,-0.00013961,-0.00000001,0.00052805,0.00020313,0.000000
 07,0.00212646,0.00355918,-0.00000044,-0.00124519,-0.00065530,-0.000000
 04,0.00006772,0.00060087,0.00000003,-0.00000232,-0.00007351,0.,-0.0000
 2000,0.00000220,0.,0.00008679,-0.00001880,0.,-0.00001978,0.00010532,-0
 .00000001,-0.00010517,-0.00003058,0.00000001,-0.01898070,-0.00745222,0
 .00000041,0.00335085,-0.00409577,0.00000020,0.00094865,0.00134142,0.,-
 0.50392009,0.00547037,-0.00000679,0.51708391,-0.00005546,0.00021520,0.
 00000002,-0.00056668,-0.00023901,-0.00000008,0.00004363,-0.00359438,0.
 00000044,0.00087031,0.00040703,-0.00000005,-0.00001339,-0.00026414,-0.
 00000003,0.00008322,-0.00003416,-0.00000001,-0.00003129,-0.00000885,0.
 ,0.00031115,0.00049303,0.00000004,0.00006341,-0.00006413,0.00000002,0.
 00005416,0.00000600,0.,0.03458142,0.00116160,0.00000031,-0.00277054,0.
 00329062,-0.00000005,-0.00134366,-0.00407142,-0.00000024,-0.03223800,-
 0.03074105,0.00000101,0.00118061,0.03342007,-0.00000004,-0.00000002,-0
 .00000759,0.00000006,0.00000004,-0.00037931,0.00000042,0.00000033,0.00
 473341,-0.00000021,-0.00000004,0.00056101,0.00000005,0.00000010,-0.000
 54708,0.,-0.00000006,0.00006722,0.,0.,0.00002466,0.,0.,-0.00009898,0.,
 0.,0.00024458,-0.00000001,0.,-0.00005812,-0.00000274,0.00000024,-0.000
 18006,0.00000030,-0.00000009,-0.00442877,-0.00000006,-0.00000020,0.001
 75657,-0.00000437,0.00000107,-0.00930925,0.00000657,-0.00000137,0.0076
 1583,-0.03912060,0.00015039,0.00000068,0.00440158,0.00576312,0.0000001
 3,-0.00497094,-0.00000217,0.00000004,0.00440628,-0.00575262,0.00000001
 ,-0.03909225,-0.00016411,0.00000067,-0.15052677,-0.00001663,0.00000204
 ,0.00098811,0.00018036,-0.00000007,-0.00145623,-0.00035061,0.00000003,
 -0.00145607,0.00035024,0.00000003,0.00098749,-0.00018035,-0.00000008,0
 .00532164,-0.00000081,0.00000004,-0.00180860,-0.00133148,-0.00000005,0
 .00008005,0.00016882,-0.00000001,-0.00180827,0.00133214,-0.00000011,0.
 00007998,-0.00016889,0.00000002,0.22397459,0.02714917,0.00364153,-0.00
 000042,-0.00163994,-0.00419245,-0.00000008,-0.00000258,0.00200163,0.00
 000004,0.00164647,-0.00419165,-0.00000012,-0.02715559,0.00363867,0.000
 00038,-0.00002056,-0.04048722,-0.00000020,0.00118661,0.00067392,0.0000
 0002,0.00092674,0.00011356,-0.00000001,-0.00092737,0.00011352,0.,-0.00
 118648,0.00067433,0.00000006,0.00000180,-0.00004267,0.00000001,0.00006
 975,0.00013362,0.,-0.00000261,0.00002362,0.,-0.00007073,0.00013456,0.,
 0.00000269,0.00002360,0.,0.00002261,0.03774142,0.00000098,0.00000002,0
 .00440055,0.00000004,-0.00000017,0.00497694,0.00000004,0.00000005,-0.0
 0089177,0.00000011,-0.00000006,0.00498284,0.00000030,-0.00000008,0.004
 39718,0.00000201,-0.00000017,-0.02367941,-0.00000003,0.00000004,-0.002
 58739,0.00000002,0.,-0.00002996,0.,0.,-0.00002934,-0.00000005,0.000000
 04,-0.00259337,-0.00000008,0.00000001,-0.00075635,0.00000003,0.0000000
 2,0.00004706,0.,0.,0.00000583,0.00000002,-0.00000002,0.00004711,0.,0.,
 0.00000587,-0.00000338,0.00000031,0.01170420\\0.00003541,-0.00007867,-
 0.00000040,-0.00007632,-0.00007650,0.00000065,-0.00002347,0.00013444,0
 .00000395,0.00014606,-0.00006135,0.00000133,-0.00005038,-0.00013015,-0
 .00000085,-0.00003306,0.00025146,0.00000025,0.00000623,-0.00003854,-0.
 00000011,0.00000611,0.00000609,0.00000002,-0.00002989,0.00001004,-0.00
 000010,-0.00005440,0.00003226,-0.00000008,0.00002536,-0.00000421,-0.00
 001349,-0.00005648,0.00001135,0.00000356,0.00002734,-0.00001643,0.0000
 0079,-0.00004312,-0.00002332,0.00000422,0.00002423,0.00001318,0.000000
 19,0.00009637,-0.00002964,0.00000007\\\@


 SUCCESS IS COUNTED SWEETEST
 BY THOSE WHO NE'ER SUCCEED.
 TO COMPREHEND NECTAR
 REQUIRES SOREST NEED.
           EMILY DICKINSON
 Job cpu time:       0 days  0 hours 33 minutes 41.2 seconds.
 Elapsed time:       0 days  0 hours  1 minutes  7.4 seconds.
 File lengths (MBytes):  RWF=     84 Int=      0 D2E=      0 Chk=      5 Scr=      1
 Normal termination of Gaussian 16 at Sun Sep 17 09:15:14 2023.
