 Entering Gaussian System, Link 0=C:\G09W\g09.exe
 Input=C:\Users\vivek\Downloads\14_09_23\molecule_35.gjf
 Output=C:\Users\vivek\Downloads\14_09_23\molecule_35.log
 Initial command:
 C:/G09W\l1.exe ".\Gau-20548.inp" "C:\Users\vivek\Downloads\14_09_23\molecule_35.log" /scrdir=".\"
 Entering Link 1 = C:/G09W\l1.exe PID=     13772.
  
 Copyright (c) 1988,1990,1992,1993,1995,1998,2003,2009,2013,
            Gaussian, Inc.  All Rights Reserved.
  
 This is part of the Gaussian(R) 09 program.  It is based on
 the Gaussian(R) 03 system (copyright 2003, Gaussian, Inc.),
 the Gaussian(R) 98 system (copyright 1998, Gaussian, Inc.),
 the Gaussian(R) 94 system (copyright 1995, Gaussian, Inc.),
 the Gaussian 92(TM) system (copyright 1992, Gaussian, Inc.),
 the Gaussian 90(TM) system (copyright 1990, Gaussian, Inc.),
 the Gaussian 88(TM) system (copyright 1988, Gaussian, Inc.),
 the Gaussian 86(TM) system (copyright 1986, Carnegie Mellon
 University), and the Gaussian 82(TM) system (copyright 1983,
 Carnegie Mellon University). Gaussian is a federally registered
 trademark of Gaussian, Inc.
  
 This software contains proprietary and confidential information,
 including trade secrets, belonging to Gaussian, Inc.
  
 This software is provided under written license and may be
 used, copied, transmitted, or stored only in accord with that
 written license.
  
 The following legend is applicable only to US Government
 contracts under FAR:
  
                    RESTRICTED RIGHTS LEGEND
  
 Use, reproduction and disclosure by the US Government is
 subject to restrictions as set forth in subparagraphs (a)
 and (c) of the Commercial Computer Software - Restricted
 Rights clause in FAR 52.227-19.
  
 Gaussian, Inc.
 340 Quinnipiac St., Bldg. 40, Wallingford CT 06492
  
  
 ---------------------------------------------------------------
 Warning -- This program may not be used in any manner that
 competes with the business of Gaussian, Inc. or will provide
 assistance to any competitor of Gaussian, Inc.  The licensee
 of this program is prohibited from giving any competitor of
 Gaussian, Inc. access to this program.  By using this program,
 the user acknowledges that Gaussian, Inc. is engaged in the
 business of creating and licensing software in the field of
 computational chemistry and represents and warrants to the
 licensee that it is not a competitor of Gaussian, Inc. and that
 it will not use this program in any manner prohibited above.
 ---------------------------------------------------------------
  

 Cite this work as:
 Gaussian 09, Revision D.01,
 M. J. Frisch, G. W. Trucks, H. B. Schlegel, G. E. Scuseria, 
 M. A. Robb, J. R. Cheeseman, G. Scalmani, V. Barone, B. Mennucci, 
 G. A. Petersson, H. Nakatsuji, M. Caricato, X. Li, H. P. Hratchian, 
 A. F. Izmaylov, J. Bloino, G. Zheng, J. L. Sonnenberg, M. Hada, 
 M. Ehara, K. Toyota, R. Fukuda, J. Hasegawa, M. Ishida, T. Nakajima, 
 Y. Honda, O. Kitao, H. Nakai, T. Vreven, J. A. Montgomery, Jr., 
 J. E. Peralta, F. Ogliaro, M. Bearpark, J. J. Heyd, E. Brothers, 
 K. N. Kudin, V. N. Staroverov, T. Keith, R. Kobayashi, J. Normand, 
 K. Raghavachari, A. Rendell, J. C. Burant, S. S. Iyengar, J. Tomasi, 
 M. Cossi, N. Rega, J. M. Millam, M. Klene, J. E. Knox, J. B. Cross, 
 V. Bakken, C. Adamo, J. Jaramillo, R. Gomperts, R. E. Stratmann, 
 O. Yazyev, A. J. Austin, R. Cammi, C. Pomelli, J. W. Ochterski, 
 R. L. Martin, K. Morokuma, V. G. Zakrzewski, G. A. Voth, 
 P. Salvador, J. J. Dannenberg, S. Dapprich, A. D. Daniels, 
 O. Farkas, J. B. Foresman, J. V. Ortiz, J. Cioslowski, 
 and D. J. Fox, Gaussian, Inc., Wallingford CT, 2013.
 
 ******************************************
 Gaussian 09:  EM64W-G09RevD.01 13-Apr-2013
                14-Sep-2023 
 ******************************************
 %nprocshared=6
 Will use up to    6 processors via shared memory.
 %mem=8GB
 %chk=C:\Users\vivek\Downloads\molecule_35.chk
 ---------------------------------------------------------------------
 # opt freq rb3lyp/6-31+g(d) geom=connectivity empiricaldispersion=gd3
 ---------------------------------------------------------------------
 1/14=-1,18=20,19=15,26=3,38=1,57=2/1,3;
 2/9=110,12=2,17=6,18=5,40=1/2;
 3/5=1,6=6,7=11,11=2,16=1,25=1,30=1,71=1,74=-5,116=1,124=31/1,2,3;
 4//1;
 5/5=2,38=5/2;
 6/7=2,8=2,9=2,10=2,28=1/1;
 7//1,2,3,16;
 1/14=-1,18=20,19=15,26=3/3(2);
 2/9=110/2;
 99//99;
 2/9=110/2;
 3/5=1,6=6,7=11,11=2,16=1,25=1,30=1,71=1,74=-5,116=1,124=31/1,2,3;
 4/5=5,16=3,69=1/1;
 5/5=2,38=5/2;
 7//1,2,3,16;
 1/14=-1,18=20,19=15,26=3/3(-5);
 2/9=110/2;
 6/7=2,8=2,9=2,10=2,19=2,28=1/1;
 99/9=1/99;
 -------------------
 Title Card Required
 -------------------
 Symbolic Z-matrix:
 Charge =  0 Multiplicity = 1
 C                    -2.03972  -0.31668  -0.09719 
 C                    -2.79054   0.86001   0.02768 
 C                    -0.63956  -0.2577   -0.09785 
 C                    -2.14121   2.09567   0.1519 
 C                    -0.74105   2.15465   0.15124 
 C                     0.00977   0.97796   0.02637 
 H                    -0.24528   3.0981    0.24609 
 H                     1.07883   1.02299   0.02587 
 O                     0.12659  -1.4584   -0.22527 
 H                     0.96204  -1.3554    0.23627 
 H                    -2.53549  -1.26013  -0.19203 
 H                    -3.8596    0.81498   0.02819 
 N                    -2.92879   3.32995   0.28289 
 O                    -2.37426   4.38521   0.38897 
 O                    -4.28759   3.27272   0.28352 
 

 GradGradGradGradGradGradGradGradGradGradGradGradGradGradGradGradGradGrad
 Berny optimization.
 Initialization pass.
                           ----------------------------
                           !    Initial Parameters    !
                           ! (Angstroms and Degrees)  !
 --------------------------                            --------------------------
 ! Name  Definition              Value          Derivative Info.                !
 --------------------------------------------------------------------------------
 ! R1    R(1,2)                  1.4014         estimate D2E/DX2                !
 ! R2    R(1,3)                  1.4014         estimate D2E/DX2                !
 ! R3    R(1,11)                 1.07           estimate D2E/DX2                !
 ! R4    R(2,4)                  1.4014         estimate D2E/DX2                !
 ! R5    R(2,12)                 1.07           estimate D2E/DX2                !
 ! R6    R(3,6)                  1.4014         estimate D2E/DX2                !
 ! R7    R(3,9)                  1.43           estimate D2E/DX2                !
 ! R8    R(4,5)                  1.4014         estimate D2E/DX2                !
 ! R9    R(4,13)                 1.47           estimate D2E/DX2                !
 ! R10   R(5,6)                  1.4014         estimate D2E/DX2                !
 ! R11   R(5,7)                  1.07           estimate D2E/DX2                !
 ! R12   R(6,8)                  1.07           estimate D2E/DX2                !
 ! R13   R(9,10)                 0.96           estimate D2E/DX2                !
 ! R14   R(13,14)                1.1968         estimate D2E/DX2                !
 ! R15   R(13,15)                1.36           estimate D2E/DX2                !
 ! A1    A(2,1,3)              120.0            estimate D2E/DX2                !
 ! A2    A(2,1,11)             120.0            estimate D2E/DX2                !
 ! A3    A(3,1,11)             120.0            estimate D2E/DX2                !
 ! A4    A(1,2,4)              120.0            estimate D2E/DX2                !
 ! A5    A(1,2,12)             120.0            estimate D2E/DX2                !
 ! A6    A(4,2,12)             120.0            estimate D2E/DX2                !
 ! A7    A(1,3,6)              120.0            estimate D2E/DX2                !
 ! A8    A(1,3,9)              120.0            estimate D2E/DX2                !
 ! A9    A(6,3,9)              120.0            estimate D2E/DX2                !
 ! A10   A(2,4,5)              120.0            estimate D2E/DX2                !
 ! A11   A(2,4,13)             120.0            estimate D2E/DX2                !
 ! A12   A(5,4,13)             120.0            estimate D2E/DX2                !
 ! A13   A(4,5,6)              120.0            estimate D2E/DX2                !
 ! A14   A(4,5,7)              120.0            estimate D2E/DX2                !
 ! A15   A(6,5,7)              120.0            estimate D2E/DX2                !
 ! A16   A(3,6,5)              120.0            estimate D2E/DX2                !
 ! A17   A(3,6,8)              120.0            estimate D2E/DX2                !
 ! A18   A(5,6,8)              120.0            estimate D2E/DX2                !
 ! A19   A(3,9,10)             109.4712         estimate D2E/DX2                !
 ! A20   A(4,13,14)            120.0            estimate D2E/DX2                !
 ! A21   A(4,13,15)            120.0            estimate D2E/DX2                !
 ! A22   A(14,13,15)           120.0            estimate D2E/DX2                !
 ! D1    D(3,1,2,4)              0.0001         estimate D2E/DX2                !
 ! D2    D(3,1,2,12)          -180.0            estimate D2E/DX2                !
 ! D3    D(11,1,2,4)          -180.0            estimate D2E/DX2                !
 ! D4    D(11,1,2,12)            0.0            estimate D2E/DX2                !
 ! D5    D(2,1,3,6)              0.0            estimate D2E/DX2                !
 ! D6    D(2,1,3,9)           -180.0            estimate D2E/DX2                !
 ! D7    D(11,1,3,6)          -179.9999         estimate D2E/DX2                !
 ! D8    D(11,1,3,9)             0.0001         estimate D2E/DX2                !
 ! D9    D(1,2,4,5)             -0.0001         estimate D2E/DX2                !
 ! D10   D(1,2,4,13)          -180.0            estimate D2E/DX2                !
 ! D11   D(12,2,4,5)           179.9999         estimate D2E/DX2                !
 ! D12   D(12,2,4,13)            0.0001         estimate D2E/DX2                !
 ! D13   D(1,3,6,5)             -0.0001         estimate D2E/DX2                !
 ! D14   D(1,3,6,8)            179.9998         estimate D2E/DX2                !
 ! D15   D(9,3,6,5)            179.9999         estimate D2E/DX2                !
 ! D16   D(9,3,6,8)             -0.0002         estimate D2E/DX2                !
 ! D17   D(1,3,9,10)          -150.0            estimate D2E/DX2                !
 ! D18   D(6,3,9,10)            30.0            estimate D2E/DX2                !
 ! D19   D(2,4,5,6)              0.0001         estimate D2E/DX2                !
 ! D20   D(2,4,5,7)           -179.9998         estimate D2E/DX2                !
 ! D21   D(13,4,5,6)           179.9999         estimate D2E/DX2                !
 ! D22   D(13,4,5,7)             0.0            estimate D2E/DX2                !
 ! D23   D(2,4,13,14)          179.9999         estimate D2E/DX2                !
 ! D24   D(2,4,13,15)           -0.0002         estimate D2E/DX2                !
 ! D25   D(5,4,13,14)            0.0001         estimate D2E/DX2                !
 ! D26   D(5,4,13,15)          179.9999         estimate D2E/DX2                !
 ! D27   D(4,5,6,3)              0.0            estimate D2E/DX2                !
 ! D28   D(4,5,6,8)           -179.9999         estimate D2E/DX2                !
 ! D29   D(7,5,6,3)            179.9999         estimate D2E/DX2                !
 ! D30   D(7,5,6,8)              0.0            estimate D2E/DX2                !
 --------------------------------------------------------------------------------
 Trust Radius=3.00D-01 FncErr=1.00D-07 GrdErr=1.00D-06
 Number of steps in this run=     77 maximum allowed number of steps=    100.
 GradGradGradGradGradGradGradGradGradGradGradGradGradGradGradGradGradGrad

                          Input orientation:                          
 ---------------------------------------------------------------------
 Center     Atomic      Atomic             Coordinates (Angstroms)
 Number     Number       Type             X           Y           Z
 ---------------------------------------------------------------------
      1          6           0       -2.039716   -0.316677   -0.097191
      2          6           0       -2.790543    0.860007    0.027683
      3          6           0       -0.639558   -0.257700   -0.097848
      4          6           0       -2.141212    2.095670    0.151898
      5          6           0       -0.741054    2.154647    0.151242
      6          6           0        0.009773    0.977962    0.026369
      7          1           0       -0.245275    3.098103    0.246086
      8          1           0        1.078825    1.022993    0.025869
      9          8           0        0.126592   -1.458398   -0.225272
     10          1           0        0.962037   -1.355405    0.236273
     11          1           0       -2.535495   -1.260133   -0.192032
     12          1           0       -3.859595    0.814976    0.028186
     13          7           0       -2.928793    3.329954    0.282886
     14          8           0       -2.374263    4.385214    0.388967
     15          8           0       -4.287588    3.272719    0.283521
 ---------------------------------------------------------------------
                    Distance matrix (angstroms):
                    1          2          3          4          5
     1  C    0.000000
     2  C    1.401400   0.000000
     3  C    1.401400   2.427296   0.000000
     4  C    2.427296   1.401400   2.802800   0.000000
     5  C    2.802800   2.427296   2.427296   1.401400   0.000000
     6  C    2.427296   2.802800   1.401400   2.427296   1.401400
     7  H    3.872800   3.396345   3.396345   2.146700   1.070000
     8  H    3.396345   3.872800   2.146700   3.396345   2.146700
     9  O    2.452106   3.734792   1.430000   4.232800   3.734792
    10  H    3.193850   4.362731   1.970203   4.641895   3.902334
    11  H    1.070000   2.146700   2.146700   3.396345   3.872800
    12  H    2.146700   1.070000   3.396345   2.146700   3.396345
    13  N    3.772644   2.486942   4.272800   1.470000   2.486942
    14  O    4.738782   3.568038   4.980245   2.313553   2.774763
    15  O    4.252251   2.850925   5.090916   2.451469   3.720953
                    6          7          8          9         10
     6  C    0.000000
     7  H    2.146700   0.000000
     8  H    1.070000   2.471400   0.000000
     9  O    2.452106   4.595886   2.669667   0.000000
    10  H    2.528926   4.614263   2.390540   0.960000   0.000000
    11  H    3.396345   4.942800   4.280590   2.669667   3.524947
    12  H    3.872800   4.280590   4.942800   4.595886   5.291691
    13  N    3.772644   2.693767   4.631321   5.702800   6.090429
    14  O    4.174262   2.491918   4.833237   6.385873   6.641454
    15  O    4.878458   4.046256   5.824607   6.490557   6.998595
                   11         12         13         14         15
    11  H    0.000000
    12  H    2.471400   0.000000
    13  N    4.631321   2.693767   0.000000
    14  O    5.677455   3.883680   1.196800   0.000000
    15  O    4.882902   2.507763   1.360000   2.215757   0.000000
 Stoichiometry    C6H5NO3
 Framework group  C1[X(C6H5NO3)]
 Deg. of freedom    39
 Full point group                 C1      NOp   1
 Largest Abelian subgroup         C1      NOp   1
 Largest concise Abelian subgroup C1      NOp   1
                         Standard orientation:                         
 ---------------------------------------------------------------------
 Center     Atomic      Atomic             Coordinates (Angstroms)
 Number     Number       Type             X           Y           Z
 ---------------------------------------------------------------------
      1          6           0       -1.369077    1.245565   -0.008188
      2          6           0        0.031812    1.208428   -0.001018
      3          6           0       -2.101657    0.050923   -0.017061
      4          6           0        0.700122   -0.023352   -0.002723
      5          6           0       -0.032457   -1.217994   -0.011596
      6          6           0       -1.433347   -1.180857   -0.018764
      7          1           0        0.477812   -2.158485   -0.012894
      8          1           0       -1.992687   -2.092993   -0.025536
      9          8           0       -3.531136    0.088818   -0.024378
     10          1           0       -3.874140   -0.688167    0.423108
     11          1           0       -1.879347    2.186056   -0.006886
     12          1           0        0.591153    2.120564    0.005757
     13          7           0        2.169587   -0.062307    0.004798
     14          8           0        2.740326   -1.114250    0.003342
     15          8           0        2.880525    1.097044    0.013406
 ---------------------------------------------------------------------
 Rotational constants (GHZ):      3.9140743      0.7806128      0.6511498
 Standard basis: 6-31+G(d) (6D, 7F)
 There are   200 symmetry adapted cartesian basis functions of A   symmetry.
 There are   200 symmetry adapted basis functions of A   symmetry.
   200 basis functions,   340 primitive gaussians,   200 cartesian basis functions
    36 alpha electrons       36 beta electrons
       nuclear repulsion energy       487.1061627233 Hartrees.
 NAtoms=   15 NActive=   15 NUniq=   15 SFac= 1.00D+00 NAtFMM=   60 NAOKFM=F Big=F
 Integral buffers will be    131072 words long.
 Raffenetti 2 integral format.
 Two-electron integral symmetry is turned on.
 Nuclear repulsion after empirical dispersion term =      487.0957969874 Hartrees.
 One-electron integrals computed using PRISM.
 NBasis=   200 RedAO= T EigKep=  3.88D-06  NBF=   200
 NBsUse=   200 1.00D-06 EigRej= -1.00D+00 NBFU=   200
 ExpMin= 4.38D-02 ExpMax= 5.48D+03 ExpMxC= 8.25D+02 IAcc=2 IRadAn=         4 AccDes= 0.00D+00
 Harris functional with IExCor=  402 and IRadAn=       4 diagonalized for initial guess.
 HarFok:  IExCor=  402 AccDes= 0.00D+00 IRadAn=         4 IDoV= 1 UseB2=F ITyADJ=14
 ICtDFT=  3500011 ScaDFX=  1.000000  1.000000  1.000000  1.000000
 FoFCou: FMM=F IPFlag=           0 FMFlag=      100000 FMFlg1=           0
         NFxFlg=           0 DoJE=T BraDBF=F KetDBF=T FulRan=T
         wScrn=  0.000000 ICntrl=     500 IOpCl=  0 I1Cent=   200000004 NGrid=           0
         NMat0=    1 NMatS0=      1 NMatT0=    0 NMatD0=    1 NMtDS0=    0 NMtDT0=    0
 Petite list used in FoFCou.
 Keep R1 ints in memory in canonical form, NReq=206216490.
 Requested convergence on RMS density matrix=1.00D-08 within 128 cycles.
 Requested convergence on MAX density matrix=1.00D-06.
 Requested convergence on             energy=1.00D-06.
 No special actions if energy rises.
 EnCoef did     1 forward-backward iterations
 SCF Done:  E(RB3LYP) =  -511.982352410     A.U. after   16 cycles
            NFock= 16  Conv=0.58D-08     -V/T= 2.0098

 **********************************************************************

            Population analysis using the SCF density.

 **********************************************************************

 Orbital symmetries:
       Occupied  (A) (A) (A) (A) (A) (A) (A) (A) (A) (A) (A) (A)
                 (A) (A) (A) (A) (A) (A) (A) (A) (A) (A) (A) (A)
                 (A) (A) (A) (A) (A) (A) (A) (A) (A) (A) (A) (A)
       Virtual   (A) (A) (A) (A) (A) (A) (A) (A) (A) (A) (A) (A)
                 (A) (A) (A) (A) (A) (A) (A) (A) (A) (A) (A) (A)
                 (A) (A) (A) (A) (A) (A) (A) (A) (A) (A) (A) (A)
                 (A) (A) (A) (A) (A) (A) (A) (A) (A) (A) (A) (A)
                 (A) (A) (A) (A) (A) (A) (A) (A) (A) (A) (A) (A)
                 (A) (A) (A) (A) (A) (A) (A) (A) (A) (A) (A) (A)
                 (A) (A) (A) (A) (A) (A) (A) (A) (A) (A) (A) (A)
                 (A) (A) (A) (A) (A) (A) (A) (A) (A) (A) (A) (A)
                 (A) (A) (A) (A) (A) (A) (A) (A) (A) (A) (A) (A)
                 (A) (A) (A) (A) (A) (A) (A) (A) (A) (A) (A) (A)
                 (A) (A) (A) (A) (A) (A) (A) (A) (A) (A) (A) (A)
                 (A) (A) (A) (A) (A) (A) (A) (A) (A) (A) (A) (A)
                 (A) (A) (A) (A) (A) (A) (A) (A) (A) (A) (A) (A)
                 (A) (A) (A) (A) (A) (A) (A) (A)
 The electronic state is 1-A.
 Alpha  occ. eigenvalues --  -19.21922 -19.21651 -19.18104 -14.58277 -10.30336
 Alpha  occ. eigenvalues --  -10.27681 -10.24682 -10.24302 -10.23912 -10.23471
 Alpha  occ. eigenvalues --   -1.22953  -1.08085  -1.01260  -0.90786  -0.82479
 Alpha  occ. eigenvalues --   -0.79633  -0.72141  -0.66517  -0.62421  -0.58529
 Alpha  occ. eigenvalues --   -0.56533  -0.53273  -0.52922  -0.49775  -0.49307
 Alpha  occ. eigenvalues --   -0.47211  -0.46367  -0.43595  -0.41337  -0.39114
 Alpha  occ. eigenvalues --   -0.36825  -0.32733  -0.31104  -0.29718  -0.29015
 Alpha  occ. eigenvalues --   -0.27975
 Alpha virt. eigenvalues --   -0.11596  -0.05487  -0.02365  -0.01807   0.00323
 Alpha virt. eigenvalues --    0.01458   0.02919   0.04641   0.04920   0.05538
 Alpha virt. eigenvalues --    0.07374   0.07511   0.07883   0.09334   0.10481
 Alpha virt. eigenvalues --    0.11858   0.12241   0.12356   0.12599   0.12779
 Alpha virt. eigenvalues --    0.13083   0.13790   0.14431   0.15363   0.17218
 Alpha virt. eigenvalues --    0.17416   0.18345   0.18673   0.18846   0.19568
 Alpha virt. eigenvalues --    0.20298   0.20961   0.21577   0.22582   0.22892
 Alpha virt. eigenvalues --    0.23544   0.24823   0.25080   0.26048   0.26287
 Alpha virt. eigenvalues --    0.26592   0.27089   0.28640   0.29600   0.30844
 Alpha virt. eigenvalues --    0.31781   0.32898   0.32952   0.34084   0.34381
 Alpha virt. eigenvalues --    0.35446   0.38053   0.38595   0.39583   0.41544
 Alpha virt. eigenvalues --    0.44885   0.52355   0.55978   0.58133   0.61810
 Alpha virt. eigenvalues --    0.62410   0.62721   0.68211   0.68962   0.69148
 Alpha virt. eigenvalues --    0.71048   0.72461   0.74025   0.78045   0.78977
 Alpha virt. eigenvalues --    0.80521   0.84690   0.87961   0.89872   0.92371
 Alpha virt. eigenvalues --    0.95750   0.96099   0.99188   1.00207   1.04730
 Alpha virt. eigenvalues --    1.05217   1.06878   1.07859   1.15187   1.15744
 Alpha virt. eigenvalues --    1.16016   1.16729   1.18519   1.19302   1.20116
 Alpha virt. eigenvalues --    1.21562   1.22954   1.26418   1.27727   1.29624
 Alpha virt. eigenvalues --    1.30595   1.31777   1.34754   1.35588   1.39002
 Alpha virt. eigenvalues --    1.40398   1.40968   1.43089   1.43962   1.45421
 Alpha virt. eigenvalues --    1.46141   1.48560   1.61938   1.67031   1.70123
 Alpha virt. eigenvalues --    1.73540   1.74871   1.78207   1.80742   1.81049
 Alpha virt. eigenvalues --    1.81440   1.83100   1.86815   1.89286   1.91265
 Alpha virt. eigenvalues --    1.93304   1.95860   1.97432   1.98741   2.04555
 Alpha virt. eigenvalues --    2.06089   2.06414   2.09671   2.12354   2.18801
 Alpha virt. eigenvalues --    2.19345   2.22128   2.24744   2.25442   2.38222
 Alpha virt. eigenvalues --    2.39580   2.44015   2.45950   2.49589   2.56586
 Alpha virt. eigenvalues --    2.59347   2.59733   2.62789   2.65714   2.70947
 Alpha virt. eigenvalues --    2.77126   2.78538   2.89684   2.97437   2.98381
 Alpha virt. eigenvalues --    3.03465   3.04146   3.18728   3.39273   4.06901
 Alpha virt. eigenvalues --    4.13251   4.20515   4.21628   4.27166   4.34299
 Alpha virt. eigenvalues --    4.45041   4.45595   4.70217   4.74295
          Condensed to atoms (all electrons):
               1          2          3          4          5          6
     1  C    9.909810  -0.785928  -1.634809  -0.096293  -1.165649  -0.495677
     2  C   -0.785928   8.989640   0.707237  -0.431348  -2.124171  -0.513492
     3  C   -1.634809   0.707237   8.278563  -1.484976  -0.303201   0.080634
     4  C   -0.096293  -0.431348  -1.484976   9.779045   0.110970  -1.092637
     5  C   -1.165649  -2.124171  -0.303201   0.110970   9.332074  -0.175906
     6  C   -0.495677  -0.513492   0.080634  -1.092637  -0.175906   7.964493
     7  H   -0.013633   0.083066   0.004727   0.154450   0.144942  -0.052494
     8  H    0.015630  -0.028672  -0.080360   0.018695   0.041213   0.329586
     9  O   -0.222480   0.088296   0.267645  -0.029807   0.080166  -0.145638
    10  H    0.128402  -0.017600  -0.040110   0.015776  -0.009069  -0.071988
    11  H    0.309283  -0.013711   0.005056  -0.004162  -0.025975   0.030555
    12  H   -0.089297   0.179194  -0.016324   0.172799   0.084543  -0.013147
    13  N    0.055923   0.029897   0.014210  -0.809649   0.364813   0.026936
    14  O    0.000715   0.140852  -0.000385  -0.241970  -0.101032   0.138018
    15  O    0.114520  -0.068355  -0.006427  -0.228473   0.096629  -0.005240
               7          8          9         10         11         12
     1  C   -0.013633   0.015630  -0.222480   0.128402   0.309283  -0.089297
     2  C    0.083066  -0.028672   0.088296  -0.017600  -0.013711   0.179194
     3  C    0.004727  -0.080360   0.267645  -0.040110   0.005056  -0.016324
     4  C    0.154450   0.018695  -0.029807   0.015776  -0.004162   0.172799
     5  C    0.144942   0.041213   0.080166  -0.009069  -0.025975   0.084543
     6  C   -0.052494   0.329586  -0.145638  -0.071988   0.030555  -0.013147
     7  H    0.482442  -0.004586  -0.000457  -0.000008   0.000012  -0.000140
     8  H   -0.004586   0.522627  -0.008411   0.004364  -0.000141   0.000012
     9  O   -0.000457  -0.008411   8.469996   0.165310  -0.003432  -0.000496
    10  H   -0.000008   0.004364   0.165310   0.355022  -0.000062   0.000003
    11  H    0.000012  -0.000141  -0.003432  -0.000062   0.496426  -0.004504
    12  H   -0.000140   0.000012  -0.000496   0.000003  -0.004504   0.467150
    13  N   -0.043052  -0.000044   0.000540  -0.000067   0.000012  -0.030772
    14  O    0.021348  -0.000025  -0.000056   0.000001   0.000050  -0.001940
    15  O   -0.001928   0.000039  -0.000045   0.000000  -0.000073   0.013641
              13         14         15
     1  C    0.055923   0.000715   0.114520
     2  C    0.029897   0.140852  -0.068355
     3  C    0.014210  -0.000385  -0.006427
     4  C   -0.809649  -0.241970  -0.228473
     5  C    0.364813  -0.101032   0.096629
     6  C    0.026936   0.138018  -0.005240
     7  H   -0.043052   0.021348  -0.001928
     8  H   -0.000044  -0.000025   0.000039
     9  O    0.000540  -0.000056  -0.000045
    10  H   -0.000067   0.000001   0.000000
    11  H    0.000012   0.000050  -0.000073
    12  H   -0.030772  -0.001940   0.013641
    13  N    6.940919   0.299266   0.510777
    14  O    0.299266   7.804213  -0.108228
    15  O    0.510777  -0.108228   7.803168
 Mulliken charges:
               1
     1  C   -0.030518
     2  C   -0.234905
     3  C    0.208519
     4  C    0.167579
     5  C   -0.350349
     6  C   -0.004002
     7  H    0.225310
     8  H    0.190073
     9  O   -0.661132
    10  H    0.470026
    11  H    0.210665
    12  H    0.239276
    13  N   -0.359711
    14  O    0.049173
    15  O   -0.120004
 Sum of Mulliken charges =   0.00000
 Mulliken charges with hydrogens summed into heavy atoms:
               1
     1  C    0.180148
     2  C    0.004371
     3  C    0.208519
     4  C    0.167579
     5  C   -0.125039
     6  C    0.186070
     9  O   -0.191106
    13  N   -0.359711
    14  O    0.049173
    15  O   -0.120004
 Electronic spatial extent (au):  <R**2>=           1595.6510
 Charge=              0.0000 electrons
 Dipole moment (field-independent basis, Debye):
    X=             -5.3171    Y=             -1.8196    Z=              0.7211  Tot=              5.6659
 Quadrupole moment (field-independent basis, Debye-Ang):
   XX=            -69.7787   YY=            -52.1590   ZZ=            -58.5019
   XY=              3.8403   XZ=             -3.3319   YZ=             -0.7535
 Traceless Quadrupole moment (field-independent basis, Debye-Ang):
   XX=             -9.6322   YY=              7.9876   ZZ=              1.6446
   XY=              3.8403   XZ=             -3.3319   YZ=             -0.7535
 Octapole moment (field-independent basis, Debye-Ang**2):
  XXX=            -56.2387  YYY=             -0.9961  ZZZ=              0.5775  XYY=            -15.6055
  XXY=            -29.6429  XXZ=             13.4011  XZZ=              5.9167  YZZ=             -1.0593
  YYZ=              0.2794  XYZ=              2.9552
 Hexadecapole moment (field-independent basis, Debye-Ang**3):
 XXXX=          -1645.6824 YYYY=           -358.8460 ZZZZ=            -62.5803 XXXY=             80.4012
 XXXZ=            -57.0563 YYYX=             -0.3609 YYYZ=             -0.4192 ZZZX=             -2.1985
 ZZZY=             -0.6140 XXYY=           -318.4167 XXZZ=           -261.4191 YYZZ=            -82.3866
 XXYZ=            -12.0231 YYXZ=             -1.7343 ZZXY=             -0.2164
 N-N= 4.870957969874D+02 E-N=-2.168570878138D+03  KE= 5.069958290121D+02
 Calling FoFJK, ICntrl=      2127 FMM=F ISym2X=0 I1Cent= 0 IOpClX= 0 NMat=1 NMatS=1 NMatT=0.
 ***** Axes restored to original set *****
 -------------------------------------------------------------------
 Center     Atomic                   Forces (Hartrees/Bohr)
 Number     Number              X              Y              Z
 -------------------------------------------------------------------
      1        6           0.004267438    0.010738749   -0.001064046
      2        6           0.011566483   -0.003607693   -0.001598303
      3        6           0.022110206   -0.022097898    0.001415355
      4        6          -0.005425901   -0.005349015   -0.000713384
      5        6          -0.001402585   -0.008974842   -0.000362297
      6        6          -0.017978029    0.005806510    0.001291906
      7        1           0.004248229    0.009680914    0.000897330
      8        1           0.011722520    0.001577883   -0.000501065
      9        8          -0.038783468    0.026562306   -0.001301034
     10        1           0.009706220    0.003633885    0.003045930
     11        1          -0.004079745   -0.010004251   -0.000602046
     12        1          -0.010205595    0.001111457    0.000413978
     13        7          -0.100520446   -0.021468675   -0.001668901
     14        8           0.024863623    0.024813468    0.002442147
     15        8           0.089911048   -0.012422799   -0.001695570
 -------------------------------------------------------------------
 Cartesian Forces:  Max     0.100520446 RMS     0.023388317

 GradGradGradGradGradGradGradGradGradGradGradGradGradGradGradGradGradGrad
 Berny optimization.
 FormGI is forming the generalized inverse of G from B-inverse, IUseBI=4.
 Internal  Forces:  Max     0.089311436 RMS     0.014066428
 Search for a local minimum.
 Step number   1 out of a maximum of   77
 All quantities printed in internal units (Hartrees-Bohrs-Radians)
 Mixed Optimization -- RFO/linear search
 Second derivative matrix not updated -- first step.
 ITU=  0
     Eigenvalues ---    0.00766   0.00766   0.01295   0.01668   0.01932
     Eigenvalues ---    0.02070   0.02070   0.02070   0.02070   0.02070
     Eigenvalues ---    0.02070   0.02070   0.16000   0.16000   0.16000
     Eigenvalues ---    0.16000   0.16000   0.22000   0.22981   0.24000
     Eigenvalues ---    0.25000   0.25000   0.25000   0.25000   0.35740
     Eigenvalues ---    0.37230   0.37230   0.37230   0.37230   0.40989
     Eigenvalues ---    0.41268   0.41640   0.45389   0.45389   0.45389
     Eigenvalues ---    0.45389   0.52948   0.55473   1.06448
 RFO step:  Lambda=-2.71273752D-02 EMin= 7.65814429D-03
 Linear search not attempted -- first point.
 Iteration  1 RMS(Cart)=  0.05227708 RMS(Int)=  0.00134052
 Iteration  2 RMS(Cart)=  0.00160338 RMS(Int)=  0.00010412
 Iteration  3 RMS(Cart)=  0.00000501 RMS(Int)=  0.00010405
 Iteration  4 RMS(Cart)=  0.00000000 RMS(Int)=  0.00010405
 Variable       Old X    -DE/DX   Delta X   Delta X   Delta X     New X
                                 (Linear)    (Quad)   (Total)
    R1        2.64826  -0.01027   0.00000  -0.02150  -0.02151   2.62676
    R2        2.64826  -0.00504   0.00000  -0.01045  -0.01047   2.63779
    R3        2.02201   0.01076   0.00000   0.02695   0.02695   2.04896
    R4        2.64826  -0.00378   0.00000  -0.00802  -0.00801   2.64025
    R5        2.02201   0.01015   0.00000   0.02541   0.02541   2.04742
    R6        2.64826   0.00068   0.00000   0.00157   0.00157   2.64983
    R7        2.70231  -0.04109   0.00000  -0.09402  -0.09402   2.60829
    R8        2.64826  -0.00465   0.00000  -0.00970  -0.00968   2.63858
    R9        2.77790  -0.01534   0.00000  -0.03990  -0.03990   2.73800
   R10        2.64826  -0.01053   0.00000  -0.02175  -0.02174   2.62652
   R11        2.02201   0.01058   0.00000   0.02650   0.02650   2.04850
   R12        2.02201   0.01178   0.00000   0.02949   0.02949   2.05150
   R13        1.81414   0.01030   0.00000   0.01770   0.01770   1.83184
   R14        2.26162   0.03362   0.00000   0.03080   0.03080   2.29242
   R15        2.57003  -0.08931   0.00000  -0.16046  -0.16046   2.40957
    A1        2.09440  -0.00340   0.00000  -0.01284  -0.01286   2.08154
    A2        2.09440   0.00273   0.00000   0.01193   0.01194   2.10633
    A3        2.09440   0.00067   0.00000   0.00091   0.00092   2.09531
    A4        2.09440  -0.00366   0.00000  -0.01428  -0.01428   2.08012
    A5        2.09440   0.00342   0.00000   0.01566   0.01565   2.11004
    A6        2.09440   0.00024   0.00000  -0.00137  -0.00138   2.09301
    A7        2.09440   0.00595   0.00000   0.02284   0.02274   2.11713
    A8        2.09440  -0.01256   0.00000  -0.04599  -0.04606   2.04834
    A9        2.09440   0.00661   0.00000   0.02315   0.02307   2.11746
   A10        2.09440   0.00912   0.00000   0.03356   0.03359   2.12799
   A11        2.09440  -0.00368   0.00000  -0.01362  -0.01364   2.08076
   A12        2.09440  -0.00543   0.00000  -0.01994  -0.01996   2.07444
   A13        2.09440  -0.00571   0.00000  -0.02176  -0.02173   2.07266
   A14        2.09440   0.00211   0.00000   0.00689   0.00687   2.10127
   A15        2.09440   0.00360   0.00000   0.01486   0.01484   2.10924
   A16        2.09440  -0.00229   0.00000  -0.00752  -0.00751   2.08689
   A17        2.09440   0.00218   0.00000   0.00929   0.00928   2.10368
   A18        2.09440   0.00011   0.00000  -0.00178  -0.00178   2.09261
   A19        1.91063  -0.00299   0.00000  -0.01599  -0.01599   1.89465
   A20        2.09440  -0.00186   0.00000  -0.00672  -0.00672   2.08768
   A21        2.09440  -0.01999   0.00000  -0.07212  -0.07212   2.02228
   A22        2.09440   0.02185   0.00000   0.07884   0.07884   2.17323
    D1        0.00000  -0.00011   0.00000  -0.00223  -0.00231  -0.00231
    D2       -3.14159   0.00015   0.00000   0.00326   0.00330  -3.13830
    D3       -3.14159  -0.00013   0.00000  -0.00269  -0.00284   3.13876
    D4        0.00000   0.00013   0.00000   0.00280   0.00277   0.00277
    D5        0.00000  -0.00022   0.00000  -0.00501  -0.00497  -0.00497
    D6       -3.14159   0.00090   0.00000   0.01911   0.01877  -3.12282
    D7       -3.14159  -0.00020   0.00000  -0.00455  -0.00445   3.13714
    D8        0.00000   0.00092   0.00000   0.01957   0.01929   0.01930
    D9        0.00000   0.00020   0.00000   0.00437   0.00442   0.00442
   D10       -3.14159   0.00017   0.00000   0.00359   0.00365  -3.13794
   D11        3.14159  -0.00006   0.00000  -0.00113  -0.00113   3.14046
   D12        0.00000  -0.00009   0.00000  -0.00190  -0.00190  -0.00190
   D13        0.00000   0.00047   0.00000   0.01013   0.01026   0.01026
   D14        3.14159   0.00066   0.00000   0.01420   0.01442  -3.12717
   D15        3.14159  -0.00065   0.00000  -0.01400  -0.01443   3.12716
   D16        0.00000  -0.00045   0.00000  -0.00993  -0.01026  -0.01027
   D17       -2.61799  -0.00295   0.00000  -0.07182  -0.07163  -2.68962
   D18        0.52360  -0.00183   0.00000  -0.04769  -0.04788   0.47572
   D19        0.00000   0.00004   0.00000   0.00075   0.00082   0.00082
   D20       -3.14159  -0.00026   0.00000  -0.00556  -0.00554   3.13606
   D21        3.14159   0.00007   0.00000   0.00152   0.00158  -3.14001
   D22        0.00000  -0.00023   0.00000  -0.00479  -0.00477  -0.00477
   D23        3.14159   0.00001   0.00000   0.00028   0.00027  -3.14133
   D24        0.00000   0.00003   0.00000   0.00089   0.00088   0.00087
   D25        0.00000  -0.00002   0.00000  -0.00049  -0.00048  -0.00048
   D26        3.14159   0.00000   0.00000   0.00012   0.00013  -3.14146
   D27        0.00000  -0.00038   0.00000  -0.00799  -0.00802  -0.00802
   D28       -3.14159  -0.00057   0.00000  -0.01206  -0.01216   3.12944
   D29        3.14159  -0.00008   0.00000  -0.00168  -0.00163   3.13996
   D30        0.00000  -0.00027   0.00000  -0.00576  -0.00577  -0.00577
         Item               Value     Threshold  Converged?
 Maximum Force            0.089311     0.000450     NO 
 RMS     Force            0.014066     0.000300     NO 
 Maximum Displacement     0.231994     0.001800     NO 
 RMS     Displacement     0.051885     0.001200     NO 
 Predicted change in Energy=-1.449988D-02
 GradGradGradGradGradGradGradGradGradGradGradGradGradGradGradGradGradGrad

                          Input orientation:                          
 ---------------------------------------------------------------------
 Center     Atomic      Atomic             Coordinates (Angstroms)
 Number     Number       Type             X           Y           Z
 ---------------------------------------------------------------------
      1          6           0       -2.048843   -0.311461   -0.088399
      2          6           0       -2.795294    0.855513    0.026216
      3          6           0       -0.655184   -0.233721   -0.078591
      4          6           0       -2.132112    2.078864    0.151370
      5          6           0       -0.738571    2.165837    0.159666
      6          6           0        0.004987    0.997821    0.038554
      7          1           0       -0.249703    3.128853    0.252997
      8          1           0        1.089539    1.045070    0.031395
      9          8           0        0.046984   -1.413845   -0.217699
     10          1           0        0.915463   -1.307055    0.199448
     11          1           0       -2.538316   -1.274205   -0.184123
     12          1           0       -3.878327    0.825576    0.024697
     13          7           0       -2.909400    3.295291    0.275484
     14          8           0       -2.340987    4.361441    0.384273
     15          8           0       -4.176101    3.149953    0.261349
 ---------------------------------------------------------------------
                    Distance matrix (angstroms):
                    1          2          3          4          5
     1  C    0.000000
     2  C    1.390019   0.000000
     3  C    1.395860   2.403640   0.000000
     4  C    2.403762   1.397162   2.753588   0.000000
     5  C    2.813423   2.442307   2.412798   1.396277   0.000000
     6  C    2.438966   2.803922   1.402229   2.397618   1.389894
     7  H    3.897334   3.420458   3.403126   2.157839   1.084022
     8  H    3.421107   3.889459   2.165979   3.385581   2.148152
     9  O    2.371595   3.645275   1.380248   4.133242   3.684240
    10  H    3.140251   4.298422   1.922573   4.555708   3.846867
    11  H    1.084262   2.155454   2.154050   3.394205   3.897584
    12  H    2.157001   1.083447   3.394323   2.153147   3.416516
    13  N    3.725805   2.455131   4.202474   1.448888   2.449812
    14  O    4.705823   3.553326   4.916471   2.303916   2.727428
    15  O    4.077859   2.688191   4.895065   2.310242   3.577070
                    6          7          8          9         10
     6  C    0.000000
     7  H    2.156884   0.000000
     8  H    1.085605   2.486931   0.000000
     9  O    2.425606   4.576645   2.682393   0.000000
    10  H    2.483407   4.586694   2.364538   0.969367   0.000000
    11  H    3.417613   4.981540   4.311244   2.589287   3.475169
    12  H    3.887156   4.303965   4.972717   4.525685   5.249674
    13  N    3.718623   2.664995   4.595061   5.582060   5.984726
    14  O    4.115465   2.431044   4.784490   6.278432   6.539914
    15  O    4.707738   3.926463   5.675418   6.236360   6.767036
                   11         12         13         14         15
    11  H    0.000000
    12  H    2.499663   0.000000
    13  N    4.607519   2.664808   0.000000
    14  O    5.667673   3.872344   1.213097   0.000000
    15  O    4.738561   2.355293   1.275089   2.202374   0.000000
 Stoichiometry    C6H5NO3
 Framework group  C1[X(C6H5NO3)]
 Deg. of freedom    39
 Full point group                 C1      NOp   1
 Largest Abelian subgroup         C1      NOp   1
 Largest concise Abelian subgroup C1      NOp   1
                         Standard orientation:                         
 ---------------------------------------------------------------------
 Center     Atomic      Atomic             Coordinates (Angstroms)
 Number     Number       Type             X           Y           Z
 ---------------------------------------------------------------------
      1          6           0       -1.362974    1.232147   -0.002604
      2          6           0        0.026940    1.215124   -0.001862
      3          6           0       -2.060166    0.022876   -0.006206
      4          6           0        0.693185   -0.012955   -0.001928
      5          6           0        0.003627   -1.227064   -0.007954
      6          6           0       -1.386100   -1.206677   -0.015046
      7          1           0        0.545833   -2.165728   -0.013036
      8          1           0       -1.940895   -2.139671   -0.031246
      9          8           0       -3.438788    0.085536   -0.029831
     10          1           0       -3.791268   -0.723592    0.371095
     11          1           0       -1.904817    2.171308    0.000073
     12          1           0        0.594619    2.137927    0.003973
     13          7           0        2.141943   -0.031634    0.003462
     14          8           0        2.727779   -1.093896    0.003161
     15          8           0        2.712991    1.108421    0.008984
 ---------------------------------------------------------------------
 Rotational constants (GHZ):      3.8944113      0.8222108      0.6791659
 Standard basis: 6-31+G(d) (6D, 7F)
 There are   200 symmetry adapted cartesian basis functions of A   symmetry.
 There are   200 symmetry adapted basis functions of A   symmetry.
   200 basis functions,   340 primitive gaussians,   200 cartesian basis functions
    36 alpha electrons       36 beta electrons
       nuclear repulsion energy       494.3528058851 Hartrees.
 NAtoms=   15 NActive=   15 NUniq=   15 SFac= 1.00D+00 NAtFMM=   60 NAOKFM=F Big=F
 Integral buffers will be    131072 words long.
 Raffenetti 2 integral format.
 Two-electron integral symmetry is turned on.
 Nuclear repulsion after empirical dispersion term =      494.3425465148 Hartrees.
 One-electron integrals computed using PRISM.
 NBasis=   200 RedAO= T EigKep=  3.84D-06  NBF=   200
 NBsUse=   200 1.00D-06 EigRej= -1.00D+00 NBFU=   200
 Initial guess from the checkpoint file:  "C:\Users\vivek\Downloads\molecule_35.chk"
 B after Tr=     0.000000    0.000000    0.000000
         Rot=    0.999984   -0.000054    0.000047   -0.005589 Ang=  -0.64 deg.
 ExpMin= 4.38D-02 ExpMax= 5.48D+03 ExpMxC= 8.25D+02 IAcc=2 IRadAn=         4 AccDes= 0.00D+00
 Harris functional with IExCor=  402 and IRadAn=       4 diagonalized for initial guess.
 HarFok:  IExCor=  402 AccDes= 0.00D+00 IRadAn=         4 IDoV= 1 UseB2=F ITyADJ=14
 ICtDFT=  3500011 ScaDFX=  1.000000  1.000000  1.000000  1.000000
 FoFCou: FMM=F IPFlag=           0 FMFlag=      100000 FMFlg1=           0
         NFxFlg=           0 DoJE=T BraDBF=F KetDBF=T FulRan=T
         wScrn=  0.000000 ICntrl=     500 IOpCl=  0 I1Cent=   200000004 NGrid=           0
         NMat0=    1 NMatS0=      1 NMatT0=    0 NMatD0=    1 NMtDS0=    0 NMtDT0=    0
 Petite list used in FoFCou.
 Keep R1 ints in memory in canonical form, NReq=206216490.
 Requested convergence on RMS density matrix=1.00D-08 within 128 cycles.
 Requested convergence on MAX density matrix=1.00D-06.
 Requested convergence on             energy=1.00D-06.
 No special actions if energy rises.
 SCF Done:  E(RB3LYP) =  -511.999583196     A.U. after   13 cycles
            NFock= 13  Conv=0.81D-08     -V/T= 2.0093
 Calling FoFJK, ICntrl=      2127 FMM=F ISym2X=0 I1Cent= 0 IOpClX= 0 NMat=1 NMatS=1 NMatT=0.
 ***** Axes restored to original set *****
 -------------------------------------------------------------------
 Center     Atomic                   Forces (Hartrees/Bohr)
 Number     Number              X              Y              Z
 -------------------------------------------------------------------
      1        6          -0.003664320    0.003079899   -0.001508859
      2        6           0.000254586   -0.003236579   -0.000660942
      3        6           0.009964969   -0.010772144   -0.001698722
      4        6           0.003596350   -0.000763273   -0.000270346
      5        6           0.001408863   -0.001613802    0.000136492
      6        6          -0.002229300    0.001405024    0.001307870
      7        1          -0.001020008    0.000194210   -0.000005077
      8        1           0.001044537   -0.000752294   -0.000309029
      9        8          -0.007031641    0.007984963    0.005030137
     10        1           0.003178556   -0.001500176   -0.003049554
     11        1           0.001232547   -0.000947424    0.000169366
     12        1           0.000673704    0.000608382    0.000156147
     13        7          -0.051588912   -0.021429037   -0.002064952
     14        8           0.008776444    0.017730639    0.001801632
     15        8           0.035403626    0.010011612    0.000965837
 -------------------------------------------------------------------
 Cartesian Forces:  Max     0.051588912 RMS     0.010874681

 GradGradGradGradGradGradGradGradGradGradGradGradGradGradGradGradGradGrad
 Berny optimization.
 Using GEDIIS/GDIIS optimizer.
 FormGI is forming the generalized inverse of G from B-inverse, IUseBI=4.
 Internal  Forces:  Max     0.036323204 RMS     0.005635674
 Search for a local minimum.
 Step number   2 out of a maximum of   77
 All quantities printed in internal units (Hartrees-Bohrs-Radians)
 Mixed Optimization -- RFO/linear search
 Update second derivatives using D2CorX and points    1    2
 DE= -1.72D-02 DEPred=-1.45D-02 R= 1.19D+00
 TightC=F SS=  1.41D+00  RLast= 2.63D-01 DXNew= 5.0454D-01 7.8820D-01
 Trust test= 1.19D+00 RLast= 2.63D-01 DXMaxT set to 5.05D-01
 ITU=  1  0
 Use linear search instead of GDIIS.
     Eigenvalues ---    0.00766   0.00766   0.01276   0.01683   0.01940
     Eigenvalues ---    0.02070   0.02070   0.02070   0.02070   0.02070
     Eigenvalues ---    0.02070   0.02071   0.15871   0.16000   0.16000
     Eigenvalues ---    0.16000   0.16075   0.21995   0.22979   0.24002
     Eigenvalues ---    0.24251   0.24997   0.25000   0.28583   0.32805
     Eigenvalues ---    0.37193   0.37230   0.37230   0.37592   0.39989
     Eigenvalues ---    0.41403   0.41509   0.43712   0.45389   0.45389
     Eigenvalues ---    0.45439   0.48084   0.55599   1.04105
 RFO step:  Lambda=-5.29156638D-03 EMin= 7.65814893D-03
 Quartic linear search produced a step of  0.20911.
 Iteration  1 RMS(Cart)=  0.03322578 RMS(Int)=  0.00176034
 Iteration  2 RMS(Cart)=  0.00174475 RMS(Int)=  0.00002263
 Iteration  3 RMS(Cart)=  0.00000581 RMS(Int)=  0.00002235
 Iteration  4 RMS(Cart)=  0.00000000 RMS(Int)=  0.00002235
 Variable       Old X    -DE/DX   Delta X   Delta X   Delta X     New X
                                 (Linear)    (Quad)   (Total)
    R1        2.62676   0.00103  -0.00450   0.00405  -0.00045   2.62630
    R2        2.63779   0.00328  -0.00219   0.00924   0.00705   2.64484
    R3        2.04896   0.00027   0.00564  -0.00100   0.00464   2.05360
    R4        2.64025   0.00195  -0.00167   0.00565   0.00397   2.64423
    R5        2.04742  -0.00069   0.00531  -0.00395   0.00136   2.04878
    R6        2.64983   0.00020   0.00033   0.00036   0.00069   2.65052
    R7        2.60829  -0.00770  -0.01966  -0.01642  -0.03608   2.57221
    R8        2.63858   0.00174  -0.00202   0.00509   0.00307   2.64165
    R9        2.73800   0.00934  -0.00834   0.03387   0.02552   2.76353
   R10        2.62652   0.00157  -0.00455   0.00528   0.00074   2.62725
   R11        2.04850  -0.00029   0.00554  -0.00274   0.00280   2.05130
   R12        2.05150   0.00101   0.00617   0.00120   0.00737   2.05886
   R13        1.83184   0.00137   0.00370   0.00209   0.00579   1.83763
   R14        2.29242   0.01986   0.00644   0.02151   0.02795   2.32037
   R15        2.40957  -0.03632  -0.03355  -0.07378  -0.10733   2.30224
    A1        2.08154   0.00213  -0.00269   0.01235   0.00965   2.09119
    A2        2.10633   0.00049   0.00250   0.00433   0.00683   2.11316
    A3        2.09531  -0.00262   0.00019  -0.01668  -0.01649   2.07883
    A4        2.08012   0.00059  -0.00299   0.00433   0.00134   2.08146
    A5        2.11004   0.00032   0.00327   0.00105   0.00433   2.11437
    A6        2.09301  -0.00091  -0.00029  -0.00538  -0.00567   2.08734
    A7        2.11713  -0.00292   0.00475  -0.01675  -0.01201   2.10512
    A8        2.04834  -0.00044  -0.00963   0.00291  -0.00674   2.04160
    A9        2.11746   0.00336   0.00482   0.01397   0.01877   2.13624
   A10        2.12799  -0.00298   0.00702  -0.01801  -0.01098   2.11701
   A11        2.08076   0.00407  -0.00285   0.02086   0.01801   2.09877
   A12        2.07444  -0.00109  -0.00417  -0.00285  -0.00703   2.06741
   A13        2.07266   0.00233  -0.00454   0.01382   0.00929   2.08195
   A14        2.10127  -0.00219   0.00144  -0.01376  -0.01233   2.08894
   A15        2.10924  -0.00014   0.00310  -0.00007   0.00303   2.11227
   A16        2.08689   0.00085  -0.00157   0.00428   0.00271   2.08960
   A17        2.10368  -0.00127   0.00194  -0.00913  -0.00719   2.09649
   A18        2.09261   0.00042  -0.00037   0.00485   0.00448   2.09709
   A19        1.89465   0.00535  -0.00334   0.04144   0.03810   1.93274
   A20        2.08768  -0.00386  -0.00140  -0.01754  -0.01895   2.06873
   A21        2.02228   0.00908  -0.01508   0.05003   0.03495   2.05722
   A22        2.17323  -0.00523   0.01649  -0.03249  -0.01601   2.15722
    D1       -0.00231  -0.00004  -0.00048   0.00054   0.00005  -0.00226
    D2       -3.13830   0.00007   0.00069   0.00015   0.00086  -3.13743
    D3        3.13876  -0.00012  -0.00059  -0.00235  -0.00299   3.13577
    D4        0.00277  -0.00001   0.00058  -0.00274  -0.00217   0.00060
    D5       -0.00497  -0.00006  -0.00104   0.00153   0.00050  -0.00447
    D6       -3.12282   0.00024   0.00393  -0.00483  -0.00097  -3.12379
    D7        3.13714   0.00001  -0.00093   0.00440   0.00347   3.14062
    D8        0.01930   0.00032   0.00403  -0.00197   0.00201   0.02130
    D9        0.00442   0.00004   0.00092  -0.00225  -0.00132   0.00310
   D10       -3.13794   0.00006   0.00076  -0.00049   0.00029  -3.13765
   D11        3.14046  -0.00006  -0.00024  -0.00185  -0.00208   3.13838
   D12       -0.00190  -0.00005  -0.00040  -0.00009  -0.00048  -0.00237
   D13        0.01026   0.00016   0.00214  -0.00199   0.00018   0.01043
   D14       -3.12717   0.00022   0.00302  -0.00310  -0.00003  -3.12721
   D15        3.12716  -0.00022  -0.00302   0.00446   0.00135   3.12851
   D16       -0.01027  -0.00015  -0.00215   0.00335   0.00114  -0.00913
   D17       -2.68962  -0.00311  -0.01498  -0.11043  -0.12536  -2.81499
   D18        0.47572  -0.00271  -0.01001  -0.11635  -0.12641   0.34931
   D19        0.00082   0.00005   0.00017   0.00183   0.00201   0.00283
   D20        3.13606  -0.00008  -0.00116   0.00190   0.00074   3.13680
   D21       -3.14001   0.00003   0.00033   0.00006   0.00042  -3.13959
   D22       -0.00477  -0.00009  -0.00100   0.00013  -0.00085  -0.00562
   D23       -3.14133   0.00000   0.00006   0.00025   0.00029  -3.14103
   D24        0.00087  -0.00005   0.00018  -0.00546  -0.00529  -0.00441
   D25       -0.00048   0.00002  -0.00010   0.00195   0.00185   0.00137
   D26       -3.14146  -0.00003   0.00003  -0.00376  -0.00373   3.13800
   D27       -0.00802  -0.00017  -0.00168   0.00020  -0.00148  -0.00950
   D28        3.12944  -0.00023  -0.00254   0.00127  -0.00130   3.12814
   D29        3.13996  -0.00003  -0.00034   0.00018  -0.00014   3.13982
   D30       -0.00577  -0.00010  -0.00121   0.00125   0.00004  -0.00573
         Item               Value     Threshold  Converged?
 Maximum Force            0.036323     0.000450     NO 
 RMS     Force            0.005636     0.000300     NO 
 Maximum Displacement     0.152765     0.001800     NO 
 RMS     Displacement     0.033135     0.001200     NO 
 Predicted change in Energy=-3.798892D-03
 GradGradGradGradGradGradGradGradGradGradGradGradGradGradGradGradGradGrad

                          Input orientation:                          
 ---------------------------------------------------------------------
 Center     Atomic      Atomic             Coordinates (Angstroms)
 Number     Number       Type             X           Y           Z
 ---------------------------------------------------------------------
      1          6           0       -2.044920   -0.320413   -0.079916
      2          6           0       -2.802316    0.840042    0.025842
      3          6           0       -0.647553   -0.243362   -0.063038
      4          6           0       -2.151541    2.072443    0.150831
      5          6           0       -0.756393    2.158491    0.167589
      6          6           0       -0.001905    0.996240    0.054414
      7          1           0       -0.278681    3.128715    0.261239
      8          1           0        1.086360    1.048147    0.053208
      9          8           0        0.036899   -1.412838   -0.191853
     10          1           0        0.952876   -1.311717    0.118609
     11          1           0       -2.519622   -1.293542   -0.172825
     12          1           0       -3.885894    0.804981    0.018993
     13          7           0       -2.927203    3.306576    0.268567
     14          8           0       -2.323739    4.370520    0.376082
     15          8           0       -4.142232    3.219651    0.248894
 ---------------------------------------------------------------------
                    Distance matrix (angstroms):
                    1          2          3          4          5
     1  C    0.000000
     2  C    1.389780   0.000000
     3  C    1.399591   2.413434   0.000000
     4  C    2.406319   1.399265   2.769598   0.000000
     5  C    2.804733   2.438073   2.415353   1.397900   0.000000
     6  C    2.434242   2.804910   1.402594   2.405919   1.390283
     7  H    3.890047   3.414991   3.407656   2.153022   1.085501
     8  H    3.419882   3.894337   2.165170   3.397458   2.154457
     9  O    2.353698   3.630978   1.361155   4.129635   3.675990
    10  H    3.163681   4.328988   1.932809   4.592492   3.868636
    11  H    1.086717   2.161380   2.149319   3.401483   3.891194
    12  H    2.159972   1.084167   3.404791   2.152166   3.412894
    13  N    3.748988   2.481593   4.231882   1.462395   2.457786
    14  O    4.721284   3.579941   4.928522   2.315501   2.719028
    15  O    4.127818   2.740012   4.929760   2.299685   3.549166
                    6          7          8          9         10
     6  C    0.000000
     7  H    2.160285   0.000000
     8  H    1.089502   2.497074   0.000000
     9  O    2.421944   4.574996   2.686610   0.000000
    10  H    2.498478   4.610261   2.364541   0.972433   0.000000
    11  H    3.410812   4.976603   4.305543   2.559374   3.484753
    12  H    3.888857   4.297721   4.978314   4.511262   5.282426
    13  N    3.733750   2.654497   4.610377   5.592027   6.033750
    14  O    4.108545   2.395314   4.771916   6.272351   6.564321
    15  O    4.703583   3.864640   5.664971   6.254546   6.819853
                   11         12         13         14         15
    11  H    0.000000
    12  H    2.511432   0.000000
    13  N    4.639185   2.690605   0.000000
    14  O    5.693967   3.909080   1.227886   0.000000
    15  O    4.814522   2.439097   1.218293   2.155828   0.000000
 Stoichiometry    C6H5NO3
 Framework group  C1[X(C6H5NO3)]
 Deg. of freedom    39
 Full point group                 C1      NOp   1
 Largest Abelian subgroup         C1      NOp   1
 Largest concise Abelian subgroup C1      NOp   1
                         Standard orientation:                         
 ---------------------------------------------------------------------
 Center     Atomic      Atomic             Coordinates (Angstroms)
 Number     Number       Type             X           Y           Z
 ---------------------------------------------------------------------
      1          6           0       -1.384857    1.226916   -0.000127
      2          6           0        0.004912    1.232352   -0.000422
      3          6           0       -2.076012    0.009890   -0.002982
      4          6           0        0.693581    0.014289   -0.000833
      5          6           0        0.011150   -1.205710   -0.004657
      6          6           0       -1.379115   -1.207292   -0.011544
      7          1           0        0.571703   -2.135264   -0.009405
      8          1           0       -1.925264   -2.149890   -0.027268
      9          8           0       -3.435585    0.071999   -0.024125
     10          1           0       -3.823354   -0.770884    0.267096
     11          1           0       -1.949416    2.155460    0.005613
     12          1           0        0.562006    2.162420    0.005615
     13          7           0        2.155837   -0.005310    0.003831
     14          8           0        2.727783   -1.091855    0.002726
     15          8           0        2.739741    1.063939    0.003265
 ---------------------------------------------------------------------
 Rotational constants (GHZ):      3.9546535      0.8164170      0.6768628
 Standard basis: 6-31+G(d) (6D, 7F)
 There are   200 symmetry adapted cartesian basis functions of A   symmetry.
 There are   200 symmetry adapted basis functions of A   symmetry.
   200 basis functions,   340 primitive gaussians,   200 cartesian basis functions
    36 alpha electrons       36 beta electrons
       nuclear repulsion energy       494.9279361811 Hartrees.
 NAtoms=   15 NActive=   15 NUniq=   15 SFac= 1.00D+00 NAtFMM=   60 NAOKFM=F Big=F
 Integral buffers will be    131072 words long.
 Raffenetti 2 integral format.
 Two-electron integral symmetry is turned on.
 Nuclear repulsion after empirical dispersion term =      494.9176621566 Hartrees.
 One-electron integrals computed using PRISM.
 NBasis=   200 RedAO= T EigKep=  3.88D-06  NBF=   200
 NBsUse=   200 1.00D-06 EigRej= -1.00D+00 NBFU=   200
 Initial guess from the checkpoint file:  "C:\Users\vivek\Downloads\molecule_35.chk"
 B after Tr=     0.000000    0.000000    0.000000
         Rot=    0.999999   -0.000193    0.000032   -0.001091 Ang=  -0.13 deg.
 ExpMin= 4.38D-02 ExpMax= 5.48D+03 ExpMxC= 8.25D+02 IAcc=2 IRadAn=         4 AccDes= 0.00D+00
 Harris functional with IExCor=  402 and IRadAn=       4 diagonalized for initial guess.
 HarFok:  IExCor=  402 AccDes= 0.00D+00 IRadAn=         4 IDoV= 1 UseB2=F ITyADJ=14
 ICtDFT=  3500011 ScaDFX=  1.000000  1.000000  1.000000  1.000000
 FoFCou: FMM=F IPFlag=           0 FMFlag=      100000 FMFlg1=           0
         NFxFlg=           0 DoJE=T BraDBF=F KetDBF=T FulRan=T
         wScrn=  0.000000 ICntrl=     500 IOpCl=  0 I1Cent=   200000004 NGrid=           0
         NMat0=    1 NMatS0=      1 NMatT0=    0 NMatD0=    1 NMtDS0=    0 NMtDT0=    0
 Petite list used in FoFCou.
 Keep R1 ints in memory in canonical form, NReq=206216490.
 Requested convergence on RMS density matrix=1.00D-08 within 128 cycles.
 Requested convergence on MAX density matrix=1.00D-06.
 Requested convergence on             energy=1.00D-06.
 No special actions if energy rises.
 SCF Done:  E(RB3LYP) =  -512.002353737     A.U. after   13 cycles
            NFock= 13  Conv=0.56D-08     -V/T= 2.0091
 Calling FoFJK, ICntrl=      2127 FMM=F ISym2X=0 I1Cent= 0 IOpClX= 0 NMat=1 NMatS=1 NMatT=0.
 ***** Axes restored to original set *****
 -------------------------------------------------------------------
 Center     Atomic                   Forces (Hartrees/Bohr)
 Number     Number              X              Y              Z
 -------------------------------------------------------------------
      1        6          -0.003211491    0.000145187   -0.001093290
      2        6          -0.000951660    0.001614270    0.000046817
      3        6           0.001749294    0.000394234   -0.000290287
      4        6           0.006158847   -0.001077184    0.000103288
      5        6           0.000471242    0.000805674    0.000074333
      6        6           0.000787943    0.000479506    0.001044748
      7        1          -0.000703178   -0.001195190   -0.000105209
      8        1          -0.001360835    0.000042591   -0.000005633
      9        8           0.001917678   -0.002859399    0.003490583
     10        1          -0.001043837    0.000545172   -0.003206467
     11        1           0.000638917    0.001009685    0.000157810
     12        1           0.000271115   -0.000088316   -0.000001010
     13        7           0.009192732   -0.003340220   -0.000975288
     14        8           0.008880413    0.007811699    0.001113376
     15        8          -0.022797180   -0.004287711   -0.000353772
 -------------------------------------------------------------------
 Cartesian Forces:  Max     0.022797180 RMS     0.004415257

 GradGradGradGradGradGradGradGradGradGradGradGradGradGradGradGradGradGrad
 Berny optimization.
 Using GEDIIS/GDIIS optimizer.
 FormGI is forming the generalized inverse of G from B-inverse, IUseBI=4.
 Internal  Forces:  Max     0.023047623 RMS     0.003402845
 Search for a local minimum.
 Step number   3 out of a maximum of   77
 All quantities printed in internal units (Hartrees-Bohrs-Radians)
 Mixed Optimization -- RFO/linear search
 Update second derivatives using D2CorX and points    1    2    3
 DE= -2.77D-03 DEPred=-3.80D-03 R= 7.29D-01
 TightC=F SS=  1.41D+00  RLast= 2.27D-01 DXNew= 8.4853D-01 6.7985D-01
 Trust test= 7.29D-01 RLast= 2.27D-01 DXMaxT set to 6.80D-01
 ITU=  1  1  0
 Use linear search instead of GDIIS.
     Eigenvalues ---    0.00766   0.00766   0.01223   0.01678   0.01939
     Eigenvalues ---    0.02070   0.02070   0.02070   0.02070   0.02070
     Eigenvalues ---    0.02070   0.02072   0.15863   0.16000   0.16000
     Eigenvalues ---    0.16001   0.16057   0.22003   0.22845   0.23469
     Eigenvalues ---    0.24312   0.24997   0.25324   0.28932   0.35789
     Eigenvalues ---    0.37222   0.37230   0.37245   0.38064   0.41286
     Eigenvalues ---    0.41434   0.42035   0.45257   0.45389   0.45391
     Eigenvalues ---    0.47400   0.55522   0.59940   1.03299
 RFO step:  Lambda=-1.83141707D-03 EMin= 7.65752127D-03
 Quartic linear search produced a step of -0.17722.
 Iteration  1 RMS(Cart)=  0.03501370 RMS(Int)=  0.00336669
 Iteration  2 RMS(Cart)=  0.00323978 RMS(Int)=  0.00006713
 Iteration  3 RMS(Cart)=  0.00002018 RMS(Int)=  0.00006590
 Iteration  4 RMS(Cart)=  0.00000000 RMS(Int)=  0.00006590
 Variable       Old X    -DE/DX   Delta X   Delta X   Delta X     New X
                                 (Linear)    (Quad)   (Total)
    R1        2.62630  -0.00052   0.00008  -0.00156  -0.00148   2.62482
    R2        2.64484   0.00218  -0.00125   0.00518   0.00393   2.64877
    R3        2.05360  -0.00120  -0.00082  -0.00075  -0.00157   2.05203
    R4        2.64423  -0.00121  -0.00070  -0.00157  -0.00227   2.64195
    R5        2.04878  -0.00027  -0.00024   0.00042   0.00018   2.04896
    R6        2.65052   0.00091  -0.00012   0.00193   0.00181   2.65233
    R7        2.57221   0.00240   0.00639  -0.00586   0.00054   2.57275
    R8        2.64165  -0.00045  -0.00054  -0.00048  -0.00103   2.64062
    R9        2.76353   0.00264  -0.00452   0.01038   0.00586   2.76938
   R10        2.62725   0.00044  -0.00013   0.00042   0.00029   2.62754
   R11        2.05130  -0.00139  -0.00050  -0.00157  -0.00206   2.04924
   R12        2.05886  -0.00136  -0.00131  -0.00040  -0.00171   2.05715
   R13        1.83763  -0.00195  -0.00103  -0.00106  -0.00209   1.83554
   R14        2.32037   0.01123  -0.00495   0.01482   0.00987   2.33024
   R15        2.30224   0.02305   0.01902   0.00659   0.02561   2.32785
    A1        2.09119   0.00020  -0.00171   0.00270   0.00100   2.09219
    A2        2.11316   0.00003  -0.00121   0.00231   0.00110   2.11426
    A3        2.07883  -0.00023   0.00292  -0.00501  -0.00209   2.07673
    A4        2.08146   0.00021  -0.00024   0.00007  -0.00017   2.08129
    A5        2.11437  -0.00020  -0.00077   0.00104   0.00027   2.11464
    A6        2.08734  -0.00001   0.00101  -0.00112  -0.00011   2.08723
    A7        2.10512  -0.00122   0.00213  -0.00528  -0.00316   2.10196
    A8        2.04160   0.00039   0.00119  -0.00217  -0.00100   2.04061
    A9        2.13624   0.00082  -0.00333   0.00724   0.00389   2.14013
   A10        2.11701   0.00070   0.00195   0.00011   0.00206   2.11907
   A11        2.09877  -0.00432  -0.00319  -0.00939  -0.01258   2.08619
   A12        2.06741   0.00362   0.00125   0.00928   0.01052   2.07793
   A13        2.08195  -0.00029  -0.00165   0.00015  -0.00150   2.08045
   A14        2.08894   0.00004   0.00218  -0.00260  -0.00042   2.08853
   A15        2.11227   0.00025  -0.00054   0.00243   0.00189   2.11416
   A16        2.08960   0.00040  -0.00048   0.00221   0.00173   2.09133
   A17        2.09649  -0.00009   0.00127  -0.00174  -0.00047   2.09603
   A18        2.09709  -0.00031  -0.00079  -0.00047  -0.00127   2.09582
   A19        1.93274   0.00000  -0.00675   0.00844   0.00168   1.93443
   A20        2.06873  -0.00395   0.00336  -0.01674  -0.01369   2.05504
   A21        2.05722  -0.00106  -0.00619   0.00246  -0.00404   2.05318
   A22        2.15722   0.00501   0.00284   0.01448   0.01701   2.17423
    D1       -0.00226  -0.00002  -0.00001  -0.00118  -0.00119  -0.00345
    D2       -3.13743  -0.00001  -0.00015   0.00098   0.00082  -3.13661
    D3        3.13577  -0.00001   0.00053  -0.00199  -0.00146   3.13431
    D4        0.00060   0.00001   0.00039   0.00017   0.00055   0.00115
    D5       -0.00447   0.00001  -0.00009  -0.00103  -0.00111  -0.00559
    D6       -3.12379   0.00014   0.00017   0.00899   0.00914  -3.11464
    D7        3.14062  -0.00001  -0.00062  -0.00025  -0.00086   3.13976
    D8        0.02130   0.00012  -0.00036   0.00977   0.00940   0.03071
    D9        0.00310   0.00002   0.00023   0.00096   0.00119   0.00429
   D10       -3.13765   0.00002  -0.00005   0.00157   0.00152  -3.13613
   D11        3.13838   0.00000   0.00037  -0.00116  -0.00079   3.13759
   D12       -0.00237   0.00000   0.00008  -0.00054  -0.00046  -0.00284
   D13        0.01043   0.00002  -0.00003   0.00352   0.00349   0.01392
   D14       -3.12721   0.00004   0.00001   0.00497   0.00498  -3.12222
   D15        3.12851  -0.00012  -0.00024  -0.00719  -0.00744   3.12107
   D16       -0.00913  -0.00010  -0.00020  -0.00574  -0.00595  -0.01508
   D17       -2.81499  -0.00249   0.02222  -0.21643  -0.19422  -3.00921
   D18        0.34931  -0.00233   0.02240  -0.20604  -0.18362   0.16569
   D19        0.00283   0.00002  -0.00036   0.00151   0.00116   0.00398
   D20        3.13680  -0.00001  -0.00013  -0.00130  -0.00143   3.13537
   D21       -3.13959   0.00001  -0.00007   0.00090   0.00082  -3.13877
   D22       -0.00562  -0.00002   0.00015  -0.00191  -0.00177  -0.00739
   D23       -3.14103  -0.00030  -0.00005  -0.02390  -0.02395   3.11821
   D24       -0.00441   0.00027   0.00094   0.01949   0.02043   0.01601
   D25        0.00137  -0.00029  -0.00033  -0.02330  -0.02362  -0.02225
   D26        3.13800   0.00028   0.00066   0.02010   0.02075  -3.12444
   D27       -0.00950  -0.00004   0.00026  -0.00374  -0.00348  -0.01298
   D28        3.12814  -0.00006   0.00023  -0.00520  -0.00497   3.12317
   D29        3.13982  -0.00001   0.00002  -0.00086  -0.00084   3.13898
   D30       -0.00573  -0.00003  -0.00001  -0.00232  -0.00233  -0.00806
         Item               Value     Threshold  Converged?
 Maximum Force            0.023048     0.000450     NO 
 RMS     Force            0.003403     0.000300     NO 
 Maximum Displacement     0.227509     0.001800     NO 
 RMS     Displacement     0.035028     0.001200     NO 
 Predicted change in Energy=-9.498848D-04
 GradGradGradGradGradGradGradGradGradGradGradGradGradGradGradGradGradGrad

                          Input orientation:                          
 ---------------------------------------------------------------------
 Center     Atomic      Atomic             Coordinates (Angstroms)
 Number     Number       Type             X           Y           Z
 ---------------------------------------------------------------------
      1          6           0       -2.049710   -0.317683   -0.062686
      2          6           0       -2.801378    0.847141    0.023897
      3          6           0       -0.650054   -0.249305   -0.031576
      4          6           0       -2.145595    2.075848    0.145564
      5          6           0       -0.750952    2.157115    0.176770
      6          6           0       -0.001108    0.990214    0.079891
      7          1           0       -0.271668    3.125745    0.266149
      8          1           0        1.086408    1.038426    0.085365
      9          8           0        0.027274   -1.424021   -0.153187
     10          1           0        0.977618   -1.292122   -0.001784
     11          1           0       -2.527303   -1.288878   -0.151203
     12          1           0       -3.885109    0.818092    0.006504
     13          7           0       -2.932744    3.308047    0.244312
     14          8           0       -2.321366    4.370807    0.375887
     15          8           0       -4.160177    3.204506    0.232734
 ---------------------------------------------------------------------
                    Distance matrix (angstroms):
                    1          2          3          4          5
     1  C    0.000000
     2  C    1.388998   0.000000
     3  C    1.401671   2.415257   0.000000
     4  C    2.404485   1.398061   2.770263   0.000000
     5  C    2.805127   2.437960   2.417529   1.397357   0.000000
     6  C    2.434686   2.804482   1.403554   2.404525   1.390436
     7  H    3.889314   3.413232   3.409219   2.151378   1.084410
     8  H    3.419969   3.892974   2.165000   3.394954   2.153071
     9  O    2.355002   3.631914   1.361440   4.130338   3.679544
    10  H    3.180873   4.342570   1.933305   4.595583   3.862263
    11  H    1.085887   2.160637   2.149207   3.399287   3.890740
    12  H    2.159505   1.084261   3.406813   2.151092   3.412464
    13  N    3.744317   2.474247   4.235746   1.465493   2.467675
    14  O    4.716787   3.573588   4.929984   2.313176   2.721448
    15  O    4.116693   2.728941   4.931494   2.310846   3.566928
                    6          7          8          9         10
     6  C    0.000000
     7  H    2.160645   0.000000
     8  H    1.088598   2.496788   0.000000
     9  O    2.425626   4.578818   2.691155   0.000000
    10  H    2.484679   4.598918   2.334713   0.971326   0.000000
    11  H    3.410180   4.975035   4.304790   2.558150   3.508106
    12  H    3.888506   4.295304   4.977022   4.512130   5.300867
    13  N    3.740839   2.667403   4.618444   5.595728   6.042602
    14  O    4.110915   2.400726   4.775153   6.275034   6.564655
    15  O    4.714267   3.889450   5.678052   6.253554   6.831661
                   11         12         13         14         15
    11  H    0.000000
    12  H    2.511540   0.000000
    13  N    4.631688   2.676457   0.000000
    14  O    5.687906   3.899169   1.233108   0.000000
    15  O    4.796268   2.412843   1.231847   2.182195   0.000000
 Stoichiometry    C6H5NO3
 Framework group  C1[X(C6H5NO3)]
 Deg. of freedom    39
 Full point group                 C1      NOp   1
 Largest Abelian subgroup         C1      NOp   1
 Largest concise Abelian subgroup C1      NOp   1
                         Standard orientation:                         
 ---------------------------------------------------------------------
 Center     Atomic      Atomic             Coordinates (Angstroms)
 Number     Number       Type             X           Y           Z
 ---------------------------------------------------------------------
      1          6           0       -1.376457    1.227591    0.005342
      2          6           0        0.012499    1.224774   -0.005007
      3          6           0       -2.077066    0.013583    0.009078
      4          6           0        0.693130    0.003582   -0.007363
      5          6           0        0.006037   -1.213177   -0.004650
      6          6           0       -1.384385   -1.207063   -0.004333
      7          1           0        0.562611   -2.143827   -0.012451
      8          1           0       -1.934166   -2.146506   -0.019590
      9          8           0       -3.436374    0.086351   -0.013421
     10          1           0       -3.831478   -0.792232    0.110912
     11          1           0       -1.936037    2.158151    0.014212
     12          1           0        0.575432    2.151448   -0.003445
     13          7           0        2.158582   -0.006560   -0.011304
     14          8           0        2.725142   -1.101553    0.012222
     15          8           0        2.737610    1.080595    0.005086
 ---------------------------------------------------------------------
 Rotational constants (GHZ):      3.9266501      0.8167222      0.6761392
 Standard basis: 6-31+G(d) (6D, 7F)
 There are   200 symmetry adapted cartesian basis functions of A   symmetry.
 There are   200 symmetry adapted basis functions of A   symmetry.
   200 basis functions,   340 primitive gaussians,   200 cartesian basis functions
    36 alpha electrons       36 beta electrons
       nuclear repulsion energy       494.2602220351 Hartrees.
 NAtoms=   15 NActive=   15 NUniq=   15 SFac= 1.00D+00 NAtFMM=   60 NAOKFM=F Big=F
 Integral buffers will be    131072 words long.
 Raffenetti 2 integral format.
 Two-electron integral symmetry is turned on.
 Nuclear repulsion after empirical dispersion term =      494.2499590048 Hartrees.
 One-electron integrals computed using PRISM.
 NBasis=   200 RedAO= T EigKep=  3.87D-06  NBF=   200
 NBsUse=   200 1.00D-06 EigRej= -1.00D+00 NBFU=   200
 Initial guess from the checkpoint file:  "C:\Users\vivek\Downloads\molecule_35.chk"
 B after Tr=     0.000000    0.000000    0.000000
         Rot=    1.000000   -0.000075    0.000003    0.000760 Ang=  -0.09 deg.
 ExpMin= 4.38D-02 ExpMax= 5.48D+03 ExpMxC= 8.25D+02 IAcc=2 IRadAn=         4 AccDes= 0.00D+00
 Harris functional with IExCor=  402 and IRadAn=       4 diagonalized for initial guess.
 HarFok:  IExCor=  402 AccDes= 0.00D+00 IRadAn=         4 IDoV= 1 UseB2=F ITyADJ=14
 ICtDFT=  3500011 ScaDFX=  1.000000  1.000000  1.000000  1.000000
 FoFCou: FMM=F IPFlag=           0 FMFlag=      100000 FMFlg1=           0
         NFxFlg=           0 DoJE=T BraDBF=F KetDBF=T FulRan=T
         wScrn=  0.000000 ICntrl=     500 IOpCl=  0 I1Cent=   200000004 NGrid=           0
         NMat0=    1 NMatS0=      1 NMatT0=    0 NMatD0=    1 NMtDS0=    0 NMtDT0=    0
 Petite list used in FoFCou.
 Keep R1 ints in memory in canonical form, NReq=206216490.
 Requested convergence on RMS density matrix=1.00D-08 within 128 cycles.
 Requested convergence on MAX density matrix=1.00D-06.
 Requested convergence on             energy=1.00D-06.
 No special actions if energy rises.
 SCF Done:  E(RB3LYP) =  -512.003423010     A.U. after   13 cycles
            NFock= 13  Conv=0.95D-08     -V/T= 2.0093
 Calling FoFJK, ICntrl=      2127 FMM=F ISym2X=0 I1Cent= 0 IOpClX= 0 NMat=1 NMatS=1 NMatT=0.
 ***** Axes restored to original set *****
 -------------------------------------------------------------------
 Center     Atomic                   Forces (Hartrees/Bohr)
 Number     Number              X              Y              Z
 -------------------------------------------------------------------
      1        6          -0.001430566   -0.000531300    0.000156490
      2        6          -0.000484129   -0.000352902    0.000401409
      3        6           0.001105466    0.000401869   -0.002598491
      4        6           0.001794343    0.000639868   -0.001227916
      5        6          -0.000276641    0.000737256   -0.000539355
      6        6           0.000359144   -0.000286498    0.000960255
      7        1          -0.000168456   -0.000632914   -0.000025839
      8        1          -0.000612027    0.000179129    0.000295510
      9        8           0.000494065   -0.000832803    0.002419107
     10        1          -0.000723512    0.000325333   -0.001233688
     11        1           0.000253421    0.000519221   -0.000132303
     12        1           0.000525611   -0.000190221   -0.000193087
     13        7           0.002474385   -0.003994634    0.005674490
     14        8          -0.000464701    0.002440313   -0.001915315
     15        8          -0.002846402    0.001578283   -0.002041266
 -------------------------------------------------------------------
 Cartesian Forces:  Max     0.005674490 RMS     0.001546570

 GradGradGradGradGradGradGradGradGradGradGradGradGradGradGradGradGradGrad
 Berny optimization.
 Using GEDIIS/GDIIS optimizer.
 FormGI is forming the generalized inverse of G from B-inverse, IUseBI=4.
 Internal  Forces:  Max     0.002722580 RMS     0.000858539
 Search for a local minimum.
 Step number   4 out of a maximum of   77
 All quantities printed in internal units (Hartrees-Bohrs-Radians)
 Mixed Optimization -- En-DIIS/RFO-DIIS
 Update second derivatives using D2CorX and points    2    3    4
 DE= -1.07D-03 DEPred=-9.50D-04 R= 1.13D+00
 TightC=F SS=  1.41D+00  RLast= 2.75D-01 DXNew= 1.1434D+00 8.2389D-01
 Trust test= 1.13D+00 RLast= 2.75D-01 DXMaxT set to 8.24D-01
 ITU=  1  1  1  0
 Use linear search instead of GDIIS.
     Eigenvalues ---    0.00308   0.00766   0.01678   0.01745   0.02046
     Eigenvalues ---    0.02070   0.02070   0.02070   0.02070   0.02070
     Eigenvalues ---    0.02071   0.02696   0.15953   0.16000   0.16000
     Eigenvalues ---    0.16012   0.16196   0.22031   0.22917   0.24024
     Eigenvalues ---    0.24292   0.25145   0.25875   0.29865   0.35807
     Eigenvalues ---    0.37221   0.37230   0.37244   0.37952   0.41287
     Eigenvalues ---    0.41453   0.41959   0.45244   0.45390   0.45446
     Eigenvalues ---    0.47290   0.55546   0.59678   1.01236
 RFO step:  Lambda=-2.44711140D-03 EMin= 3.08071996D-03
 Quartic linear search produced a step of  0.11819.
 Iteration  1 RMS(Cart)=  0.06484317 RMS(Int)=  0.02635824
 Iteration  2 RMS(Cart)=  0.02709376 RMS(Int)=  0.00491935
 Iteration  3 RMS(Cart)=  0.00193442 RMS(Int)=  0.00449746
 Iteration  4 RMS(Cart)=  0.00000811 RMS(Int)=  0.00449746
 Iteration  5 RMS(Cart)=  0.00000004 RMS(Int)=  0.00449746
 Variable       Old X    -DE/DX   Delta X   Delta X   Delta X     New X
                                 (Linear)    (Quad)   (Total)
    R1        2.62482  -0.00032  -0.00017  -0.00297  -0.00314   2.62168
    R2        2.64877   0.00070   0.00046   0.00888   0.00935   2.65812
    R3        2.05203  -0.00057  -0.00019  -0.00218  -0.00237   2.04966
    R4        2.64195   0.00060  -0.00027  -0.00094  -0.00121   2.64074
    R5        2.04896  -0.00052   0.00002  -0.00052  -0.00050   2.04846
    R6        2.65233   0.00020   0.00021   0.00317   0.00339   2.65572
[...]
 ! A2    A(2,1,11)             121.1773         -DE/DX =    0.0                 !
 ! A3    A(3,1,11)             119.0003         -DE/DX =    0.0                 !
 ! A4    A(1,2,4)              119.3146         -DE/DX =    0.0                 !
 ! A5    A(1,2,12)             121.0522         -DE/DX =    0.0                 !
 ! A6    A(4,2,12)             119.6332         -DE/DX =    0.0                 !
 ! A7    A(1,3,6)              120.3873         -DE/DX =    0.0                 !
 ! A8    A(1,3,9)              116.8691         -DE/DX =    0.0                 !
 ! A9    A(6,3,9)              122.7436         -DE/DX =    0.0                 !
 ! A10   A(2,4,5)              121.4073         -DE/DX =    0.0                 !
 ! A11   A(2,4,13)             119.3688         -DE/DX =    0.0                 !
 ! A12   A(5,4,13)             119.2239         -DE/DX =    0.0                 !
 ! A13   A(4,5,6)              119.1693         -DE/DX =    0.0                 !
 ! A14   A(4,5,7)              119.7565         -DE/DX =    0.0                 !
 ! A15   A(6,5,7)              121.0742         -DE/DX =    0.0                 !
 ! A16   A(3,6,5)              119.8991         -DE/DX =    0.0                 !
 ! A17   A(3,6,8)              120.1965         -DE/DX =    0.0                 !
 ! A18   A(5,6,8)              119.9044         -DE/DX =    0.0                 !
 ! A19   A(3,9,10)             110.6855         -DE/DX =    0.0                 !
 ! A20   A(4,13,14)            117.933          -DE/DX =    0.0                 !
 ! A21   A(4,13,15)            117.905          -DE/DX =    0.0                 !
 ! A22   A(14,13,15)           124.162          -DE/DX =    0.0                 !
 ! D1    D(3,1,2,4)             -0.0004         -DE/DX =    0.0                 !
 ! D2    D(3,1,2,12)          -179.9993         -DE/DX =    0.0                 !
 ! D3    D(11,1,2,4)           180.0001         -DE/DX =    0.0                 !
 ! D4    D(11,1,2,12)            0.0012         -DE/DX =    0.0                 !
 ! D5    D(2,1,3,6)             -0.0024         -DE/DX =    0.0                 !
 ! D6    D(2,1,3,9)            180.0028         -DE/DX =    0.0                 !
 ! D7    D(11,1,3,6)          -180.0029         -DE/DX =    0.0                 !
 ! D8    D(11,1,3,9)             0.0023         -DE/DX =    0.0                 !
 ! D9    D(1,2,4,5)              0.0027         -DE/DX =    0.0                 !
 ! D10   D(1,2,4,13)           180.0015         -DE/DX =    0.0                 !
 ! D11   D(12,2,4,5)           180.0015         -DE/DX =    0.0                 !
 ! D12   D(12,2,4,13)            0.0004         -DE/DX =    0.0                 !
 ! D13   D(1,3,6,5)              0.003          -DE/DX =    0.0                 !
 ! D14   D(1,3,6,8)           -179.9959         -DE/DX =    0.0                 !
 ! D15   D(9,3,6,5)            179.9975         -DE/DX =    0.0                 !
 ! D16   D(9,3,6,8)             -0.0014         -DE/DX =    0.0                 !
 ! D17   D(1,3,9,10)           180.0046         -DE/DX =    0.0                 !
 ! D18   D(6,3,9,10)             0.0099         -DE/DX =    0.0                 !
 ! D19   D(2,4,5,6)             -0.0021         -DE/DX =    0.0                 !
 ! D20   D(2,4,5,7)            179.9993         -DE/DX =    0.0                 !
 ! D21   D(13,4,5,6)          -180.0009         -DE/DX =    0.0                 !
 ! D22   D(13,4,5,7)             0.0005         -DE/DX =    0.0                 !
 ! D23   D(2,4,13,14)         -180.0359         -DE/DX =    0.0                 !
 ! D24   D(2,4,13,15)           -0.0357         -DE/DX =    0.0                 !
 ! D25   D(5,4,13,14)           -0.0371         -DE/DX =    0.0                 !
 ! D26   D(5,4,13,15)         -180.0369         -DE/DX =    0.0                 !
 ! D27   D(4,5,6,3)             -0.0008         -DE/DX =    0.0                 !
 ! D28   D(4,5,6,8)            179.9981         -DE/DX =    0.0                 !
 ! D29   D(7,5,6,3)           -180.0022         -DE/DX =    0.0                 !
 ! D30   D(7,5,6,8)             -0.0033         -DE/DX =    0.0                 !
 --------------------------------------------------------------------------------
 GradGradGradGradGradGradGradGradGradGradGradGradGradGradGradGradGradGrad

 1|1|UNPC-ASUS|Freq|RB3LYP|6-31+G(d)|C6H5N1O3|VIVEK|14-Sep-2023|0||#N G
 eom=AllCheck Guess=TCheck SCRF=Check GenChk RB3LYP/6-31+G(d) Freq||Tit
 le Card Required||0,1|C,-2.0513119011,-0.318677071,-0.0563266664|C,-2.
 8004837315,0.8466439795,0.0325566719|C,-0.6501688184,-0.2514369747,-0.
 0261037033|C,-2.1432980168,2.0761437041,0.1514944696|C,-0.7497397515,2
 .1562535369,0.1826641175|C,-0.0013058123,0.9872051747,0.0934292817|H,-
 0.2685746998,3.122636342,0.2755246222|H,1.0851450676,1.0357363006,0.11
 64809646|O,0.0243853932,-1.4301198254,-0.1175115652|H,0.982687007,-1.2
 798729778,-0.0876462902|H,-2.5295512085,-1.2881873853,-0.1494206442|H,
 -3.8834038275,0.8178687807,0.0112377635|N,-2.9324899197,3.3062667285,0
 .2453820026|O,-2.3255188362,4.3761853935,0.3501781232|O,-4.1622361645,
 3.2072871036,0.2146974524||Version=EM64W-G09RevD.01|State=1-A|HF=-512.
 0037332|RMSD=1.879e-009|RMSF=1.001e-005|ZeroPoint=0.1072575|Thermal=0.
 1152114|Dipole=1.6271449,-1.4966299,-0.1026061|DipoleDeriv=-0.3749787,
 0.4932597,0.0394908,0.1503213,-0.1072374,0.0076995,0.0094814,0.0136936
 ,-0.1640224,0.0315007,0.0093049,0.0023516,-0.2218616,0.4148933,0.03734
 3,-0.0179052,0.0414692,-0.0530098,0.71776,-0.7426788,-0.0549273,-0.748
 9624,1.3766262,0.0950654,-0.05552,0.0952164,0.1480355,-0.3295026,0.337
 8386,0.023333,0.3595991,-0.6271318,-0.0509059,0.0252346,-0.0513159,0.0
 219149,0.2734132,-0.315484,-0.0219872,-0.1257586,0.1585276,0.0161495,-
 0.005266,0.0127906,-0.0499954,0.0899407,-0.071617,-0.0014761,0.3132611
 ,-0.5919877,-0.0300412,0.0321795,-0.0367353,-0.1889567,0.09553,-0.0277
 881,-0.0032304,-0.0383386,0.0621388,-0.0076644,-0.0042003,-0.0074677,0
 .1415292,-0.1012667,0.0343595,-0.001404,0.033017,0.0521731,-0.0082673,
 -0.0015228,-0.0082273,0.152558,-0.6857102,0.7839635,0.0632106,0.775785
 2,-1.3196682,-0.0689614,0.0625522,-0.0689074,-0.3816826,0.2612753,-0.1
 309596,-0.0129867,-0.1466341,0.2887269,-0.0078612,-0.0143791,-0.007561
 8,0.3483733,0.0594027,-0.040745,-0.0051715,-0.0322591,-0.0203687,-0.01
 56444,-0.0044221,-0.015802,0.1506566,0.042807,-0.0142736,-0.0029592,-0
 .0005156,0.1160746,-0.002238,-0.0017511,-0.0025126,0.1413511,1.7487122
 ,-0.3186976,-0.0007733,-0.3368261,2.0224689,0.1510995,-0.0024528,0.151
 3541,0.2473626,-0.5686054,-0.1733228,-0.0209009,-0.1275046,-1.2563293,
 -0.0904429,-0.0168744,-0.0911853,-0.2610454,-1.260278,0.1768404,-0.002
 5695,0.1466769,-0.5689064,-0.0253304,-0.005154,-0.0248085,-0.2530689|P
 olar=109.3274755,-17.6274065,121.6775947,-0.448695,6.2470656,47.328580
 9|PG=C01 [X(C6H5N1O3)]|NImag=0||0.67700342,0.00869945,0.75893058,0.010
 40579,0.05587237,0.12679494,-0.19772249,0.13680954,0.00949302,0.761708
 77,0.07570996,-0.29678778,-0.01978696,-0.01688602,0.67285432,0.0041479
 8,-0.01872451,-0.05702522,0.00939172,0.04666335,0.14008059,-0.30731776
 ,-0.06499835,-0.00988954,-0.02727518,0.07838983,0.00641039,0.70885825,
 0.00186294,-0.12558529,-0.00524044,0.03082229,0.03494846,0.00373163,0.
 00150622,0.68077143,-0.00404338,-0.00640058,-0.06592541,0.00225057,0.0
 0455607,-0.00117196,0.00974320,0.04598849,0.15934407,0.05193299,-0.011
 83527,-0.00019034,-0.17711634,-0.06856074,-0.00809182,-0.04666377,-0.0
 3585462,-0.00390772,0.69188319,0.03479753,-0.05663211,-0.00463211,-0.1
 2086651,-0.25412009,-0.01936357,-0.03472164,-0.01036405,-0.00132100,0.
 08754609,0.60159107,0.00389095,-0.00544148,0.00283211,-0.01266511,-0.0
 1845686,-0.05848130,-0.00381175,-0.00134297,-0.00231657,0.01756045,0.0
 4341066,0.12691550,-0.04721846,0.02503782,0.00135354,-0.02372166,-0.06
 971656,-0.00658098,0.06861226,0.03388724,0.00420660,-0.32037629,-0.006
 04193,-0.00510962,0.68359111,0.01859902,-0.01133473,-0.00074701,-0.028
 55445,0.02126467,0.00099157,-0.01544857,-0.05880272,-0.00513454,-0.058
 38591,-0.11734699,-0.00637777,0.02455290,0.74827258,0.00079244,-0.0006
 3602,0.00086776,-0.00298372,0.00027846,0.00422626,-0.00010624,-0.00427
 521,-0.00353116,-0.00968469,-0.00546999,-0.05669655,0.01169414,0.05423
 550,0.13787590,-0.01550447,-0.02901421,-0.00289624,-0.00137609,0.00530
 095,0.00044051,-0.18416555,-0.11906135,-0.01253814,-0.03047792,0.02401
 492,0.00152049,-0.19451790,0.13546013,0.00939555,0.74162290,-0.0633602
 4,0.02593507,0.00071234,-0.00279694,-0.05661606,-0.00499798,-0.0473690
 9,-0.25143212,-0.01744250,0.07267932,0.02239920,0.00296664,0.07357135,
 -0.28823854,-0.01927183,-0.02061947,0.66919138,-0.00589988,0.00130840,
 0.00522373,-0.00026879,-0.00485690,-0.00044071,-0.00626889,-0.01868246
 ,-0.06305944,0.00577400,0.00211771,0.00320844,0.00398533,-0.01819457,-
 0.05477537,0.00904887,0.04808325,0.11948949,-0.00046010,0.00082583,0.0
 0008313,-0.00603726,0.00148120,-0.00005738,-0.00193782,0.00292335,0.00
 008294,-0.00841526,-0.02857087,-0.00272953,-0.11882820,-0.11768622,-0.
 01168038,0.01220713,0.01697212,0.00161764,0.12186818,0.00075022,0.0001
 5244,0.00012199,0.00071145,0.00113582,-0.00030169,0.00329702,-0.001308
 56,-0.00076001,-0.00142510,0.00310561,-0.00018318,-0.11958943,-0.28772
 268,-0.02383774,-0.01147134,-0.01617279,-0.00200689,0.12514305,0.30461
 921,0.00007677,0.00012305,-0.00108138,-0.00012360,-0.00028884,0.004702
 26,0.00011484,-0.00076631,0.00796569,-0.00035826,-0.00065094,0.0048475
 7,-0.01184577,-0.02380762,-0.04112075,-0.00086915,-0.00151160,0.004351
 72,0.01260251,0.02650746,0.02886127,0.00085411,-0.00286066,-0.00031644
 ,0.00055199,-0.00014753,0.00000574,-0.01300590,0.00466428,0.00011966,0
 .00124044,0.00304536,0.00016958,-0.01309114,-0.00183483,-0.00042543,-0
 .33514765,-0.01513146,-0.00657190,0.00084517,0.00010931,0.00010119,0.3
 5623489,-0.00176115,-0.00497257,-0.00087581,0.00032207,-0.00141441,-0.
 00007211,-0.02800125,0.00195994,-0.00063018,0.00158916,-0.00400790,-0.
 00092095,0.02864064,0.00518115,0.00075555,-0.01537812,-0.05999909,-0.0
 0271773,-0.00022108,0.00077177,0.00045291,0.01443167,0.06000673,-0.000
 22087,-0.00089485,0.00461244,0.00004671,-0.00008032,-0.00053225,-0.002
 73602,-0.00006473,0.00356745,0.00004198,-0.00089508,0.00675978,0.00223
 844,0.00022810,0.00226848,-0.00659294,-0.00271409,-0.03230149,0.000072
 47,0.00045902,-0.00441082,0.00704191,0.00353977,0.02280200,-0.04025559
 ,0.05497241,0.00400292,-0.00357437,-0.01305919,-0.00128641,-0.15736652
 ,0.11161835,0.00775594,0.00045246,0.00920961,0.00083116,-0.00464849,-0
 .00216564,-0.00040075,0.01223360,-0.00641999,-0.00051889,0.00035294,-0
 .00043339,-0.00002303,0.00300311,-0.00098189,0.00002848,0.66209456,0.0
 1961849,-0.00237798,-0.00040540,-0.00489845,0.00297250,-0.00023515,0.0
 5883418,-0.26463313,-0.01846842,0.00789843,-0.00859424,-0.00052582,-0.
 01163328,0.00319503,-0.00058561,0.02940062,-0.05458549,-0.00512267,0.0
 0126539,-0.00112449,-0.00003248,-0.00024105,0.00327775,0.00059668,-0.0
 4293457,0.37665310,0.00091133,0.00020898,0.00618357,-0.00057318,-0.000
 37668,0.00465810,0.00313584,-0.01755040,-0.04332783,0.00071597,-0.0005
 0440,-0.00104525,-0.00122800,-0.00042012,0.00751065,0.00261297,-0.0057
 4050,0.00934531,0.00012533,-0.00006208,-0.00050168,0.00009299,0.000583
 18,-0.00353611,0.00731034,0.02981477,0.03011992,0.00221061,0.00385475,
 0.00031627,-0.00124758,-0.00022273,-0.00006979,-0.02599451,-0.00453535
 ,-0.00078698,0.00114041,-0.00127013,-0.00009690,-0.00167849,0.00024190
 ,0.00000593,0.00550966,-0.00449468,-0.00027833,0.00016593,-0.00019785,
 -0.00001591,-0.00006704,0.00098033,0.00007406,-0.47609510,-0.05504685,
 -0.01303784,0.49601122,0.00231131,-0.00633012,-0.00081078,0.00126233,0
 .00151865,0.00000921,0.04552986,0.00314563,0.00138319,-0.00051501,-0.0
 0013209,-0.00004872,0.00018267,-0.00022575,0.00005278,0.00248440,0.001
 48259,0.00026844,-0.00005686,0.00004997,-0.00000410,-0.00179135,-0.001
 42860,-0.00020776,-0.10919720,-0.05982255,-0.00671819,0.05982126,0.062
 08927,0.00018110,-0.00078432,0.00333403,0.00006025,-0.00001688,0.00166
 129,0.00359660,0.00050877,-0.00348300,-0.00003063,-0.00006145,0.000317
 51,0.00000025,0.00005388,-0.00078911,0.00033204,0.00014702,-0.00107674
 ,-0.00000354,-0.00000654,0.00008415,-0.00016798,-0.00015957,0.00057753
 ,-0.01777900,-0.00577231,-0.00564155,0.01379274,0.00600570,0.00616394,
 -0.11720749,-0.11401697,-0.01141031,0.01241287,0.01732749,0.00169023,-
 0.00935500,-0.03062111,-0.00292239,-0.00154988,0.00274926,0.00008737,-
 0.00097874,0.00099973,0.00008146,-0.00562316,0.00136497,-0.00006016,0.
 00008095,-0.00003454,0.00000802,-0.00059815,-0.00146381,-0.00013935,0.
 00181245,-0.00007404,0.00007906,0.00044027,0.00021184,0.00003702,0.119
 11581,-0.11586195,-0.28557316,-0.02398101,-0.01225022,-0.01808874,-0.0
 0199815,0.00132986,0.00133544,-0.00027536,0.00391128,-0.00121090,-0.00
 067131,0.00051575,0.00025933,0.00008714,0.00038736,0.00095503,-0.00032
 119,-0.00005927,-0.00003888,0.00004385,0.00011998,0.00023834,0.0000176
 2,0.00005680,0.00080735,0.00034379,-0.00006221,0.00004080,0.00005717,0
 .12265809,0.30144219,-0.01157106,-0.02394941,-0.03666154,-0.00089618,-
 0.00148401,0.00218401,-0.00012883,-0.00083092,0.00467575,0.00018959,-0
 .00069196,0.00718845,0.00003896,0.00009560,-0.00062610,-0.00014561,-0.
 00030386,0.00467353,0.00000581,0.00004424,-0.00054787,-0.00000094,-0.0
 0000989,0.00005926,0.00009047,0.00034148,-0.00308074,0.00001300,0.0000
 6197,-0.00061977,0.01237465,0.02637111,0.02677245,-0.00931370,-0.00154
 260,-0.00038007,-0.35066823,-0.01268083,-0.00650979,0.00081458,0.00182
 905,0.00002857,-0.01033582,-0.00057989,-0.00031407,0.00068711,-0.00233
 282,-0.00027099,0.00066744,0.00028986,0.00005294,-0.00036931,0.0001374
 9,-0.00000641,-0.00005753,0.00002293,0.00001101,-0.00054612,-0.0001411
 9,-0.00002142,-0.00004764,0.00010866,0.00001574,0.00079331,0.00013382,
 0.00010734,0.37040247,0.02704129,0.00534090,0.00051800,-0.01089703,-0.
 05826653,-0.00183006,0.00167652,-0.00392670,-0.00104615,-0.02766773,0.
 00482689,-0.00047863,-0.00166240,-0.00549641,-0.00090739,0.00035255,-0
 .00097574,0.00000130,-0.00158258,0.00029043,-0.00006182,0.00000412,0.0
 0008417,0.00005783,0.00149008,0.00021566,0.00004713,0.00028237,-0.0003
 4296,0.00001022,-0.00031312,0.00078025,0.00047408,0.01056873,0.0586929
 3,0.00211894,0.00002202,0.00482953,-0.00635418,-0.00186034,-0.03979948
 ,0.00001604,-0.00104327,0.00827974,-0.00268129,-0.00001081,0.00476308,
 -0.00021281,-0.00091828,0.00446213,0.00005863,-0.00000015,-0.00091973,
 -0.00015657,-0.00003249,0.00068163,0.00000933,0.00005815,-0.00057105,0
 .00012125,0.00001870,-0.00002238,0.00003089,0.00000731,-0.00040365,0.0
 0006824,0.00048205,-0.00466183,0.00689351,0.00298945,0.02699959,0.0041
 4761,-0.00988517,-0.00092966,0.01955035,0.01185800,0.00147512,-0.00712
 568,0.00440014,0.00029017,-0.11337667,0.00571603,-0.00021476,-0.023346
 41,0.03661384,0.00289096,-0.00711742,-0.00756121,-0.00092882,-0.001627
 10,-0.00062607,-0.00000894,-0.00032617,0.00133121,0.00008695,0.0043894
 6,-0.00628196,-0.00045979,-0.00096151,0.00013198,-0.00000281,0.0009165
 5,-0.00137059,-0.00012691,-0.00344961,-0.00349736,-0.00029790,0.849347
 90,-0.01236880,0.00081773,-0.00083391,0.01698136,-0.04460245,-0.003131
 17,0.00316456,-0.01167326,-0.00082871,0.00528369,-0.11903903,-0.003999
 02,0.03165784,-0.00330223,0.00074421,-0.00456897,0.01265579,0.00030997
 ,-0.00431946,-0.00150097,0.00015889,-0.00107542,0.00108639,-0.00004345
 ,-0.00653335,0.00950541,0.00078850,0.00140836,-0.00024088,0.00001443,0
 .00081095,-0.00025440,-0.00012188,0.00020528,0.00025758,0.00037440,0.1
 3042717,0.72183978,-0.00114565,-0.00079096,0.00779064,0.00191801,-0.00
 321140,-0.00570647,0.00017933,-0.00080817,-0.00163498,-0.00024611,-0.0
 0398733,-0.07263007,0.00246368,0.00082116,-0.00536171,-0.00066670,0.00
 025926,0.00821990,-0.00033550,0.00022479,-0.00418403,-0.00012337,-0.00
 000128,0.00136461,-0.00048151,0.00079242,-0.00074279,0.00010855,-0.000
 00771,-0.00012392,0.00006412,-0.00016001,0.00128960,0.00002577,0.00030
 637,-0.00393535,0.02260038,0.04599636,0.22876441,0.00151480,0.00137428
 ,0.00016793,-0.00243476,0.00146171,0.00001483,0.00038483,0.00155066,0.
 00013455,0.02034270,0.00029573,0.00007727,-0.00985578,0.00550646,0.000
 28163,0.00238061,-0.00136501,-0.00006422,0.00065249,0.00423001,0.00038
 337,0.00001056,-0.00011314,-0.00000838,0.00039202,-0.00004208,0.000002
 36,-0.00003717,-0.00014889,-0.00001362,-0.00019456,0.00022977,0.000027
 07,0.00044078,0.00127902,0.00011234,-0.20377856,-0.14976163,-0.0154554
 0,0.25967306,0.00296715,-0.00334023,-0.00013378,0.00801687,0.00252979,
 0.00000040,-0.00396467,0.00368982,0.00021994,-0.01117381,-0.06919610,-
 0.00780331,-0.00741946,-0.00063917,-0.00034446,0.00026168,-0.00351124,
 -0.00023266,0.00308692,-0.00236909,-0.00015146,0.00031289,-0.00018357,
 -0.00000530,0.00331291,-0.00401678,-0.00029875,-0.00058348,0.00008309,
 -0.00000234,0.00048436,-0.00065516,0.00000404,-0.00011560,0.00115238,0
 .00006613,-0.15492603,-0.43710487,-0.03459752,0.22154149,0.51410801,0.
 00030649,-0.00016398,-0.00120592,0.00059082,-0.00011211,0.00409599,-0.
 00034711,0.00031639,0.00041617,-0.00093115,-0.00760114,0.01674630,-0.0
 0085512,-0.00011392,0.00176104,0.00007803,-0.00026363,-0.00081669,0.00
 028295,-0.00013135,-0.00004071,0.00002867,-0.00001261,-0.00006224,0.00
 029635,-0.00035760,0.00002776,-0.00005166,0.00000535,-0.00000785,0.000
 04962,-0.00000084,-0.00060120,-0.00000849,0.00009321,0.00036099,-0.015
 90632,-0.03450593,-0.07790783,0.02359736,0.04669299,0.03197295,-0.0026
 6348,0.00257915,0.00018999,-0.00305001,-0.01025554,-0.00098034,0.00153
 777,-0.00499208,-0.00041358,-0.05868022,0.02467645,0.00080448,0.005371
 07,0.00443445,0.00041008,-0.00069118,0.00424046,0.00038111,0.00150226,
 -0.00060084,-0.00003562,-0.00044669,0.00060244,0.00005554,-0.00224442,
 0.00427635,0.00033404,0.00065094,-0.00033500,-0.00001815,-0.00006522,0
 .00026154,0.00002265,0.00098227,0.00292555,0.00027359,-0.51724275,-0.0
 1131156,-0.00890562,-0.06949102,-0.06180120,-0.00713044,0.64453069,0.0
 0099479,0.00175724,0.00022250,0.00222371,-0.00732816,-0.00074175,0.000
 77552,0.00187512,0.00015974,0.03651022,0.00872072,-0.00012729,-0.00198
 314,-0.00506354,-0.00082538,0.00245084,-0.00108798,0.00004601,0.000798
 50,0.00011221,-0.00001099,0.00039468,-0.00060009,0.00000657,0.00106507
 ,-0.00147214,-0.00011522,-0.00017568,0.00011295,0.00000624,-0.00008310
 ,-0.00003751,-0.00000059,0.00409712,-0.00263286,-0.00015287,-0.0063300
 0,-0.12844460,-0.00483598,-0.08603837,-0.00054688,-0.00384481,0.045299
 83,0.13463553,0.00004904,0.00025129,-0.00056929,0.00011366,-0.00096660
 ,0.00154889,0.00009214,0.00005962,0.00020148,0.00184002,-0.00033858,0.
 01759101,-0.00014862,-0.00071200,0.00392852,0.00022170,0.00007763,-0.0
 0112195,0.00009012,-0.00003552,0.00039294,0.00003699,0.00001057,-0.000
 59758,0.00005268,-0.00005858,0.00005303,-0.00000401,0.00000333,0.00000
 714,-0.00000757,0.00000514,-0.00004401,0.00037635,-0.00017353,-0.00006
 323,-0.00846767,-0.00492268,-0.07520200,-0.00925708,-0.00341390,0.0252
 6123,0.01501226,0.01021381,0.02861380||0.00002921,-0.00001488,-0.00000
 251,-0.00000088,0.00000055,0.00000058,-0.00002448,0.00002605,0.0000114
 3,-0.00001190,0.00000572,0.00000211,0.00000565,0.00000788,-0.00000558,
 0.00000544,-0.00001767,-0.00000226,0.00000163,-0.00000286,0.00000044,0
 .00000138,-0.00000153,-0.00000060,-0.00000570,-0.00001085,-0.00000498,
 -0.00000550,0.00001052,0.00000156,-0.00000401,-0.00000122,-0.00000129,
 0.00000328,-0.00000255,0.00000064,0.00001007,-0.00002341,-0.00000169,-
 0.00000597,0.00001273,0.00000332,0.00000178,0.00001153,-0.00000119|||@


 If your ship doesn't come in, swim out to it!
                          -- Jonathan Winters
 Job cpu time:       0 days  0 hours  7 minutes 39.0 seconds.
 File lengths (MBytes):  RWF=     71 Int=      0 D2E=      0 Chk=      4 Scr=      1
 Normal termination of Gaussian 09 at Thu Sep 14 13:42:53 2023.
