 Entering Link 1 = C:\G09W\l1.exe PID=      8512.
  
 Copyright (c) 1988,1990,1992,1993,1995,1998,2003,2009,2013,
            Gaussian, Inc.  All Rights Reserved.
  
 This is part of the Gaussian(R) 09 program.  It is based on
 the Gaussian(R) 03 system (copyright 2003, Gaussian, Inc.),
 the Gaussian(R) 98 system (copyright 1998, Gaussian, Inc.),
 the Gaussian(R) 94 system (copyright 1995, Gaussian, Inc.),
 the Gaussian 92(TM) system (copyright 1992, Gaussian, Inc.),
 the Gaussian 90(TM) system (copyright 1990, Gaussian, Inc.),
 the Gaussian 88(TM) system (copyright 1988, Gaussian, Inc.),
 the Gaussian 86(TM) system (copyright 1986, Carnegie Mellon
 University), and the Gaussian 82(TM) system (copyright 1983,
 Carnegie Mellon University). Gaussian is a federally registered
 trademark of Gaussian, Inc.
  
 This software contains proprietary and confidential information,
 including trade secrets, belonging to Gaussian, Inc.
  
 This software is provided under written license and may be
 used, copied, transmitted, or stored only in accord with that
 written license.
  
 The following legend is applicable only to US Government
 contracts under FAR:
  
                    RESTRICTED RIGHTS LEGEND
  
 Use, reproduction and disclosure by the US Government is
 subject to restrictions as set forth in subparagraphs (a)
 and (c) of the Commercial Computer Software - Restricted
 Rights clause in FAR 52.227-19.
  
 Gaussian, Inc.
 340 Quinnipiac St., Bldg. 40, Wallingford CT 06492
  
  
 ---------------------------------------------------------------
 Warning -- This program may not be used in any manner that
 competes with the business of Gaussian, Inc. or will provide
 assistance to any competitor of Gaussian, Inc.  The licensee
 of this program is prohibited from giving any competitor of
 Gaussian, Inc. access to this program.  By using this program,
 the user acknowledges that Gaussian, Inc. is engaged in the
 business of creating and licensing software in the field of
 computational chemistry and represents and warrants to the
 licensee that it is not a competitor of Gaussian, Inc. and that
 it will not use this program in any manner prohibited above.
 ---------------------------------------------------------------
  

 Cite this work as:
 Gaussian 09, Revision D.01,
 M. J. Frisch, G. W. Trucks, H. B. Schlegel, G. E. Scuseria, 
 M. A. Robb, J. R. Cheeseman, G. Scalmani, V. Barone, B. Mennucci, 
 G. A. Petersson, H. Nakatsuji, M. Caricato, X. Li, H. P. Hratchian, 
 A. F. Izmaylov, J. Bloino, G. Zheng, J. L. Sonnenberg, M. Hada, 
 M. Ehara, K. Toyota, R. Fukuda, J. Hasegawa, M. Ishida, T. Nakajima, 
 Y. Honda, O. Kitao, H. Nakai, T. Vreven, J. A. Montgomery, Jr., 
 J. E. Peralta, F. Ogliaro, M. Bearpark, J. J. Heyd, E. Brothers, 
 K. N. Kudin, V. N. Staroverov, T. Keith, R. Kobayashi, J. Normand, 
 K. Raghavachari, A. Rendell, J. C. Burant, S. S. Iyengar, J. Tomasi, 
 M. Cossi, N. Rega, J. M. Millam, M. Klene, J. E. Knox, J. B. Cross, 
 V. Bakken, C. Adamo, J. Jaramillo, R. Gomperts, R. E. Stratmann, 
 O. Yazyev, A. J. Austin, R. Cammi, C. Pomelli, J. W. Ochterski, 
 R. L. Martin, K. Morokuma, V. G. Zakrzewski, G. A. Voth, 
 P. Salvador, J. J. Dannenberg, S. Dapprich, A. D. Daniels, 
 O. Farkas, J. B. Foresman, J. V. Ortiz, J. Cioslowski, 
 and D. J. Fox, Gaussian, Inc., Wallingford CT, 2013.
 
 ******************************************
 Gaussian 09:  EM64W-G09RevD.01 13-Apr-2013
                13-Sep-2023 
 ******************************************
 %nprocshared=2
 Will use up to    2 processors via shared memory.
 %mem=2GB
 %chk=E:\PROJECT- VIT group\ML\Substrates\molecule_8.chk
 -----------------------------------------------------
 # opt freq b3lyp/6-31g nosymm empiricaldispersion=gd3
 -----------------------------------------------------
 1/14=-1,18=20,19=15,26=3,38=1/1,3;
 2/9=110,12=2,15=1,17=6,18=5,40=1/2;
 3/5=1,6=6,11=2,16=1,25=1,30=1,71=1,74=-5,124=31/1,2,3;
 4//1;
 5/5=2,38=5/2;
 6/7=2,8=2,9=2,10=2,28=1/1;
 7/30=1/1,2,3,16;
 1/14=-1,18=20,19=15,26=3/3(2);
 2/9=110,15=1/2;
 99//99;
 2/9=110,15=1/2;
 3/5=1,6=6,11=2,16=1,25=1,30=1,71=1,74=-5,124=31/1,2,3;
 4/5=5,16=3,69=1/1;
 5/5=2,38=5/2;
 7/30=1/1,2,3,16;
 1/14=-1,18=20,19=15,26=3/3(-5);
 2/9=110,15=1/2;
 6/7=2,8=2,9=2,10=2,19=2,28=1/1;
 99/9=1/99;
 -----------
 molecule_11
 -----------
 Symbolic Z-matrix:
 Charge =  0 Multiplicity = 1
 C                    -0.26413  -0.70775   0. 
 C                     1.13103  -0.70775   0. 
 C                     1.82857   0.5       0. 
 C                     1.13092   1.70851  -0.0012 
 C                    -0.26391   1.70843  -0.00168 
 C                    -0.96151   0.50022  -0.00068 
 H                    -0.81389  -1.66007   0.00045 
 H                     1.68054  -1.66026   0.00132 
 H                     1.68112   2.66065  -0.00126 
 H                    -0.81403   2.66071  -0.00263 
 B                     3.47857   0.50012   0.00095 
 O                     4.24934   0.49944  -1.33228 
 H                     5.19316   0.50175  -1.1568 
 O                     4.2478    0.50091   1.33507 
 H                     5.19183   0.4995    1.16067 
 C                    -2.50151   0.50048  -0.00093 
 O                    -3.1352    0.50021   1.08627 
 C                    -3.26865   0.50107  -1.33626 
 H                    -3.01259   1.37738  -1.89431 
 H                    -3.00532  -0.3699   -1.89926 
 H                    -4.32104   0.49615  -1.143 
 

 GradGradGradGradGradGradGradGradGradGradGradGradGradGradGradGradGradGrad
 Berny optimization.
 Initialization pass.
                           ----------------------------
                           !    Initial Parameters    !
                           ! (Angstroms and Degrees)  !
 --------------------------                            --------------------------
 ! Name  Definition              Value          Derivative Info.                !
 --------------------------------------------------------------------------------
 ! R1    R(1,2)                  1.3952         estimate D2E/DX2                !
 ! R2    R(1,6)                  1.3948         estimate D2E/DX2                !
 ! R3    R(1,7)                  1.0996         estimate D2E/DX2                !
 ! R4    R(2,3)                  1.3947         estimate D2E/DX2                !
 ! R5    R(2,8)                  1.0997         estimate D2E/DX2                !
 ! R6    R(3,4)                  1.3954         estimate D2E/DX2                !
 ! R7    R(3,11)                 1.65           estimate D2E/DX2                !
 ! R8    R(4,5)                  1.3948         estimate D2E/DX2                !
 ! R9    R(4,9)                  1.0997         estimate D2E/DX2                !
 ! R10   R(5,6)                  1.3951         estimate D2E/DX2                !
 ! R11   R(5,10)                 1.0998         estimate D2E/DX2                !
 ! R12   R(6,16)                 1.54           estimate D2E/DX2                !
 ! R13   R(11,12)                1.54           estimate D2E/DX2                !
 ! R14   R(11,14)                1.54           estimate D2E/DX2                !
 ! R15   R(12,13)                0.96           estimate D2E/DX2                !
 ! R16   R(14,15)                0.96           estimate D2E/DX2                !
 ! R17   R(16,17)                1.2584         estimate D2E/DX2                !
 ! R18   R(16,18)                1.54           estimate D2E/DX2                !
 ! R19   R(18,19)                1.07           estimate D2E/DX2                !
 ! R20   R(18,20)                1.07           estimate D2E/DX2                !
 ! R21   R(18,21)                1.07           estimate D2E/DX2                !
 ! A1    A(2,1,6)              119.9985         estimate D2E/DX2                !
 ! A2    A(2,1,7)              119.9972         estimate D2E/DX2                !
 ! A3    A(6,1,7)              120.0043         estimate D2E/DX2                !
 ! A4    A(1,2,3)              120.0086         estimate D2E/DX2                !
 ! A5    A(1,2,8)              119.9808         estimate D2E/DX2                !
 ! A6    A(3,2,8)              120.0106         estimate D2E/DX2                !
 ! A7    A(2,3,4)              119.9942         estimate D2E/DX2                !
 ! A8    A(2,3,11)             120.0128         estimate D2E/DX2                !
 ! A9    A(4,3,11)             119.993          estimate D2E/DX2                !
 ! A10   A(3,4,5)              119.994          estimate D2E/DX2                !
 ! A11   A(3,4,9)              119.9811         estimate D2E/DX2                !
 ! A12   A(5,4,9)              120.0249         estimate D2E/DX2                !
 ! A13   A(4,5,6)              120.0047         estimate D2E/DX2                !
 ! A14   A(4,5,10)             120.0113         estimate D2E/DX2                !
 ! A15   A(6,5,10)             119.984          estimate D2E/DX2                !
 ! A16   A(1,6,5)              120.0            estimate D2E/DX2                !
 ! A17   A(1,6,16)             120.008          estimate D2E/DX2                !
 ! A18   A(5,6,16)             119.992          estimate D2E/DX2                !
 ! A19   A(3,11,12)            120.0            estimate D2E/DX2                !
 ! A20   A(3,11,14)            120.0            estimate D2E/DX2                !
 ! A21   A(12,11,14)           120.0            estimate D2E/DX2                !
 ! A22   A(11,12,13)           109.5            estimate D2E/DX2                !
 ! A23   A(11,14,15)           109.5            estimate D2E/DX2                !
 ! A24   A(6,16,17)            120.2269         estimate D2E/DX2                !
 ! A25   A(6,16,18)            119.8865         estimate D2E/DX2                !
 ! A26   A(17,16,18)           119.8865         estimate D2E/DX2                !
 ! A27   A(16,18,19)           109.4712         estimate D2E/DX2                !
 ! A28   A(16,18,20)           109.4712         estimate D2E/DX2                !
 ! A29   A(16,18,21)           109.4712         estimate D2E/DX2                !
 ! A30   A(19,18,20)           109.4713         estimate D2E/DX2                !
 ! A31   A(19,18,21)           109.4712         estimate D2E/DX2                !
 ! A32   A(20,18,21)           109.4712         estimate D2E/DX2                !
 ! D1    D(6,1,2,3)              0.0323         estimate D2E/DX2                !
 ! D2    D(6,1,2,8)            179.9532         estimate D2E/DX2                !
 ! D3    D(7,1,2,3)           -179.9729         estimate D2E/DX2                !
 ! D4    D(7,1,2,8)             -0.052          estimate D2E/DX2                !
 ! D5    D(2,1,6,5)              0.0149         estimate D2E/DX2                !
 ! D6    D(2,1,6,16)           179.9892         estimate D2E/DX2                !
 ! D7    D(7,1,6,5)           -179.9798         estimate D2E/DX2                !
 ! D8    D(7,1,6,16)            -0.0056         estimate D2E/DX2                !
 ! D9    D(1,2,3,4)             -0.0568         estimate D2E/DX2                !
 ! D10   D(1,2,3,11)           179.9619         estimate D2E/DX2                !
 ! D11   D(8,2,3,4)           -179.9777         estimate D2E/DX2                !
 ! D12   D(8,2,3,11)             0.041          estimate D2E/DX2                !
 ! D13   D(2,3,4,5)              0.0341         estimate D2E/DX2                !
 ! D14   D(2,3,4,9)           -179.9964         estimate D2E/DX2                !
 ! D15   D(11,3,4,5)          -179.9846         estimate D2E/DX2                !
 ! D16   D(11,3,4,9)            -0.0151         estimate D2E/DX2                !
 ! D17   D(2,3,11,12)           89.9874         estimate D2E/DX2                !
 ! D18   D(2,3,11,14)          -90.0126         estimate D2E/DX2                !
 ! D19   D(4,3,11,12)          -89.9939         estimate D2E/DX2                !
 ! D20   D(4,3,11,14)           90.0061         estimate D2E/DX2                !
 ! D21   D(3,4,5,6)              0.0131         estimate D2E/DX2                !
 ! D22   D(3,4,5,10)          -179.9995         estimate D2E/DX2                !
 ! D23   D(9,4,5,6)           -179.9563         estimate D2E/DX2                !
 ! D24   D(9,4,5,10)             0.0311         estimate D2E/DX2                !
 ! D25   D(4,5,6,1)             -0.0376         estimate D2E/DX2                !
 ! D26   D(4,5,6,16)           179.9881         estimate D2E/DX2                !
 ! D27   D(10,5,6,1)           179.975          estimate D2E/DX2                !
 ! D28   D(10,5,6,16)            0.0007         estimate D2E/DX2                !
 ! D29   D(1,6,16,17)           89.9531         estimate D2E/DX2                !
 ! D30   D(1,6,16,18)          -90.0469         estimate D2E/DX2                !
 ! D31   D(5,6,16,17)          -90.0726         estimate D2E/DX2                !
 ! D32   D(5,6,16,18)           89.9274         estimate D2E/DX2                !
 ! D33   D(3,11,12,13)         179.8644         estimate D2E/DX2                !
 ! D34   D(14,11,12,13)         -0.1356         estimate D2E/DX2                !
 ! D35   D(3,11,14,15)         179.9122         estimate D2E/DX2                !
 ! D36   D(12,11,14,15)         -0.0878         estimate D2E/DX2                !
 ! D37   D(6,16,18,19)         -60.2859         estimate D2E/DX2                !
 ! D38   D(6,16,18,20)          59.7141         estimate D2E/DX2                !
 ! D39   D(6,16,18,21)         179.7141         estimate D2E/DX2                !
 ! D40   D(17,16,18,19)        119.7141         estimate D2E/DX2                !
 ! D41   D(17,16,18,20)       -120.2859         estimate D2E/DX2                !
 ! D42   D(17,16,18,21)         -0.2859         estimate D2E/DX2                !
 --------------------------------------------------------------------------------
 Trust Radius=3.00D-01 FncErr=1.00D-07 GrdErr=1.00D-06
 Number of steps in this run=    105 maximum allowed number of steps=    126.
 GradGradGradGradGradGradGradGradGradGradGradGradGradGradGradGradGradGrad

                          Input orientation:                          
 ---------------------------------------------------------------------
 Center     Atomic      Atomic             Coordinates (Angstroms)
 Number     Number       Type             X           Y           Z
 ---------------------------------------------------------------------
      1          6           0       -0.264127   -0.707751    0.000000
      2          6           0        1.131033   -0.707751    0.000000
      3          6           0        1.828571    0.500000    0.000000
      4          6           0        1.130917    1.708509   -0.001199
      5          6           0       -0.263908    1.708431   -0.001678
      6          6           0       -0.961509    0.500225   -0.000682
      7          1           0       -0.813886   -1.660068    0.000450
      8          1           0        1.680541   -1.660264    0.001315
      9          1           0        1.681117    2.660652   -0.001258
     10          1           0       -0.814030    2.660712   -0.002631
     11          5           0        3.478571    0.500120    0.000951
     12          8           0        4.249340    0.499439   -1.332283
     13          1           0        5.193161    0.501746   -1.156796
     14          8           0        4.247802    0.500914    1.335074
     15          1           0        5.191827    0.499499    1.160673
     16          6           0       -2.501509    0.500481   -0.000934
     17          8           0       -3.135198    0.500208    1.086268
     18          6           0       -3.268647    0.501074   -1.336261
     19          1           0       -3.012592    1.377384   -1.894309
     20          1           0       -3.005322   -0.369897   -1.899261
     21          1           0       -4.321039    0.496148   -1.143005
 ---------------------------------------------------------------------
                    Distance matrix (angstroms):
                    1          2          3          4          5
     1  C    0.000000
     2  C    1.395160   0.000000
     3  C    2.416205   1.394712   0.000000
     4  C    2.790065   2.416260   1.395427   0.000000
     5  C    2.416183   2.789946   2.416356   1.394825   0.000000
     6  C    1.394829   2.416183   2.790080   2.416236   1.395138
     7  H    1.099610   2.165553   3.412986   3.889675   3.413102
     8  H    2.165414   1.099655   2.165330   3.413316   3.889601
     9  H    3.889745   3.413024   2.165678   1.099680   2.165606
    10  H    3.413055   3.889707   3.413506   2.165528   1.099761
    11  B    3.932778   2.640054   1.650000   2.640395   3.932705
    12  O    4.858360   3.599461   2.763168   3.599750   4.858145
    13  H    5.708156   4.393397   3.557899   4.392438   5.707012
    14  O    4.858065   3.599658   2.763168   3.599845   4.858037
    15  H    5.707192   4.392568   3.557899   4.393477   5.707680
    16  C    2.542775   3.828209   4.330080   3.828035   2.542833
    17  O    3.298817   4.565071   5.081239   4.565339   3.299658
    18  C    3.503426   4.754371   5.269462   4.753573   3.502468
    19  H    3.935766   5.010571   5.272103   4.567513   3.353641
    20  H    3.351939   4.564075   5.265970   5.003088   3.928820
    21  H    4.383420   5.699204   6.254932   5.700646   4.385495
                    6          7          8          9         10
     6  C    0.000000
     7  H    2.165331   0.000000
     8  H    3.412938   2.494427   0.000000
     9  H    3.413344   4.989355   4.320917   0.000000
    10  H    2.165516   4.320781   4.989362   2.495147   0.000000
    11  B    4.440080   4.805372   2.810724   2.810470   4.805683
    12  O    5.378300   5.663559   3.611305   3.610850   5.663638
    13  H    6.262313   6.488241   4.284157   4.281425   6.486877
    14  O    5.377840   5.663192   3.611153   3.610834   5.663596
    15  H    6.261971   6.486789   4.282267   4.283193   6.488022
    16  C    1.540000   2.741541   4.707267   4.707515   2.741201
    17  O    2.430306   3.351758   5.388516   5.389539   3.352805
    18  C    2.665832   3.533155   5.563718   5.562929   3.530970
    19  H    2.926119   4.201254   5.903067   5.221238   3.171601
    20  H    2.922138   3.174246   5.218674   5.894859   4.193276
    21  H    3.548431   4.272807   6.479085   6.481862   4.276085
                   11         12         13         14         15
    11  B    0.000000
    12  O    1.540000   0.000000
    13  H    2.068864   0.960000   0.000000
    14  O    1.540000   2.667358   2.665168   0.000000
    15  H    2.068864   2.665167   2.317471   0.960000   0.000000
    16  C    5.980080   6.880876   7.781000   6.880270   7.780536
    17  O    6.702228   7.770508   8.625132   7.387192   8.327357
    18  C    6.878451   7.517988   8.463711   7.977032   8.821241
    19  H    6.818856   7.336369   8.285231   7.994400   8.798641
    20  H    6.812387   7.328529   8.278052   7.989183   8.792741
    21  H    7.883055   8.572469   9.514211   8.919973   9.787827
                   16         17         18         19         20
    16  C    0.000000
    17  O    1.258400   0.000000
    18  C    1.540000   2.426202   0.000000
    19  H    2.148263   3.109390   1.070000   0.000000
    20  H    2.148263   3.112448   1.070000   1.747303   0.000000
    21  H    2.148263   2.525052   1.070000   1.747303   1.747303
                   21
    21  H    0.000000
 Symmetry turned off by external request.
 Stoichiometry    C8H9BO3
 Framework group  C1[X(C8H9BO3)]
 Deg. of freedom    57
 Full point group                 C1      NOp   1
 Rotational constants (GHZ):      2.5452667      0.3896977      0.3844409
 Standard basis: 6-31G (6D, 7F)
   126 basis functions,   300 primitive gaussians,   126 cartesian basis functions
    43 alpha electrons       43 beta electrons
       nuclear repulsion energy       608.0326947980 Hartrees.
 NAtoms=   21 NActive=   21 NUniq=   21 SFac= 1.00D+00 NAtFMM=   60 NAOKFM=F Big=F
 Integral buffers will be    131072 words long.
 Raffenetti 2 integral format.
 Two-electron integral symmetry is turned off.
 Nuclear repulsion after empirical dispersion term =      608.0175834161 Hartrees.
 One-electron integrals computed using PRISM.
 NBasis=   126 RedAO= T EigKep=  6.21D-04  NBF=   126
 NBsUse=   126 1.00D-06 EigRej= -1.00D+00 NBFU=   126
 ExpMin= 1.27D-01 ExpMax= 5.48D+03 ExpMxC= 8.25D+02 IAcc=1 IRadAn=         1 AccDes= 0.00D+00
 Harris functional with IExCor=  402 and IRadAn=       1 diagonalized for initial guess.
 HarFok:  IExCor=  402 AccDes= 0.00D+00 IRadAn=         1 IDoV= 1 UseB2=F ITyADJ=14
 ICtDFT=  3500011 ScaDFX=  1.000000  1.000000  1.000000  1.000000
 FoFCou: FMM=F IPFlag=           0 FMFlag=      100000 FMFlg1=           0
         NFxFlg=           0 DoJE=T BraDBF=F KetDBF=T FulRan=T
         wScrn=  0.000000 ICntrl=     500 IOpCl=  0 I1Cent=   200000004 NGrid=           0
         NMat0=    1 NMatS0=      1 NMatT0=    0 NMatD0=    1 NMtDS0=    0 NMtDT0=    0
 Symmetry not used in FoFCou.
 Keep R1 ints in memory in canonical form, NReq=33103861.
 Requested convergence on RMS density matrix=1.00D-08 within 128 cycles.
 Requested convergence on MAX density matrix=1.00D-06.
 Requested convergence on             energy=1.00D-06.
 No special actions if energy rises.
 Integral accuracy reduced to 1.0D-05 until final iterations.
 Initial convergence to 1.0D-05 achieved.  Increase integral accuracy.
 SCF Done:  E(RB3LYP) =  -560.714186753     A.U. after   15 cycles
            NFock= 15  Conv=0.94D-08     -V/T= 2.0066

 **********************************************************************

            Population analysis using the SCF density.

 **********************************************************************

 Alpha  occ. eigenvalues --  -19.17738 -19.17691 -19.14525 -10.29025 -10.20916
 Alpha  occ. eigenvalues --  -10.20070 -10.20067 -10.19999 -10.19994 -10.19496
 Alpha  occ. eigenvalues --  -10.18453  -6.85939  -1.04143  -1.03525  -1.00959
 Alpha  occ. eigenvalues --   -0.87156  -0.77713  -0.75916  -0.74181  -0.63309
 Alpha  occ. eigenvalues --   -0.61957  -0.56080  -0.55930  -0.52395  -0.49233
 Alpha  occ. eigenvalues --   -0.47522  -0.46196  -0.44443  -0.44078  -0.43278
 Alpha  occ. eigenvalues --   -0.43234  -0.41800  -0.39243  -0.37231  -0.36804
 Alpha  occ. eigenvalues --   -0.35900  -0.34557  -0.34173  -0.34148  -0.32078
 Alpha  occ. eigenvalues --   -0.26328  -0.26207  -0.24578
 Alpha virt. eigenvalues --   -0.03290  -0.01505  -0.01002  -0.00849   0.02076
 Alpha virt. eigenvalues --    0.08548   0.10270   0.11399   0.12886   0.13847
 Alpha virt. eigenvalues --    0.14677   0.16180   0.16584   0.17382   0.19805
 Alpha virt. eigenvalues --    0.19934   0.24551   0.28006   0.28928   0.29684
 Alpha virt. eigenvalues --    0.30874   0.34176   0.35149   0.35264   0.41140
 Alpha virt. eigenvalues --    0.45909   0.47379   0.50192   0.50486   0.50691
 Alpha virt. eigenvalues --    0.55041   0.57137   0.57537   0.58283   0.59674
 Alpha virt. eigenvalues --    0.60229   0.61514   0.62247   0.63935   0.65448
 Alpha virt. eigenvalues --    0.66876   0.67132   0.69386   0.71606   0.73190
 Alpha virt. eigenvalues --    0.78021   0.80452   0.81514   0.82878   0.84158
 Alpha virt. eigenvalues --    0.84165   0.85731   0.88469   0.88691   0.89096
 Alpha virt. eigenvalues --    0.91195   0.93088   0.93207   0.94788   0.96983
 Alpha virt. eigenvalues --    0.99423   0.99606   1.01875   1.04445   1.05917
 Alpha virt. eigenvalues --    1.06112   1.09297   1.09697   1.15392   1.18970
 Alpha virt. eigenvalues --    1.21217   1.21802   1.24690   1.24791   1.25471
 Alpha virt. eigenvalues --    1.31631   1.46215   1.46682   1.51497   1.63864
 Alpha virt. eigenvalues --    1.75799   1.84457   1.93288
          Condensed to atoms (all electrons):
               1          2          3          4          5          6
     1  C    4.948150   0.495754  -0.051856  -0.055209  -0.034416   0.515358
     2  C    0.495754   4.981684   0.501758  -0.022709  -0.055207  -0.035048
     3  C   -0.051856   0.501758   5.040573   0.501499  -0.051852  -0.036216
     4  C   -0.055209  -0.022709   0.501499   4.981514   0.496039  -0.035036
     5  C   -0.034416  -0.055207  -0.051852   0.496039   4.948059   0.515036
     6  C    0.515358  -0.035048  -0.036216  -0.035036   0.515036   5.258441
     7  H    0.353176  -0.028681   0.004556   0.000625   0.004011  -0.041409
     8  H   -0.034514   0.355417  -0.039152   0.005152   0.000549   0.004640
     9  H    0.000549   0.005153  -0.039132   0.355400  -0.034491   0.004632
    10  H    0.004010   0.000625   0.004552  -0.028682   0.353157  -0.041410
    11  B    0.007454  -0.032346   0.285406  -0.032287   0.007457  -0.001081
    12  O   -0.000004   0.000221  -0.039384   0.000225  -0.000004   0.000000
    13  H    0.000002   0.000020   0.004311   0.000021   0.000002   0.000000
    14  O   -0.000002   0.000196  -0.039313   0.000195  -0.000002  -0.000001
    15  H    0.000002   0.000023   0.004314   0.000022   0.000002   0.000000
    16  C   -0.031047   0.005885  -0.000344   0.005883  -0.031032   0.126007
    17  O   -0.000010   0.000075  -0.000015   0.000074  -0.000010  -0.114333
    18  C    0.000283   0.000020  -0.000033   0.000021   0.000340  -0.162505
    19  H    0.000127  -0.000002   0.000002  -0.000027   0.000682   0.004829
    20  H    0.000687  -0.000028   0.000002  -0.000002   0.000126   0.004908
    21  H   -0.000055   0.000001   0.000000   0.000001  -0.000056   0.006894
               7          8          9         10         11         12
     1  C    0.353176  -0.034514   0.000549   0.004010   0.007454  -0.000004
     2  C   -0.028681   0.355417   0.005153   0.000625  -0.032346   0.000221
     3  C    0.004556  -0.039152  -0.039132   0.004552   0.285406  -0.039384
     4  C    0.000625   0.005152   0.355400  -0.028682  -0.032287   0.000225
     5  C    0.004011   0.000549  -0.034491   0.353157   0.007457  -0.000004
     6  C   -0.041409   0.004640   0.004632  -0.041410  -0.001081   0.000000
     7  H    0.573255  -0.003742   0.000013  -0.000161  -0.000157   0.000000
     8  H   -0.003742   0.582191  -0.000143   0.000013  -0.008805   0.000066
     9  H    0.000013  -0.000143   0.582163  -0.003738  -0.008803   0.000066
    10  H   -0.000161   0.000013  -0.003738   0.573318  -0.000157   0.000000
    11  B   -0.000157  -0.008805  -0.008803  -0.000157   3.541511   0.316468
    12  O    0.000000   0.000066   0.000066   0.000000   0.316468   8.156884
    13  H    0.000000  -0.000006  -0.000006   0.000000  -0.017458   0.224111
    14  O    0.000000   0.000059   0.000059   0.000000   0.317614  -0.034792
    15  H    0.000000  -0.000005  -0.000005   0.000000  -0.017437  -0.001772
    16  C   -0.004495  -0.000112  -0.000112  -0.004501  -0.000015   0.000000
    17  O    0.000188   0.000001   0.000001   0.000186   0.000000   0.000000
    18  C    0.000304   0.000004   0.000004   0.000301   0.000000   0.000000
    19  H   -0.000003   0.000000   0.000000   0.000332   0.000000   0.000000
    20  H    0.000328   0.000000   0.000000  -0.000003   0.000000   0.000000
    21  H   -0.000022   0.000000   0.000000  -0.000022   0.000000   0.000000
              13         14         15         16         17         18
     1  C    0.000002  -0.000002   0.000002  -0.031047  -0.000010   0.000283
     2  C    0.000020   0.000196   0.000023   0.005885   0.000075   0.000020
     3  C    0.004311  -0.039313   0.004314  -0.000344  -0.000015  -0.000033
     4  C    0.000021   0.000195   0.000022   0.005883   0.000074   0.000021
     5  C    0.000002  -0.000002   0.000002  -0.031032  -0.000010   0.000340
     6  C    0.000000  -0.000001   0.000000   0.126007  -0.114333  -0.162505
     7  H    0.000000   0.000000   0.000000  -0.004495   0.000188   0.000304
     8  H   -0.000006   0.000059  -0.000005  -0.000112   0.000001   0.000004
     9  H   -0.000006   0.000059  -0.000005  -0.000112   0.000001   0.000004
    10  H    0.000000   0.000000   0.000000  -0.004501   0.000186   0.000301
    11  B   -0.017458   0.317614  -0.017437  -0.000015   0.000000   0.000000
    12  O    0.224111  -0.034792  -0.001772   0.000000   0.000000   0.000000
    13  H    0.428103  -0.001732   0.002579   0.000000   0.000000   0.000000
    14  O   -0.001732   8.153702   0.223938   0.000000   0.000000   0.000000
    15  H    0.002579   0.223938   0.428411   0.000000   0.000000   0.000000
    16  C    0.000000   0.000000   0.000000   4.947783   0.540659   0.253163
    17  O    0.000000   0.000000   0.000000   0.540659   8.059909  -0.109270
    18  C    0.000000   0.000000   0.000000   0.253163  -0.109270   5.427252
    19  H    0.000000   0.000000   0.000000  -0.023973   0.002090   0.351638
    20  H    0.000000   0.000000   0.000000  -0.023948   0.002124   0.351379
    21  H    0.000000   0.000000   0.000000  -0.021594   0.006017   0.347978
              19         20         21
     1  C    0.000127   0.000687  -0.000055
     2  C   -0.000002  -0.000028   0.000001
     3  C    0.000002   0.000002   0.000000
     4  C   -0.000027  -0.000002   0.000001
     5  C    0.000682   0.000126  -0.000056
     6  C    0.004829   0.004908   0.006894
     7  H   -0.000003   0.000328  -0.000022
     8  H    0.000000   0.000000   0.000000
     9  H    0.000000   0.000000   0.000000
    10  H    0.000332  -0.000003  -0.000022
    11  B    0.000000   0.000000   0.000000
    12  O    0.000000   0.000000   0.000000
    13  H    0.000000   0.000000   0.000000
    14  O    0.000000   0.000000   0.000000
    15  H    0.000000   0.000000   0.000000
    16  C   -0.023973  -0.023948  -0.021594
    17  O    0.002090   0.002124   0.006017
    18  C    0.351638   0.351379   0.347978
    19  H    0.546483  -0.024679  -0.024697
    20  H   -0.024679   0.546888  -0.024778
    21  H   -0.024697  -0.024778   0.533788
 Mulliken charges:
               1
     1  C   -0.118439
     2  C   -0.172812
     3  C   -0.049675
     4  C   -0.172719
     5  C   -0.118390
     6  C    0.026292
     7  H    0.142215
     8  H    0.138389
     9  H    0.138391
    10  H    0.142179
    11  B    0.642635
    12  O   -0.622088
    13  H    0.360053
    14  O   -0.619921
    15  H    0.359927
    16  C    0.261792
    17  O   -0.387686
    18  C   -0.460882
    19  H    0.167198
    20  H    0.166996
    21  H    0.176544
 Sum of Mulliken charges =   0.00000
 Mulliken charges with hydrogens summed into heavy atoms:
               1
     1  C    0.023776
     2  C   -0.034423
     3  C   -0.049675
     4  C   -0.034328
     5  C    0.023789
     6  C    0.026292
    11  B    0.642635
    12  O   -0.262034
    14  O   -0.259994
    16  C    0.261792
    17  O   -0.387686
    18  C    0.049856
 Electronic spatial extent (au):  <R**2>=           3019.6886
 Charge=              0.0000 electrons
 Dipole moment (field-independent basis, Debye):
    X=              3.6672    Y=              0.0028    Z=             -2.6449  Tot=              4.5215
 Quadrupole moment (field-independent basis, Debye-Ang):
   XX=            -48.8091   YY=            -63.0252   ZZ=            -80.1834
   XY=              1.8387   XZ=              9.0113   YZ=             -1.3424
 Traceless Quadrupole moment (field-independent basis, Debye-Ang):
   XX=             15.1968   YY=              0.9806   ZZ=            -16.1775
   XY=              1.8387   XZ=              9.0113   YZ=             -1.3424
 Octapole moment (field-independent basis, Debye-Ang**2):
  XXX=            114.6936  YYY=            -94.6037  ZZZ=              8.9532  XYY=            -30.5269
  XXY=            -24.3634  XXZ=            -23.9917  XZZ=            -50.1490  YZZ=            -40.1153
  YYZ=              3.3048  XYZ=              4.4569
 Hexadecapole moment (field-independent basis, Debye-Ang**3):
 XXXX=          -1871.6677 YYYY=           -394.0368 ZZZZ=           -350.1333 XXXY=             57.7161
 XXXZ=             49.3964 YYYX=            -46.6874 YYYZ=              5.6572 ZZZX=            -33.9441
 ZZZY=              4.5477 XXYY=           -559.9056 XXZZ=           -654.2499 YYZZ=           -133.4443
 XXYZ=            -12.2939 YYXZ=            -11.9362 ZZXY=            -25.0628
 N-N= 6.080175834161D+02 E-N=-2.525260221928D+03  KE= 5.570554338211D+02
 Calling FoFJK, ICntrl=      2127 FMM=F ISym2X=0 I1Cent= 0 IOpClX= 0 NMat=1 NMatS=1 NMatT=0.
 -------------------------------------------------------------------
 Center     Atomic                   Forces (Hartrees/Bohr)
 Number     Number              X              Y              Z
 -------------------------------------------------------------------
      1        6          -0.004650462   -0.014865890   -0.000276507
      2        6           0.001365566   -0.013481386    0.000424041
      3        6           0.058218524    0.000393293   -0.000059761
      4        6           0.001785749    0.013043194    0.000323779
      5        6          -0.004900696    0.014863808   -0.000266333
      6        6          -0.025731461    0.000132910   -0.006323625
      7        1           0.004445975    0.007894612    0.000180777
      8        1          -0.005719100    0.007879470    0.000057885
      9        1          -0.005782177   -0.007871333    0.000089572
     10        1           0.004511789   -0.007959299    0.000194201
     11        5           0.023084318   -0.000005241    0.000355395
     12        8          -0.053485660    0.000030314    0.069365514
     13        1           0.020713647    0.000017062   -0.003616447
     14        8          -0.053565849   -0.000028274   -0.069883819
     15        1           0.020762671   -0.000012990    0.003693661
     16        6          -0.009177380   -0.000016822    0.016567092
     17        8           0.013871692   -0.000004156   -0.019202965
     18        6           0.016740211   -0.000120453    0.027457182
     19        1           0.005996755    0.013356327   -0.011965226
     20        1           0.006103690   -0.013208664   -0.012049607
     21        1          -0.014587801   -0.000036483    0.004935191
 -------------------------------------------------------------------
 Cartesian Forces:  Max     0.069883819 RMS     0.019937799

 GradGradGradGradGradGradGradGradGradGradGradGradGradGradGradGradGradGrad
 Berny optimization.
 FormGI is forming the generalized inverse of G from B-inverse, IUseBI=4.
 Internal  Forces:  Max     0.073727996 RMS     0.013283719
 Search for a local minimum.
 Step number   1 out of a maximum of  105
 All quantities printed in internal units (Hartrees-Bohrs-Radians)
 Mixed Optimization -- RFO/linear search
 Second derivative matrix not updated -- first step.
 ITU=  0
     Eigenvalues ---    0.00230   0.00237   0.00237   0.00237   0.00300
     Eigenvalues ---    0.00369   0.00369   0.01514   0.01617   0.02152
     Eigenvalues ---    0.02153   0.02155   0.02155   0.02155   0.02156
     Eigenvalues ---    0.02157   0.07243   0.07243   0.16000   0.16000
     Eigenvalues ---    0.16000   0.16000   0.16000   0.16000   0.16000
     Eigenvalues ---    0.16000   0.16000   0.20635   0.22000   0.22982
     Eigenvalues ---    0.24000   0.25000   0.25000   0.25000   0.25000
     Eigenvalues ---    0.25000   0.25000   0.28519   0.28519   0.28519
     Eigenvalues ---    0.28519   0.33709   0.33718   0.33720   0.33725
     Eigenvalues ---    0.37230   0.37230   0.37230   0.42116   0.42487
     Eigenvalues ---    0.46412   0.46453   0.46466   0.46497   0.55473
     Eigenvalues ---    0.55473   0.80209
 RFO step:  Lambda=-4.95101866D-02 EMin= 2.30000000D-03
 Linear search not attempted -- first point.
 Maximum step size (   0.300) exceeded in Quadratic search.
    -- Step size scaled by   0.767
 Iteration  1 RMS(Cart)=  0.05079175 RMS(Int)=  0.00036786
 Iteration  2 RMS(Cart)=  0.00042769 RMS(Int)=  0.00000469
 Iteration  3 RMS(Cart)=  0.00000026 RMS(Int)=  0.00000469
 Variable       Old X    -DE/DX   Delta X   Delta X   Delta X     New X
                                 (Linear)    (Quad)   (Total)
    R1        2.63647   0.00362   0.00000   0.00542   0.00542   2.64189
    R2        2.63584   0.00642   0.00000   0.00942   0.00941   2.64526
    R3        2.07796  -0.00906   0.00000  -0.01798  -0.01798   2.05999
    R4        2.63562   0.01016   0.00000   0.01532   0.01533   2.65095
    R5        2.07805  -0.00968   0.00000  -0.01921  -0.01921   2.05883
    R6        2.63697   0.00971   0.00000   0.01467   0.01468   2.65166
    R7        3.11805  -0.04249   0.00000  -0.12744  -0.12744   2.99061
    R8        2.63584   0.00376   0.00000   0.00560   0.00560   2.64144
    R9        2.07809  -0.00971   0.00000  -0.01927  -0.01927   2.05883
   R10        2.63643   0.00631   0.00000   0.00925   0.00925   2.64568
   R11        2.07825  -0.00915   0.00000  -0.01816  -0.01816   2.06009
   R12        2.91018  -0.01895   0.00000  -0.04344  -0.04344   2.86674
   R13        2.91018  -0.07332   0.00000  -0.16811  -0.16811   2.74207
   R14        2.91018  -0.07373   0.00000  -0.16904  -0.16904   2.74114
   R15        1.81414   0.01970   0.00000   0.02502   0.02502   1.83916
   R16        1.81414   0.01975   0.00000   0.02508   0.02508   1.83922
   R17        2.37803  -0.02358   0.00000  -0.02124  -0.02124   2.35679
   R18        2.91018  -0.01437   0.00000  -0.03294  -0.03294   2.87724
   R19        2.02201   0.01861   0.00000   0.03386   0.03386   2.05587
   R20        2.02201   0.01859   0.00000   0.03383   0.03383   2.05583
   R21        2.02201   0.01524   0.00000   0.02773   0.02773   2.04973
    A1        2.09437   0.00019   0.00000   0.00001   0.00000   2.09437
    A2        2.09435   0.00001   0.00000   0.00036   0.00036   2.09471
    A3        2.09447  -0.00019   0.00000  -0.00037  -0.00037   2.09410
    A4        2.09455   0.00210   0.00000   0.00610   0.00610   2.10065
    A5        2.09406  -0.00211   0.00000  -0.00692  -0.00692   2.08714
    A6        2.09458   0.00000   0.00000   0.00082   0.00082   2.09540
    A7        2.09429  -0.00447   0.00000  -0.01109  -0.01107   2.08322
    A8        2.09462   0.00223   0.00000   0.00554   0.00554   2.10016
    A9        2.09427   0.00223   0.00000   0.00554   0.00553   2.09981
   A10        2.09429   0.00216   0.00000   0.00620   0.00621   2.10050
   A11        2.09407   0.00003   0.00000   0.00096   0.00096   2.09502
   A12        2.09483  -0.00219   0.00000  -0.00717  -0.00717   2.08766
   A13        2.09448   0.00020   0.00000   0.00000  -0.00001   2.09447
   A14        2.09459  -0.00002   0.00000   0.00029   0.00029   2.09488
   A15        2.09411  -0.00018   0.00000  -0.00028  -0.00028   2.09383
   A16        2.09440  -0.00018   0.00000  -0.00122  -0.00124   2.09316
   A17        2.09453   0.00007   0.00000   0.00057   0.00057   2.09511
   A18        2.09426   0.00010   0.00000   0.00065   0.00066   2.09491
   A19        2.09440  -0.00011   0.00000  -0.00029  -0.00029   2.09410
   A20        2.09440   0.00010   0.00000   0.00026   0.00026   2.09466
   A21        2.09440   0.00001   0.00000   0.00003   0.00003   2.09443
   A22        1.91114   0.01332   0.00000   0.04879   0.04879   1.95993
   A23        1.91114   0.01343   0.00000   0.04919   0.04919   1.96033
   A24        2.09836   0.00311   0.00000   0.00798   0.00798   2.10634
   A25        2.09241  -0.01174   0.00000  -0.03007  -0.03007   2.06235
   A26        2.09241   0.00862   0.00000   0.02209   0.02209   2.11450
   A27        1.91063   0.00164   0.00000   0.00513   0.00514   1.91577
   A28        1.91063   0.00169   0.00000   0.00535   0.00536   1.91600
   A29        1.91063  -0.00301   0.00000  -0.00931  -0.00930   1.90134
   A30        1.91063  -0.00328   0.00000  -0.01544  -0.01543   1.89520
   A31        1.91063   0.00147   0.00000   0.00704   0.00705   1.91768
   A32        1.91063   0.00149   0.00000   0.00723   0.00724   1.91787
    D1        0.00056  -0.00007   0.00000  -0.00073  -0.00074  -0.00017
    D2        3.14078  -0.00007   0.00000  -0.00070  -0.00070   3.14008
    D3       -3.14112   0.00015   0.00000   0.00170   0.00170  -3.13942
    D4       -0.00091   0.00016   0.00000   0.00174   0.00173   0.00083
    D5        0.00026   0.00002   0.00000  -0.00003  -0.00003   0.00023
    D6        3.14140   0.00042   0.00000   0.00474   0.00474  -3.13704
    D7       -3.14124  -0.00021   0.00000  -0.00246  -0.00246   3.13948
    D8       -0.00010   0.00019   0.00000   0.00231   0.00230   0.00221
    D9       -0.00099   0.00012   0.00000   0.00137   0.00137   0.00038
   D10        3.14093   0.00010   0.00000   0.00106   0.00106  -3.14120
   D11       -3.14120   0.00012   0.00000   0.00134   0.00134  -3.13986
   D12        0.00072   0.00009   0.00000   0.00103   0.00103   0.00174
   D13        0.00060  -0.00011   0.00000  -0.00124  -0.00124  -0.00065
   D14       -3.14153  -0.00013   0.00000  -0.00148  -0.00147   3.14018
   D15       -3.14132  -0.00009   0.00000  -0.00093  -0.00093   3.14093
   D16       -0.00026  -0.00011   0.00000  -0.00116  -0.00116  -0.00143
   D17        1.57058   0.00001   0.00000   0.00017   0.00017   1.57075
   D18       -1.57102   0.00001   0.00000   0.00017   0.00017  -1.57085
   D19       -1.57069  -0.00001   0.00000  -0.00014  -0.00014  -1.57083
   D20        1.57090  -0.00001   0.00000  -0.00014  -0.00014   1.57076
   D21        0.00023   0.00005   0.00000   0.00048   0.00048   0.00071
   D22       -3.14158  -0.00017   0.00000  -0.00184  -0.00184   3.13977
   D23       -3.14083   0.00007   0.00000   0.00071   0.00071  -3.14012
   D24        0.00054  -0.00015   0.00000  -0.00161  -0.00161  -0.00107
   D25       -0.00066   0.00000   0.00000   0.00016   0.00016  -0.00050
   D26        3.14138  -0.00041   0.00000  -0.00461  -0.00461   3.13678
   D27        3.14116   0.00021   0.00000   0.00247   0.00247  -3.13955
   D28        0.00001  -0.00019   0.00000  -0.00229  -0.00229  -0.00228
   D29        1.56998  -0.00021   0.00000  -0.00243  -0.00243   1.56755
   D30       -1.57162  -0.00021   0.00000  -0.00252  -0.00252  -1.57414
   D31       -1.57206   0.00020   0.00000   0.00234   0.00234  -1.56972
   D32        1.56953   0.00019   0.00000   0.00224   0.00225   1.57178
   D33        3.13923   0.00002   0.00000   0.00025   0.00025   3.13948
   D34       -0.00237   0.00002   0.00000   0.00026   0.00026  -0.00211
   D35        3.14006   0.00001   0.00000   0.00010   0.00010   3.14016
   D36       -0.00153   0.00001   0.00000   0.00010   0.00010  -0.00143
   D37       -1.05219   0.00099   0.00000   0.00633   0.00633  -1.04586
   D38        1.04221  -0.00099   0.00000  -0.00615  -0.00615   1.03606
   D39        3.13660   0.00003   0.00000   0.00027   0.00027   3.13688
   D40        2.08940   0.00099   0.00000   0.00624   0.00623   2.09564
   D41       -2.09939  -0.00100   0.00000  -0.00625  -0.00624  -2.10563
   D42       -0.00499   0.00002   0.00000   0.00018   0.00018  -0.00481
         Item               Value     Threshold  Converged?
 Maximum Force            0.073728     0.000450     NO 
 RMS     Force            0.013284     0.000300     NO 
 Maximum Displacement     0.186219     0.001800     NO 
 RMS     Displacement     0.050896     0.001200     NO 
 Predicted change in Energy=-2.565031D-02
 GradGradGradGradGradGradGradGradGradGradGradGradGradGradGradGradGradGrad

                          Input orientation:                          
 ---------------------------------------------------------------------
 Center     Atomic      Atomic             Coordinates (Angstroms)
 Number     Number       Type             X           Y           Z
 ---------------------------------------------------------------------
      1          6           0       -0.259690   -0.711701    0.003355
      2          6           0        1.138331   -0.710857   -0.000067
      3          6           0        1.846592    0.500040   -0.002720
      4          6           0        1.138295    1.711351   -0.001445
      5          6           0       -0.259489    1.712168    0.001649
      6          6           0       -0.960297    0.500166    0.004356
      7          1           0       -0.804460   -1.655905    0.007454
      8          1           0        1.676790   -1.657981    0.000609
      9          1           0        1.677222    2.658205   -0.002146
     10          1           0       -0.804466    2.656319    0.004352
     11          5           0        3.429147    0.500214   -0.007125
     12          8           0        4.150797    0.499528   -1.265987
     13          1           0        5.115648    0.501617   -1.138482
     14          8           0        4.158241    0.501064    1.246870
     15          1           0        5.122377    0.499804    1.113843
     16          6           0       -2.477277    0.500380    0.014041
     17          8           0       -3.106849    0.500058    1.090630
     18          6           0       -3.204475    0.501123   -1.323643
     19          1           0       -2.929272    1.387324   -1.891516
     20          1           0       -2.922072   -0.379459   -1.896664
     21          1           0       -4.273976    0.496353   -1.142929
 ---------------------------------------------------------------------
                    Distance matrix (angstroms):
                    1          2          3          4          5
     1  C    0.000000
     2  C    1.398026   0.000000
     3  C    2.429975   1.402824   0.000000
     4  C    2.797421   2.422209   1.403196   0.000000
     5  C    2.423869   2.797312   2.429990   1.397787   0.000000
     6  C    1.399811   2.422981   2.806898   2.423033   1.400032
     7  H    1.090098   2.160465   3.417057   3.887517   3.411883
     8  H    2.155321   1.089487   2.164694   3.412093   3.886784
     9  H    3.886891   3.411890   2.164801   1.089485   2.155423
    10  H    3.411794   3.887462   3.417265   2.160398   1.090151
    11  B    3.882830   2.591251   1.582561   2.591310   3.882647
    12  O    4.746652   3.484615   2.627776   3.484645   4.746370
    13  H    5.627628   4.311048   3.460735   4.309948   5.626494
    14  O    4.747131   3.484748   2.627775   3.484704   4.746967
    15  H    5.627395   4.310351   3.460850   4.310989   5.627725
    16  C    2.527241   3.813124   4.323902   3.813011   2.527285
    17  O    3.279762   4.547250   5.072671   4.547648   3.280632
    18  C    3.450162   4.699012   5.220931   4.698139   3.449054
    19  H    3.888844   4.952306   5.211880   4.496939   3.288972
    20  H    3.287664   4.493749   5.205833   4.944686   3.881732
    21  H    4.346015   5.661851   6.225869   5.663204   4.347916
                    6          7          8          9         10
     6  C    0.000000
     7  H    2.161698   0.000000
     8  H    3.407615   2.481260   0.000000
     9  H    3.407885   4.976986   4.316188   0.000000
    10  H    2.161777   4.312226   4.976930   2.481697   0.000000
    11  B    4.389459   4.751051   2.780040   2.779603   4.751042
    12  O    5.266598   5.551767   3.518497   3.517920   5.551589
    13  H    6.182491   6.404354   4.217481   4.214844   6.402856
    14  O    5.267189   5.551313   3.517421   3.516925   5.551346
    15  H    6.183032   6.403013   4.215139   4.215830   6.403827
    16  C    1.517011   2.729089   4.681343   4.681489   2.728822
    17  O    2.405759   3.335032   5.359895   5.360886   3.336230
    18  C    2.607665   3.490653   5.499284   5.498211   3.488336
    19  H    2.873716   4.169191   5.836936   5.138545   3.117605
    20  H    2.869874   3.120779   5.136516   5.828388   4.161017
    21  H    3.506672   4.241832   6.431209   6.433642   4.244904
                   11         12         13         14         15
    11  B    0.000000
    12  O    1.451038   0.000000
    13  H    2.030827   0.973242   0.000000
    14  O    1.450546   2.512869   2.570318   0.000000
    15  H    2.030665   2.570517   2.252335   0.973271   0.000000
    16  C    5.906462   6.750544   7.679898   6.749072   7.678823
    17  O    6.627542   7.630667   8.519296   7.266770   8.229259
    18  C    6.762999   7.355498   8.322183   7.798534   8.676278
    19  H    6.690843   7.162880   8.128485   7.801780   8.639961
    20  H    6.684472   7.155128   8.121335   7.796664   8.634201
    21  H    7.786409   8.425672   9.389627   8.764328   9.663565
                   16         17         18         19         20
    16  C    0.000000
    17  O    1.247158   0.000000
    18  C    1.522569   2.416246   0.000000
    19  H    2.149912   3.116403   1.087920   0.000000
    20  H    2.150059   3.119554   1.087900   1.766805   0.000000
    21  H    2.136989   2.520116   1.084672   1.778325   1.778428
                   21
    21  H    0.000000
 Symmetry turned off by external request.
 Stoichiometry    C8H9BO3
 Framework group  C1[X(C8H9BO3)]
 Deg. of freedom    57
 Full point group                 C1      NOp   1
 Rotational constants (GHZ):      2.6291961      0.4015807      0.3982109
 Standard basis: 6-31G (6D, 7F)
   126 basis functions,   300 primitive gaussians,   126 cartesian basis functions
    43 alpha electrons       43 beta electrons
       nuclear repulsion energy       616.0659432116 Hartrees.
 NAtoms=   21 NActive=   21 NUniq=   21 SFac= 1.00D+00 NAtFMM=   60 NAOKFM=F Big=F
 Integral buffers will be    131072 words long.
 Raffenetti 2 integral format.
 Two-electron integral symmetry is turned off.
 Nuclear repulsion after empirical dispersion term =      616.0505890042 Hartrees.
 One-electron integrals computed using PRISM.
 NBasis=   126 RedAO= T EigKep=  6.32D-04  NBF=   126
 NBsUse=   126 1.00D-06 EigRej= -1.00D+00 NBFU=   126
 Initial guess from the checkpoint file:  "E:\PROJECT- VIT group\ML\Substrates\molecule_8.chk"
 B after Tr=    -0.014332   -0.000053    0.002164
         Rot=    1.000000    0.000003   -0.000835   -0.000008 Ang=   0.10 deg.
 ExpMin= 1.27D-01 ExpMax= 5.48D+03 ExpMxC= 8.25D+02 IAcc=1 IRadAn=         1 AccDes= 0.00D+00
 Harris functional with IExCor=  402 and IRadAn=       1 diagonalized for initial guess.
 HarFok:  IExCor=  402 AccDes= 0.00D+00 IRadAn=         1 IDoV= 1 UseB2=F ITyADJ=14
 ICtDFT=  3500011 ScaDFX=  1.000000  1.000000  1.000000  1.000000
 FoFCou: FMM=F IPFlag=           0 FMFlag=      100000 FMFlg1=           0
         NFxFlg=           0 DoJE=T BraDBF=F KetDBF=T FulRan=T
         wScrn=  0.000000 ICntrl=     500 IOpCl=  0 I1Cent=   200000004 NGrid=           0
         NMat0=    1 NMatS0=      1 NMatT0=    0 NMatD0=    1 NMtDS0=    0 NMtDT0=    0
 Symmetry not used in FoFCou.
 Keep R1 ints in memory in canonical form, NReq=33103861.
 Requested convergence on RMS density matrix=1.00D-08 within 128 cycles.
 Requested convergence on MAX density matrix=1.00D-06.
 Requested convergence on             energy=1.00D-06.
 No special actions if energy rises.
 Integral accuracy reduced to 1.0D-05 until final iterations.
 Initial convergence to 1.0D-05 achieved.  Increase integral accuracy.
 SCF Done:  E(RB3LYP) =  -560.742496274     A.U. after   13 cycles
            NFock= 13  Conv=0.48D-08     -V/T= 2.0060
 Calling FoFJK, ICntrl=      2127 FMM=F ISym2X=0 I1Cent= 0 IOpClX= 0 NMat=1 NMatS=1 NMatT=0.
 -------------------------------------------------------------------
 Center     Atomic                   Forces (Hartrees/Bohr)
 Number     Number              X              Y              Z
 -------------------------------------------------------------------
      1        6           0.000160299   -0.004888940   -0.000190869
      2        6          -0.002728317   -0.002529435    0.000197868
      3        6           0.024234687    0.000179363   -0.000092989
      4        6          -0.002488194    0.002304935    0.000135928
      5        6          -0.000024344    0.004859610   -0.000182000
      6        6          -0.010461577    0.000102271   -0.003636047
      7        1           0.001282049    0.002531932    0.000166105
      8        1          -0.001676680    0.002301877    0.000052820
      9        1          -0.001714800   -0.002283237    0.000070714
     10        1           0.001311979   -0.002549831    0.000171222
     11        5           0.017096468   -0.000012273    0.000167641
     12        8          -0.021382765    0.000052964    0.037894794
     13        1           0.005703502   -0.000021705   -0.006808131
     14        8          -0.021648314   -0.000036614   -0.038101983
     15        1           0.005738068    0.000013108    0.006846779
     16        6          -0.002532541   -0.000005155    0.006635162
     17        8           0.004077231   -0.000011477   -0.006602832
     18        6           0.005549308   -0.000080487    0.012517165
     19        1           0.002229146    0.003513310   -0.004734627
     20        1           0.002251129   -0.003448440   -0.004752878
     21        1          -0.004976332    0.000008228    0.000246159
 -------------------------------------------------------------------
 Cartesian Forces:  Max     0.038101983 RMS     0.009328705

 GradGradGradGradGradGradGradGradGradGradGradGradGradGradGradGradGradGrad
 Berny optimization.
 Using GEDIIS/GDIIS optimizer.
 FormGI is forming the generalized inverse of G from B-inverse, IUseBI=4.
 Internal  Forces:  Max     0.035018631 RMS     0.006095335
 Search for a local minimum.
 Step number   2 out of a maximum of  105
 All quantities printed in internal units (Hartrees-Bohrs-Radians)
 Mixed Optimization -- RFO/linear search
 Update second derivatives using D2CorX and points    1    2
 DE= -2.83D-02 DEPred=-2.57D-02 R= 1.10D+00
 TightC=F SS=  1.41D+00  RLast= 3.00D-01 DXNew= 5.0454D-01 9.0134D-01
 Trust test= 1.10D+00 RLast= 3.00D-01 DXMaxT set to 5.05D-01
 ITU=  1  0
 Use linear search instead of GDIIS.
     Eigenvalues ---    0.00230   0.00237   0.00237   0.00237   0.00300
     Eigenvalues ---    0.00369   0.00369   0.01510   0.01614   0.02152
     Eigenvalues ---    0.02153   0.02155   0.02155   0.02155   0.02156
     Eigenvalues ---    0.02157   0.07206   0.07255   0.13950   0.16000
     Eigenvalues ---    0.16000   0.16000   0.16000   0.16000   0.16000
     Eigenvalues ---    0.16000   0.16035   0.21480   0.22000   0.22613
     Eigenvalues ---    0.23186   0.24291   0.25000   0.25000   0.25000
     Eigenvalues ---    0.25000   0.25080   0.27252   0.28519   0.28519
     Eigenvalues ---    0.28851   0.33711   0.33719   0.33724   0.33950
     Eigenvalues ---    0.37230   0.37230   0.37722   0.42123   0.42523
     Eigenvalues ---    0.46426   0.46456   0.46462   0.46591   0.55473
     Eigenvalues ---    0.56164   0.80265
 RFO step:  Lambda=-3.29873015D-03 EMin= 2.30000000D-03
 Quartic linear search produced a step of  0.60857.
 Iteration  1 RMS(Cart)=  0.04017036 RMS(Int)=  0.00209917
 Iteration  2 RMS(Cart)=  0.00186558 RMS(Int)=  0.00002645
 Iteration  3 RMS(Cart)=  0.00000318 RMS(Int)=  0.00002639
 Iteration  4 RMS(Cart)=  0.00000000 RMS(Int)=  0.00002639
 Variable       Old X    -DE/DX   Delta X   Delta X   Delta X     New X
                                 (Linear)    (Quad)   (Total)
    R1        2.64189   0.00051   0.00330  -0.00300   0.00029   2.64218
    R2        2.64526   0.00199   0.00573  -0.00156   0.00415   2.64941
    R3        2.05999  -0.00283  -0.01094   0.00372  -0.00722   2.05277
    R4        2.65095   0.00371   0.00933  -0.00069   0.00866   2.65961
    R5        2.05883  -0.00283  -0.01169   0.00492  -0.00678   2.05205
    R6        2.65166   0.00351   0.00893  -0.00078   0.00817   2.65983
    R7        2.99061  -0.01449  -0.07756   0.03043  -0.04713   2.94348
    R8        2.64144   0.00062   0.00341  -0.00281   0.00060   2.64204
    R9        2.05883  -0.00283  -0.01172   0.00495  -0.00678   2.05205
   R10        2.64568   0.00190   0.00563  -0.00173   0.00388   2.64955
   R11        2.06009  -0.00286  -0.01105   0.00375  -0.00730   2.05278
   R12        2.86674  -0.00658  -0.02644   0.00668  -0.01976   2.84698
   R13        2.74207  -0.03477  -0.10231  -0.02605  -0.12836   2.61370
   R14        2.74114  -0.03502  -0.10287  -0.02654  -0.12941   2.61173
   R15        1.83916   0.00476   0.01523  -0.00758   0.00764   1.84680
   R16        1.83922   0.00475   0.01526  -0.00767   0.00759   1.84681
   R17        2.35679  -0.00776  -0.01293   0.00159  -0.01134   2.34544
   R18        2.87724  -0.00529  -0.02005   0.00335  -0.01670   2.86054
   R19        2.05587   0.00590   0.02061  -0.00616   0.01445   2.07032
   R20        2.05583   0.00588   0.02059  -0.00620   0.01438   2.07022
   R21        2.04973   0.00495   0.01687  -0.00453   0.01234   2.06208
    A1        2.09437   0.00050   0.00000   0.00268   0.00266   2.09703
    A2        2.09471  -0.00009   0.00022  -0.00022   0.00001   2.09472
    A3        2.09410  -0.00041  -0.00022  -0.00246  -0.00268   2.09143
    A4        2.10065   0.00227   0.00371   0.00919   0.01293   2.11358
    A5        2.08714  -0.00146  -0.00421  -0.00309  -0.00731   2.07983
    A6        2.09540  -0.00080   0.00050  -0.00611  -0.00562   2.08978
    A7        2.08322  -0.00420  -0.00674  -0.01540  -0.02210   2.06112
    A8        2.10016   0.00209   0.00337   0.00764   0.01099   2.11115
    A9        2.09981   0.00211   0.00337   0.00776   0.01111   2.11091
   A10        2.10050   0.00230   0.00378   0.00925   0.01305   2.11355
   A11        2.09502  -0.00078   0.00058  -0.00596  -0.00539   2.08964
   A12        2.08766  -0.00152  -0.00436  -0.00329  -0.00766   2.08000
   A13        2.09447   0.00049  -0.00001   0.00259   0.00257   2.09704
   A14        2.09488  -0.00010   0.00018  -0.00024  -0.00006   2.09483
   A15        2.09383  -0.00039  -0.00017  -0.00235  -0.00252   2.09132
   A16        2.09316  -0.00136  -0.00075  -0.00831  -0.00911   2.08405
   A17        2.09511   0.00067   0.00035   0.00414   0.00450   2.09961
   A18        2.09491   0.00069   0.00040   0.00421   0.00462   2.09953
   A19        2.09410  -0.00295  -0.00018  -0.01841  -0.01859   2.07552
   A20        2.09466  -0.00280   0.00016  -0.01803  -0.01787   2.07678
   A21        2.09443   0.00575   0.00002   0.03644   0.03646   2.13089
   A22        1.95993   0.01379   0.02969   0.07576   0.10545   2.06538
   A23        1.96033   0.01391   0.02994   0.07650   0.10644   2.06676
   A24        2.10634   0.00280   0.00486   0.00950   0.01435   2.12069
   A25        2.06235  -0.00605  -0.01830  -0.00714  -0.02544   2.03691
   A26        2.11450   0.00325   0.01344  -0.00236   0.01108   2.12559
   A27        1.91577   0.00102   0.00313   0.00155   0.00462   1.92039
   A28        1.91600   0.00105   0.00326   0.00159   0.00479   1.92079
   A29        1.90134   0.00095  -0.00566   0.02500   0.01922   1.92056
   A30        1.89520  -0.00252  -0.00939  -0.01431  -0.02370   1.87150
   A31        1.91768  -0.00026   0.00429  -0.00704  -0.00286   1.91482
   A32        1.91787  -0.00024   0.00441  -0.00697  -0.00268   1.91520
    D1       -0.00017  -0.00003  -0.00045   0.00074   0.00029   0.00012
    D2        3.14008  -0.00004  -0.00043   0.00019  -0.00023   3.13984
    D3       -3.13942   0.00011   0.00103  -0.00038   0.00065  -3.13877
    D4        0.00083   0.00010   0.00106  -0.00093   0.00013   0.00095
    D5        0.00023  -0.00002  -0.00002  -0.00047  -0.00049  -0.00026
    D6       -3.13704   0.00019   0.00288  -0.00837  -0.00548   3.14066
    D7        3.13948  -0.00016  -0.00150   0.00066  -0.00085   3.13863
    D8        0.00221   0.00005   0.00140  -0.00725  -0.00584  -0.00363
    D9        0.00038   0.00008   0.00083  -0.00096  -0.00013   0.00025
   D10       -3.14120   0.00006   0.00064  -0.00038   0.00026  -3.14095
   D11       -3.13986   0.00008   0.00082  -0.00041   0.00040  -3.13946
   D12        0.00174   0.00007   0.00062   0.00016   0.00079   0.00253
   D13       -0.00065  -0.00007  -0.00076   0.00091   0.00016  -0.00049
   D14        3.14018  -0.00009  -0.00090   0.00042  -0.00048   3.13970
   D15        3.14093  -0.00005  -0.00057   0.00034  -0.00023   3.14071
   D16       -0.00143  -0.00008  -0.00071  -0.00016  -0.00086  -0.00229
   D17        1.57075   0.00001   0.00011  -0.00010   0.00000   1.57075
   D18       -1.57085   0.00001   0.00010  -0.00023  -0.00013  -1.57098
   D19       -1.57083  -0.00001  -0.00008   0.00048   0.00040  -1.57043
   D20        1.57076  -0.00001  -0.00009   0.00035   0.00027   1.57102
   D21        0.00071   0.00002   0.00029  -0.00064  -0.00035   0.00036
   D22        3.13977  -0.00011  -0.00112   0.00041  -0.00071   3.13905
   D23       -3.14012   0.00004   0.00043  -0.00015   0.00028  -3.13984
   D24       -0.00107  -0.00009  -0.00098   0.00090  -0.00008  -0.00115
   D25       -0.00050   0.00002   0.00010   0.00042   0.00052   0.00003
   D26        3.13678  -0.00018  -0.00280   0.00832   0.00551  -3.14090
   D27       -3.13955   0.00016   0.00151  -0.00063   0.00088  -3.13868
   D28       -0.00228  -0.00005  -0.00140   0.00727   0.00587   0.00359
   D29        1.56755  -0.00011  -0.00148   0.00338   0.00191   1.56946
   D30       -1.57414  -0.00011  -0.00154   0.00371   0.00218  -1.57195
   D31       -1.56972   0.00010   0.00143  -0.00450  -0.00309  -1.57281
   D32        1.57178   0.00010   0.00137  -0.00417  -0.00282   1.56896
   D33        3.13948   0.00002   0.00015   0.00080   0.00095   3.14043
   D34       -0.00211   0.00002   0.00016   0.00093   0.00109  -0.00102
   D35        3.14016   0.00001   0.00006   0.00077   0.00084   3.14100
   D36       -0.00143   0.00001   0.00006   0.00064   0.00070  -0.00073
   D37       -1.04586   0.00091   0.00385   0.00823   0.01213  -1.03373
   D38        1.03606  -0.00090  -0.00374  -0.00740  -0.01119   1.02487
   D39        3.13688   0.00002   0.00017   0.00048   0.00064   3.13752
   D40        2.09564   0.00091   0.00379   0.00856   0.01240   2.10804
   D41       -2.10563  -0.00091  -0.00380  -0.00707  -0.01091  -2.11654
   D42       -0.00481   0.00002   0.00011   0.00081   0.00092  -0.00389
         Item               Value     Threshold  Converged?
 Maximum Force            0.035019     0.000450     NO 
 RMS     Force            0.006095     0.000300     NO 
 Maximum Displacement     0.176054     0.001800     NO 
 RMS     Displacement     0.040911     0.001200     NO 
 Predicted change in Energy=-8.856788D-03
 GradGradGradGradGradGradGradGradGradGradGradGradGradGradGradGradGradGrad

                          Input orientation:                          
 ---------------------------------------------------------------------
 Center     Atomic      Atomic             Coordinates (Angstroms)
 Number     Number       Type             X           Y           Z
 ---------------------------------------------------------------------
      1          6           0       -0.257204   -0.710404    0.015384
      2          6           0        1.140926   -0.706870    0.003926
      3          6           0        1.864797    0.500092   -0.002918
      4          6           0        1.140896    1.707177    0.002412
      5          6           0       -0.257161    1.710724    0.013579
      6          6           0       -0.964453    0.500132    0.020117
      7          1           0       -0.798228   -1.652334    0.023185
      8          1           0        1.672522   -1.653750    0.002059
      9          1           0        1.672643    2.653967   -0.000869
     10          1           0       -0.798286    2.652616    0.019937
     11          5           0        3.422358    0.500248   -0.016545
     12          8           0        4.080563    0.499748   -1.233002
     13          1           0        5.057848    0.500850   -1.231646
     14          8           0        4.102754    0.501043    1.186437
     15          1           0        5.079871    0.500627    1.168097
     16          6           0       -2.470968    0.500203    0.031246
     17          8           0       -3.111758    0.499246    1.094192
     18          6           0       -3.161235    0.501252   -1.315944
     19          1           0       -2.863639    1.386052   -1.889378
     20          1           0       -2.857042   -0.377844   -1.894565
     21          1           0       -4.244088    0.497035   -1.181270
 ---------------------------------------------------------------------
                    Distance matrix (angstroms):
                    1          2          3          4          5
     1  C    0.000000
     2  C    1.398182   0.000000
     3  C    2.443057   1.407407   0.000000
     4  C    2.792767   2.414048   1.407521   0.000000
     5  C    2.421129   2.792759   2.443073   1.398105   0.000000
     6  C    1.402006   2.426879   2.829344   2.426884   1.402084
     7  H    1.086278   2.157451   3.424226   3.879040   3.406319
     8  H    2.148004   1.085900   2.162414   3.402714   3.878595
     9  H    3.878604   3.402642   2.162430   1.085899   2.148036
    10  H    3.406273   3.879040   3.424309   2.157449   1.086286
    11  B    3.873742   2.581179   1.557621   2.581106   3.873631
    12  O    4.673238   3.409894   2.534309   3.409659   4.672930
    13  H    5.592137   4.281063   3.421307   4.280261   5.591395
    14  O    4.674206   3.410251   2.534367   3.410173   4.674161
    15  H    5.592827   4.281195   3.421692   4.281368   5.592956
    16  C    2.523207   3.808353   4.335900   3.808303   2.523216
    17  O    3.282615   4.552881   5.096053   4.553696   3.283920
    18  C    3.416715   4.659421   5.194712   4.658395   3.415275
    19  H    3.849253   4.899129   5.167375   4.440528   3.243514
    20  H    3.243094   4.438048   5.161866   4.891762   3.842201
    21  H    4.334182   5.643798   6.221495   5.644784   4.335469
                    6          7          8          9         10
     6  C    0.000000
     7  H    2.158878   0.000000
     8  H    3.404875   2.470841   0.000000
     9  H    3.404955   4.964878   4.307718   0.000000
    10  H    2.158888   4.304952   4.964877   2.471017   0.000000
    11  B    4.386965   4.737989   2.775244   2.774934   4.737917
    12  O    5.198316   5.478326   3.458553   3.457874   5.477943
    13  H    6.151018   6.364309   4.198186   4.196467   6.363243
    14  O    5.199701   5.478122   3.457154   3.456909   5.478155
    15  H    6.152375   6.363813   4.196548   4.196732   6.364123
    16  C    1.506556   2.726086   4.669998   4.670037   2.725963
    17  O    2.400949   3.335982   5.358870   5.360268   3.338140
    18  C    2.571168   3.466266   5.454023   5.452520   3.463592
    19  H    2.835124   4.141934   5.778814   5.074636   3.084696
    20  H    2.831737   3.088819   5.073664   5.770269   4.133700
    21  H    3.492756   4.236089   6.405655   6.407293   4.238275
                   11         12         13         14         15
    11  B    0.000000
    12  O    1.383112   0.000000
    13  H    2.037473   0.977287   0.000000
    14  O    1.382066   2.419541   2.599871   0.000000
    15  H    2.037333   2.600749   2.399844   0.977289   0.000000
    16  C    5.893520   6.672397   7.634000   6.674451   7.635941
    17  O    6.627852   7.559452   8.494233   7.215103   8.191963
    18  C    6.710598   7.242272   8.219515   7.682932   8.607339
    19  H    6.618603   7.031237   7.997883   7.666453   8.557539
    20  H    6.612780   7.024115   7.991060   7.661839   8.552555
    21  H    7.754417   8.324811   9.302072   8.676164   9.615391
                   16         17         18         19         20
    16  C    0.000000
    17  O    1.241156   0.000000
    18  C    1.513733   2.410644   0.000000
    19  H    2.151213   3.122447   1.095565   0.000000
    20  H    2.151457   3.125193   1.095511   1.763916   0.000000
    21  H    2.148059   2.541633   1.091204   1.788130   1.788323
                   21
    21  H    0.000000
 Symmetry turned off by external request.
 Stoichiometry    C8H9BO3
 Framework group  C1[X(C8H9BO3)]
 Deg. of freedom    57
 Full point group                 C1      NOp   1
 Rotational constants (GHZ):      2.6799357      0.4082507      0.4056972
 Standard basis: 6-31G (6D, 7F)
   126 basis functions,   300 primitive gaussians,   126 cartesian basis functions
    43 alpha electrons       43 beta electrons
       nuclear repulsion energy       621.0301905991 Hartrees.
 NAtoms=   21 NActive=   21 NUniq=   21 SFac= 1.00D+00 NAtFMM=   60 NAOKFM=F Big=F
 Integral buffers will be    131072 words long.
 Raffenetti 2 integral format.
 Two-electron integral symmetry is turned off.
 Nuclear repulsion after empirical dispersion term =      621.0147495931 Hartrees.
 One-electron integrals computed using PRISM.
 NBasis=   126 RedAO= T EigKep=  6.35D-04  NBF=   126
 NBsUse=   126 1.00D-06 EigRej= -1.00D+00 NBFU=   126
 Initial guess from the checkpoint file:  "E:\PROJECT- VIT group\ML\Substrates\molecule_8.chk"
 B after Tr=    -0.012386   -0.000177    0.005120
         Rot=    1.000000   -0.000037   -0.000940   -0.000021 Ang=  -0.11 deg.
 ExpMin= 1.27D-01 ExpMax= 5.48D+03 ExpMxC= 8.25D+02 IAcc=1 IRadAn=         1 AccDes= 0.00D+00
 Harris functional with IExCor=  402 and IRadAn=       1 diagonalized for initial guess.
 HarFok:  IExCor=  402 AccDes= 0.00D+00 IRadAn=         1 IDoV= 1 UseB2=F ITyADJ=14
 ICtDFT=  3500011 ScaDFX=  1.000000  1.000000  1.000000  1.000000
 FoFCou: FMM=F IPFlag=           0 FMFlag=      100000 FMFlg1=           0
         NFxFlg=           0 DoJE=T BraDBF=F KetDBF=T FulRan=T
         wScrn=  0.000000 ICntrl=     500 IOpCl=  0 I1Cent=   200000004 NGrid=           0
         NMat0=    1 NMatS0=      1 NMatT0=    0 NMatD0=    1 NMtDS0=    0 NMtDT0=    0
 Symmetry not used in FoFCou.
 Keep R1 ints in memory in canonical form, NReq=33103861.
 Requested convergence on RMS density matrix=1.00D-08 within 128 cycles.
 Requested convergence on MAX density matrix=1.00D-06.
 Requested convergence on             energy=1.00D-06.
 No special actions if energy rises.
 Integral accuracy reduced to 1.0D-05 until final iterations.
 Initial convergence to 1.0D-05 achieved.  Increase integral accuracy.
 SCF Done:  E(RB3LYP) =  -560.749939792     A.U. after   14 cycles
            NFock= 14  Conv=0.63D-08     -V/T= 2.0055
 Calling FoFJK, ICntrl=      2127 FMM=F ISym2X=0 I1Cent= 0 IOpClX= 0 NMat=1 NMatS=1 NMatT=0.
 -------------------------------------------------------------------
 Center     Atomic                   Forces (Hartrees/Bohr)
 Number     Number              X              Y              Z
 -------------------------------------------------------------------
      1        6           0.000688893   -0.000677412   -0.000141941
      2        6          -0.000946470    0.000505714    0.000194995
      3        6           0.000035614    0.000048416   -0.000049573
      4        6          -0.000870133   -0.000562300    0.000149757
      5        6           0.000634767    0.000646302   -0.000137641
      6        6          -0.001429763    0.000057733   -0.001444026
      7        1           0.000171706    0.000063485    0.000157489
      8        1          -0.000202917   -0.000141672    0.000038149
      9        1          -0.000215018    0.000148883    0.000049713
     10        1           0.000183588   -0.000059303    0.000156683
     11        5          -0.003497795    0.000001367   -0.000104237
     12        8           0.004541509    0.000020578   -0.003032659
     13        1          -0.002256303   -0.000020674   -0.002675216
     14        8           0.004733458   -0.000010301    0.002954915
     15        1          -0.002250499    0.000010472    0.002787242
     16        6          -0.000215261   -0.000043909    0.000181769
     17        8          -0.000285160   -0.000006452    0.000592466
     18        6           0.000150982   -0.000003689    0.002307982
     19        1           0.000795727    0.000522129   -0.001123185
     20        1           0.000793558   -0.000511410   -0.001117389
     21        1          -0.000560484    0.000012045    0.000254706
 -------------------------------------------------------------------
 Cartesian Forces:  Max     0.004733458 RMS     0.001364561

 GradGradGradGradGradGradGradGradGradGradGradGradGradGradGradGradGradGrad
 Berny optimization.
 Using GEDIIS/GDIIS optimizer.
 FormGI is forming the generalized inverse of G from B-inverse, IUseBI=4.
 Internal  Forces:  Max     0.006218329 RMS     0.001386988
 Search for a local minimum.
 Step number   3 out of a maximum of  105
 All quantities printed in internal units (Hartrees-Bohrs-Radians)
 Mixed Optimization -- RFO/linear search
 Update second derivatives using D2CorX and points    1    2    3
 DE= -7.44D-03 DEPred=-8.86D-03 R= 8.40D-01
 TightC=F SS=  1.41D+00  RLast= 2.57D-01 DXNew= 8.4853D-01 7.6962D-01
 Trust test= 8.40D-01 RLast= 2.57D-01 DXMaxT set to 7.70D-01
 ITU=  1  1  0
 Use linear search instead of GDIIS.
     Eigenvalues ---    0.00230   0.00237   0.00237   0.00237   0.00302
     Eigenvalues ---    0.00369   0.00369   0.01498   0.01606   0.02152
     Eigenvalues ---    0.02153   0.02155   0.02155   0.02155   0.02156
     Eigenvalues ---    0.02157   0.07060   0.07174   0.13457   0.16000
     Eigenvalues ---    0.16000   0.16000   0.16000   0.16000   0.16000
     Eigenvalues ---    0.16002   0.16046   0.21589   0.22000   0.22852
     Eigenvalues ---    0.23458   0.24270   0.25000   0.25000   0.25000
     Eigenvalues ---    0.25002   0.25100   0.28517   0.28519   0.28639
     Eigenvalues ---    0.33555   0.33710   0.33719   0.33724   0.36512
     Eigenvalues ---    0.37230   0.37233   0.39222   0.42075   0.42599
     Eigenvalues ---    0.46402   0.46455   0.46461   0.46689   0.55473
     Eigenvalues ---    0.57354   0.80371
 RFO step:  Lambda=-6.89668197D-04 EMin= 2.29999995D-03
 Quartic linear search produced a step of -0.00955.
 Iteration  1 RMS(Cart)=  0.01561007 RMS(Int)=  0.00023414
 Iteration  2 RMS(Cart)=  0.00024438 RMS(Int)=  0.00000483
 Iteration  3 RMS(Cart)=  0.00000001 RMS(Int)=  0.00000483
 Variable       Old X    -DE/DX   Delta X   Delta X   Delta X     New X
                                 (Linear)    (Quad)   (Total)
    R1        2.64218  -0.00048   0.00000  -0.00072  -0.00072   2.64146
    R2        2.64941   0.00045  -0.00004   0.00148   0.00144   2.65085
    R3        2.05277  -0.00014   0.00007  -0.00142  -0.00135   2.05142
    R4        2.65961   0.00030  -0.00008   0.00146   0.00137   2.66099
    R5        2.05205   0.00002   0.00006  -0.00101  -0.00095   2.05110
    R6        2.65983   0.00025  -0.00008   0.00130   0.00122   2.66105
    R7        2.94348   0.00127   0.00045  -0.00177  -0.00132   2.94216
    R8        2.64204  -0.00045  -0.00001  -0.00063  -0.00064   2.64140
    R9        2.05205   0.00002   0.00006  -0.00102  -0.00095   2.05110
   R10        2.64955   0.00042  -0.00004   0.00141   0.00138   2.65093
   R11        2.05278  -0.00014   0.00007  -0.00144  -0.00137   2.05142
   R12        2.84698  -0.00067   0.00019  -0.00480  -0.00461   2.84237
   R13        2.61370   0.00611   0.00123   0.01062   0.01185   2.62555
   R14        2.61173   0.00622   0.00124   0.01093   0.01217   2.62390
   R15        1.84680  -0.00226  -0.00007  -0.00261  -0.00268   1.84413
   R16        1.84681  -0.00230  -0.00007  -0.00268  -0.00275   1.84406
   R17        2.34544   0.00066   0.00011  -0.00035  -0.00024   2.34521
   R18        2.86054  -0.00083   0.00016  -0.00474  -0.00458   2.85596
   R19        2.07032   0.00122  -0.00014   0.00509   0.00495   2.07527
   R20        2.07022   0.00122  -0.00014   0.00507   0.00494   2.07515
   R21        2.06208   0.00059  -0.00012   0.00309   0.00297   2.06505
    A1        2.09703   0.00004  -0.00003   0.00014   0.00011   2.09714
    A2        2.09472  -0.00014   0.00000  -0.00076  -0.00077   2.09395
    A3        2.09143   0.00010   0.00003   0.00062   0.00063   2.09206
    A4        2.11358   0.00051  -0.00012   0.00250   0.00238   2.11595
    A5        2.07983  -0.00051   0.00007  -0.00302  -0.00295   2.07688
    A6        2.08978   0.00000   0.00005   0.00052   0.00057   2.09035
    A7        2.06112  -0.00072   0.00021  -0.00377  -0.00356   2.05756
    A8        2.11115   0.00035  -0.00011   0.00186   0.00175   2.11290
    A9        2.11091   0.00037  -0.00011   0.00191   0.00181   2.11272
   A10        2.11355   0.00051  -0.00012   0.00251   0.00238   2.11593
   A11        2.08964   0.00001   0.00005   0.00062   0.00067   2.09030
   A12        2.08000  -0.00052   0.00007  -0.00312  -0.00305   2.07695
   A13        2.09704   0.00004  -0.00002   0.00014   0.00012   2.09716
   A14        2.09483  -0.00015   0.00000  -0.00085  -0.00085   2.09397
   A15        2.09132   0.00011   0.00002   0.00069   0.00071   2.09203
   A16        2.08405  -0.00037   0.00009  -0.00151  -0.00144   2.08261
   A17        2.09961   0.00017  -0.00004   0.00070   0.00064   2.10024
   A18        2.09953   0.00020  -0.00004   0.00082   0.00075   2.10027
   A19        2.07552  -0.00226   0.00018  -0.00888  -0.00870   2.06682
   A20        2.07678  -0.00227   0.00017  -0.00887  -0.00870   2.06808
   A21        2.13089   0.00453  -0.00035   0.01775   0.01740   2.14829
   A22        2.06538   0.00494  -0.00101   0.03351   0.03250   2.09788
   A23        2.06676   0.00507  -0.00102   0.03431   0.03329   2.10005
   A24        2.12069   0.00078  -0.00014   0.00357   0.00343   2.12412
   A25        2.03691  -0.00171   0.00024  -0.00849  -0.00825   2.02866
   A26        2.12559   0.00093  -0.00011   0.00492   0.00481   2.13040
   A27        1.92039   0.00022  -0.00004   0.00078   0.00073   1.92112
   A28        1.92079   0.00021  -0.00005   0.00080   0.00075   1.92154
   A29        1.92056  -0.00014  -0.00018   0.00047   0.00029   1.92084
   A30        1.87150  -0.00077   0.00023  -0.00925  -0.00903   1.86248
   A31        1.91482   0.00023   0.00003   0.00346   0.00348   1.91830
   A32        1.91520   0.00024   0.00003   0.00357   0.00360   1.91879
    D1        0.00012  -0.00003   0.00000  -0.00076  -0.00076  -0.00064
    D2        3.13984  -0.00003   0.00000  -0.00091  -0.00091   3.13894
    D3       -3.13877   0.00009  -0.00001   0.00441   0.00440  -3.13437
    D4        0.00095   0.00009   0.00000   0.00426   0.00426   0.00521
    D5       -0.00026  -0.00003   0.00000  -0.00296  -0.00295  -0.00321
    D6        3.14066   0.00015   0.00005   0.00892   0.00897  -3.13356
    D7        3.13863  -0.00015   0.00001  -0.00812  -0.00811   3.13052
    D8       -0.00363   0.00004   0.00006   0.00376   0.00381   0.00018
    D9        0.00025   0.00008   0.00000   0.00412   0.00412   0.00437
   D10       -3.14095   0.00005   0.00000   0.00188   0.00188  -3.13906
   D11       -3.13946   0.00008   0.00000   0.00428   0.00427  -3.13519
   D12        0.00253   0.00005  -0.00001   0.00204   0.00203   0.00456
   D13       -0.00049  -0.00007   0.00000  -0.00386  -0.00386  -0.00435
   D14        3.13970  -0.00008   0.00000  -0.00459  -0.00458   3.13512
   D15        3.14071  -0.00004   0.00000  -0.00163  -0.00162   3.13908
   D16       -0.00229  -0.00005   0.00001  -0.00236  -0.00235  -0.00464
   D17        1.57075   0.00001   0.00000   0.00111   0.00112   1.57187
   D18       -1.57098   0.00002   0.00000   0.00225   0.00225  -1.56873
   D19       -1.57043  -0.00002   0.00000  -0.00119  -0.00119  -1.57162
   D20        1.57102  -0.00001   0.00000  -0.00005  -0.00006   1.57096
   D21        0.00036   0.00002   0.00000   0.00024   0.00025   0.00060
   D22        3.13905  -0.00009   0.00001  -0.00467  -0.00466   3.13440
   D23       -3.13984   0.00003   0.00000   0.00096   0.00096  -3.13888
   D24       -0.00115  -0.00008   0.00000  -0.00395  -0.00394  -0.00509
   D25        0.00003   0.00004  -0.00001   0.00321   0.00320   0.00323
   D26       -3.14090  -0.00015  -0.00005  -0.00866  -0.00871   3.13358
   D27       -3.13868   0.00015  -0.00001   0.00811   0.00811  -3.13057
   D28        0.00359  -0.00004  -0.00006  -0.00376  -0.00381  -0.00022
   D29        1.56946  -0.00010  -0.00002  -0.00736  -0.00738   1.56207
   D30       -1.57195  -0.00011  -0.00002  -0.01145  -0.01148  -1.58343
   D31       -1.57281   0.00009   0.00003   0.00462   0.00466  -1.56816
[...]
 0533630,-0.00110218,0.09461635,-0.18004361,0.11271346,0.01412432,-0.01
 185678,0.01200329,0.00081909,-0.00037136,0.00087965,0.00015695,-0.0005
 1036,-0.00067718,0.00051898,-0.00086908,-0.00246138,-0.10147017,0.1849
 5826,0.00199643,0.00420067,0.00346403,0.00040848,-0.00035331,-0.000075
 44,-0.00038733,0.00282675,0.00548574,0.00157343,0.00165074,0.00335519,
 -0.07839815,0.11269313,-0.12879973,-0.00948818,0.00956875,-0.00521676,
 -0.00062206,0.00074107,0.00011417,0.00002949,-0.00067724,-0.00095505,0
 .00010174,-0.00253681,-0.00242987,0.08578616,-0.12605839,0.12688253,0.
 00120199,-0.00105626,0.00029198,-0.01293962,-0.00796213,0.00433849,-0.
 21499113,-0.01049745,-0.00727870,-0.01498245,0.00535915,-0.00563442,0.
 00109308,0.00110766,-0.00131731,0.00662837,-0.00039337,0.00096835,0.00
 051727,0.00028051,-0.00015850,0.00026027,0.00105546,-0.00048468,0.0002
 0651,-0.00063864,0.00073466,0.00059889,-0.00048094,0.00039506,0.549744
 83,-0.00360232,-0.00086331,0.00478963,-0.01992307,0.00305553,-0.002296
 45,-0.01063437,-0.06684574,0.00296294,0.01757353,0.00637014,-0.0011717
 3,0.00337822,-0.00016907,0.00502811,0.00054615,-0.00211112,0.00129743,
 -0.00089592,-0.00000577,-0.00006243,-0.00162840,-0.00297052,0.00008045
 ,0.00210217,-0.00286330,0.00032909,0.00104983,0.00004285,0.00017694,0.
 01837169,0.41639801,0.00215675,0.00503579,0.00264975,0.01311727,-0.001
 12764,0.00469339,-0.00720460,0.00297433,-0.06431953,-0.01460402,-0.002
 35326,0.00276681,-0.00297313,0.00480602,0.00242037,0.00028651,0.001212
 31,-0.00127489,0.00070699,0.00005213,0.00005803,0.00147690,0.00033477,
 -0.00274605,-0.00124525,0.00002951,-0.00287142,-0.00072754,0.00002862,
 0.00005573,0.02725828,-0.20603963,0.28914924,-0.00113204,-0.00076388,0
 .00048313,-0.00342307,0.00263255,-0.00237920,-0.01674022,-0.02300957,0
 .01476002,-0.00249158,-0.00150146,0.00077437,0.00106813,-0.00029783,0.
 00036429,-0.00195842,-0.00057976,0.00023623,-0.00042973,-0.00005239,0.
 00000666,0.00019012,-0.00007617,0.00007287,-0.00118112,-0.00050152,0.0
 0032276,-0.00019652,0.00015662,-0.00013042,-0.13085707,-0.10672286,0.0
 6994522,0.62020507,-0.00036130,0.00015542,-0.00043121,0.00013076,0.001
 86342,-0.00051613,-0.00959631,-0.00225534,0.00496781,0.00045277,-0.003
 03323,0.00295922,0.00000268,0.00034824,-0.00061612,-0.00131664,-0.0000
 7677,-0.00007234,-0.00010516,-0.00006114,-0.00003600,0.00062039,0.0005
 5569,-0.00031898,0.00000686,0.00046705,-0.00079097,-0.00032521,0.00009
 810,-0.00012412,-0.06380968,-0.18215996,0.09680631,0.16055252,0.237789
 39,0.00019666,-0.00046998,-0.00001759,-0.00054669,-0.00027936,0.001292
 16,0.00489744,0.00361945,0.00348156,-0.00066136,0.00274983,-0.00116751
 ,0.00014615,-0.00064564,-0.00000480,0.00078066,0.00000129,0.00007340,0
 .00004489,-0.00003077,-0.00006920,-0.00044202,-0.00039100,0.00027376,-
 0.00009744,-0.00076468,0.00007394,0.00022305,-0.00007865,0.00004949,0.
 03829653,0.09256400,-0.10695339,-0.06000729,-0.13788358,0.12533680,-0.
 00003203,-0.00048899,0.00040196,-0.00127312,0.00059462,-0.00058253,0.0
 0226785,-0.00342186,0.00225394,0.00070128,0.00007044,0.00005586,0.0000
 2954,0.00001081,-0.00000347,0.00003838,-0.00001767,0.00001527,-0.00010
 638,0.00001632,-0.00002191,0.00000064,-0.00009843,0.00005047,0.0002782
 2,-0.00014821,0.00013372,-0.00002844,0.00000615,-0.00001076,-0.0192878
 0,0.01082898,-0.00991641,-0.47945675,-0.07579265,0.00954863,0.49266797
 ,0.00005508,-0.00035957,-0.00008469,-0.00062504,0.00029435,-0.00008498
 ,0.00076752,-0.00043342,0.00403832,0.00056090,-0.00010712,-0.00017789,
 -0.00004752,0.00009583,-0.00008298,0.00030182,0.00001517,0.00002809,-0
 .00004041,0.00000570,-0.00001370,-0.00007374,0.00001776,0.00014663,-0.
 00024796,0.00031279,-0.00026009,0.00004541,-0.00000502,0.00003426,-0.0
 3185931,-0.00518921,0.00102240,-0.03931896,-0.02663378,0.00792460,0.06
 696600,0.03230379,0.00000245,-0.00013423,-0.00038070,0.00031451,0.0000
 3244,0.00026456,-0.00083348,0.00362958,0.00219776,-0.00030637,-0.00022
 226,-0.00028884,0.00004081,-0.00007650,0.00005058,-0.00022182,-0.00000
 411,-0.00000517,0.00002011,-0.00000818,0.00000046,0.00003157,0.0001432
 1,0.00012420,0.00021508,-0.00025267,0.00019478,-0.00003958,0.00003065,
 0.00000951,0.02154460,0.00523105,-0.00134459,-0.01736374,0.00431860,-0
 .01563073,-0.00150609,-0.01116553,0.01645059,0.00103772,0.00035895,-0.
 00010894,-0.00249137,0.00134111,-0.00132045,-0.01880524,0.02015119,-0.
 01726673,-0.00321798,-0.00320947,0.00192966,-0.00117712,0.00052538,-0.
 00045789,-0.00209182,0.00080585,-0.00079388,-0.00013780,-0.00008352,0.
 00004952,-0.00116131,0.00034141,-0.00032063,0.00022809,0.00007063,-0.0
 0003710,-0.00054987,0.00011521,-0.00012745,-0.14311138,0.10324858,-0.0
 8608191,0.01168108,-0.00913885,0.00578644,0.00344006,0.00220448,-0.000
 85494,0.63845828,0.00008172,0.00046188,-0.00069829,-0.00058702,-0.0029
 5089,0.00275574,0.00670854,0.00180719,0.00353039,-0.00076125,0.0013871
 3,-0.00025081,0.00021610,0.00036396,-0.00051811,0.00103822,-0.00020390
 ,0.00025493,0.00026379,0.00004478,-0.00002329,-0.00016003,0.00054608,-
 0.00083332,-0.00064055,0.00048032,-0.00038124,0.00009728,-0.00009033,0
 .00000038,0.06039979,-0.15933285,0.09223561,0.01125319,-0.02791958,0.0
 3741802,0.00278245,0.00147410,-0.00378490,-0.09149495,0.20308051,0.000
 09438,-0.00067099,0.00000003,0.00009922,0.00293301,-0.00127049,-0.0073
 5844,0.00484356,0.00137274,0.00013264,-0.00050309,0.00151549,-0.000241
 77,-0.00048641,-0.00003288,-0.00097316,0.00023638,-0.00025932,-0.00020
 558,-0.00005757,0.00000026,0.00006495,-0.00074159,0.00002709,0.0004908
 7,-0.00031668,0.00031676,-0.00011622,0.00000327,-0.00011495,-0.0544218
 8,0.09645722,-0.11881623,-0.00923410,0.03538290,-0.00570879,-0.0013129
 6,-0.00381836,-0.00131992,0.12735275,-0.13708090,0.14291384,0.00000289
 ,-0.00001038,0.00000774,0.00074852,0.00006391,0.00007115,0.00208035,0.
 00337431,-0.00277763,-0.00128104,-0.00078189,0.00042068,-0.00004147,0.
 00052737,-0.00034002,0.00006236,-0.00000841,0.00000952,-0.00001150,-0.
 00000622,-0.00000083,0.00024387,0.00016368,-0.00009239,-0.00001001,0.0
 0008013,-0.00008383,-0.00013121,-0.00001619,0.00000121,-0.02045968,-0.
 01343518,0.00788018,0.00373033,-0.00208337,0.00230768,0.00079001,0.001
 43280,-0.00112873,-0.48323027,0.01151364,-0.05499676,0.49753980,0.0000
 2611,0.00009124,-0.00007103,-0.00040846,-0.00016444,-0.00023442,-0.000
 80033,-0.00002974,0.00362345,0.00039749,0.00026697,0.00003460,0.000006
 11,-0.00029890,-0.00015557,-0.00028926,0.00002255,-0.00002379,-0.00003
 514,0.00000895,0.00002087,0.00025247,0.00037287,-0.00024853,0.00005697
 ,0.00004238,0.00014907,0.00001720,0.00001087,-0.00001879,0.02927503,-0
 .00277728,0.00517456,-0.00148104,0.00089621,-0.00378869,-0.00129737,-0
 .00184403,0.00228854,-0.02500700,-0.01947087,0.00401355,-0.00082387,0.
 02288729,-0.00002011,-0.00007379,0.00004558,0.00041643,-0.00018423,-0.
 00025037,0.00031014,0.00402844,0.00204709,-0.00044989,-0.00008152,0.00
 027680,0.00004228,-0.00010040,-0.00043024,0.00021800,0.00000127,0.0000
 4734,0.00002055,0.00002378,0.00002669,-0.00016257,-0.00026385,0.000172
 13,-0.00006574,0.00015076,0.00011977,-0.00002396,-0.00002217,-0.000003
 17,-0.02365909,0.00095161,-0.00265202,0.00185002,-0.00380051,-0.001022
 26,0.00089144,0.00252948,-0.00036888,-0.02801430,0.00761460,-0.0189139
 8,0.04873366,-0.01079528,0.02091563,-0.03491053,0.00953295,-0.01080840
 ,0.00457589,0.00315535,-0.00256738,0.00393382,0.00043961,0.00016469,0.
 00558932,-0.00165827,0.00099554,-0.01806814,-0.01270165,0.00736399,-0.
 18729501,0.00498064,-0.01364393,0.00039410,-0.00174125,0.00166741,0.00
 020792,-0.00038782,0.00029008,0.00065828,0.00049639,-0.00033391,0.0004
 5077,0.00209460,-0.00106142,-0.00868590,-0.00054595,-0.00033030,0.0027
 7614,0.00204736,-0.00124671,0.00004920,-0.00035815,0.00026911,0.002907
 58,-0.00167245,0.00151229,0.00001537,0.00034222,-0.00025589,0.57696301
 ,0.02040606,0.01252908,-0.00381463,0.00516001,-0.00083982,0.00642123,-
 0.00079746,-0.00251641,0.00097636,-0.00188810,-0.00100252,0.00635559,-
 0.02820147,-0.00045936,-0.00118697,0.01477654,-0.09834213,0.01252445,0
 .00120383,-0.00374892,0.00012998,0.00157207,0.00012030,0.00017577,-0.0
 0103591,0.00014455,0.00003644,-0.00014979,-0.00228870,-0.00155387,-0.0
 0040544,-0.00064644,-0.00046785,0.00005896,0.00007495,0.00001040,-0.00
 000592,0.00001790,0.00000135,0.00032071,-0.00009378,0.00015393,0.00001
 997,0.00008078,-0.00002624,0.11810792,0.60753796,-0.01883268,-0.004849
 25,0.00633963,-0.00403234,0.00621136,0.00226369,0.00105961,0.00109316,
 -0.00177365,0.00115738,0.00637283,0.00334592,0.01873460,0.00033106,0.0
 0322103,-0.02075600,0.01160645,-0.09353675,-0.00048433,-0.00014855,-0.
 00363915,-0.00114431,-0.00001529,0.00005094,0.00079044,0.00018557,0.00
 027305,0.00056902,-0.00133710,-0.00332216,-0.00041764,-0.00048017,-0.0
 0091854,0.00021685,0.00020164,-0.00004447,0.00000707,-0.00003293,0.000
 04445,0.00003714,-0.00003948,0.00010560,-0.00001713,0.00000517,0.00003
 667,-0.05174082,-0.26976122,0.41252509,-0.00131425,-0.00213146,0.00143
 523,0.00122140,-0.00146204,0.00127095,-0.00197127,-0.00144059,0.000857
 69,-0.00299373,-0.00104020,0.00063145,-0.00405109,0.00589712,-0.004977
 14,-0.03986152,-0.04534049,0.02730563,-0.00253107,-0.00087258,0.000414
 40,-0.00004784,0.00015319,-0.00013302,-0.00080372,-0.00013834,0.000052
 13,0.00038463,-0.00059134,0.00040227,0.00383401,0.00004775,0.00032026,
 -0.00135360,-0.00090565,0.00053480,-0.00006172,0.00017633,-0.00013534,
 -0.00133760,0.00079117,-0.00071935,-0.00002510,-0.00017396,0.00013016,
 -0.20102685,-0.17575497,0.11480022,0.23066786,0.00577181,-0.00538038,0
 .00428713,-0.00146636,0.00014698,-0.00076976,0.00006445,-0.00000043,0.
 00007139,-0.00160951,-0.00012176,-0.00118874,0.00146163,0.00510760,-0.
 00162060,-0.03394512,-0.00359498,0.01346796,-0.00018081,0.00189389,-0.
 00171332,-0.00038142,0.00012062,-0.00002444,-0.00026813,-0.00014724,-0
 .00012129,0.00051619,0.00063167,0.00004172,0.00182728,0.00007133,0.000
 25510,-0.00053870,-0.00026510,0.00015664,-0.00000641,0.00005221,-0.000
 05212,-0.00070524,0.00050311,-0.00040531,-0.00000416,-0.00011502,0.000
 05387,-0.16829178,-0.37765138,0.21147367,0.20901298,0.41333400,-0.0043
 1622,0.00349549,-0.00328094,0.00126426,-0.00077371,-0.00002475,-0.0002
 4446,-0.00007706,0.00012094,0.00103098,-0.00114471,-0.00060649,-0.0017
 2212,-0.00117624,0.00338475,0.01899725,0.01236596,0.01222546,-0.000083
 63,-0.00178537,0.00084956,0.00026032,0.00002933,0.00014354,0.00014369,
 -0.00010916,-0.00018352,-0.00039698,-0.00005418,0.00063990,-0.00098213
 ,0.00008170,0.00002188,0.00026019,0.00011894,-0.00004571,0.00000018,-0
 .00003316,0.00000849,0.00038126,-0.00025683,0.00027339,0.00000453,0.00
 003668,-0.00006812,0.10933804,0.21079408,-0.20754653,-0.13215183,-0.26
 336931,0.20262218,-0.00434062,-0.00248552,0.00122883,-0.00067500,0.001
 22555,-0.00090279,-0.00059712,0.00021092,-0.00024362,0.00059051,0.0004
 2733,-0.00011533,-0.00282196,0.00019168,-0.00023191,-0.01509370,0.0211
 6754,-0.01836391,-0.00000938,0.00011543,-0.00009345,-0.00042303,-0.000
 02637,-0.00000165,-0.00005275,-0.00007057,0.00004498,-0.00226892,0.000
 12943,-0.00046750,0.00101911,0.00018146,-0.00005286,-0.00038144,-0.000
 30691,0.00019237,-0.00001994,0.00005653,-0.00004571,-0.00039791,0.0001
 6231,-0.00015520,-0.00002729,-0.00005360,0.00003689,-0.13720659,0.0395
 2578,-0.03334409,0.01786807,-0.01359187,0.00925858,0.57356322,-0.00322
 027,0.00116029,0.00021070,0.00024710,0.00061156,-0.00096231,0.00028474
 ,-0.00012057,0.00035227,-0.00000771,-0.00050304,-0.00071414,0.00061810
 ,-0.00117107,-0.00037624,0.00029732,0.00957857,0.00467990,-0.00040308,
 0.00023377,-0.00014404,-0.00015641,-0.00007073,-0.00012682,0.00001319,
 0.00003033,-0.00000140,-0.00052432,0.00091615,0.00057285,-0.00064102,-
 0.00000865,0.00009046,0.00020629,0.00016604,-0.00012786,0.00000183,-0.
 00002390,0.00003265,0.00019095,-0.00010905,0.00006820,-0.00000393,0.00
 001857,-0.00001238,0.03374671,-0.11658593,0.02320923,0.00912912,-0.029
 92107,0.04041833,0.05437764,0.51786358,0.00174628,0.00030740,0.0018359
 8,-0.00017209,-0.00086493,-0.00011548,-0.00029820,0.00034104,0.0000455
 0,0.00019634,-0.00067433,-0.00098558,-0.00056419,-0.00045918,-0.001499
 06,-0.00320594,0.00668786,0.01078999,0.00028117,-0.00009296,0.00018711
 ,0.00009576,-0.00011421,-0.00013110,-0.00001742,-0.00000924,0.00003230
 ,0.00000351,0.00070921,0.00132627,0.00054374,0.00017148,0.00013127,-0.
 00018306,-0.00017565,0.00007578,-0.00000525,0.00003765,-0.00000792,-0.
 00017295,0.00006407,-0.00010736,-0.00000008,-0.00001692,0.00001491,-0.
 02912563,0.02373387,-0.10926594,-0.00726531,0.03825827,-0.00406970,-0.
 03543065,0.01480681,0.51723439,0.00055115,-0.00034182,0.00004215,-0.00
 023635,-0.00013872,0.00026961,0.00004404,0.00009021,-0.00009977,-0.000
 00656,0.00005419,0.00029040,-0.00094768,0.00037661,-0.00017616,-0.0010
 8189,-0.00123167,-0.00168306,0.00009253,-0.00007222,0.00001984,0.00000
 462,0.00001236,0.00003106,-0.00000932,-0.00000677,-0.00000342,-0.00177
 289,0.00018826,0.00051677,-0.00005437,-0.00002031,-0.00005825,0.000034
 98,0.00000457,-0.00000162,0.00000471,-0.00000605,0.00000578,0.00004645
 ,-0.00002724,0.00003163,0.00000512,0.00001026,-0.00000314,0.00457121,0
 .01716508,0.00967514,-0.00035755,0.00061860,-0.00255539,-0.05489008,-0
 .03214325,-0.01320628,0.05543167,0.00033627,0.00009115,0.00029403,-0.0
 0023098,-0.00010181,-0.00006793,-0.00008372,0.00019221,-0.00017471,0.0
 0029771,0.00022920,-0.00000428,-0.00051480,0.00000245,0.00061493,0.000
 14443,0.00065985,0.00122277,-0.00017049,0.00008305,-0.00004235,0.00001
 583,-0.00001632,-0.00002082,0.00002132,0.00000261,0.00000718,0.0000270
 6,0.00025499,-0.00057424,0.00006756,-0.00000645,-0.00004881,-0.0000197
 0,0.00000105,0.00001573,-0.00000177,0.00000122,-0.00000710,-0.00004295
 ,0.00003195,-0.00000994,-0.00000391,-0.00000592,0.00000277,-0.00693580
 ,-0.02025452,-0.00772622,0.00320531,-0.00106962,0.00320957,-0.03325915
 ,-0.27359401,-0.08563834,0.03749235,0.30035819,0.00012573,0.00000584,-
 0.00029662,0.00004991,0.00006609,0.00009203,-0.00007946,-0.00011940,0.
 00000465,-0.00023853,0.00038826,-0.00008182,-0.00012050,-0.00063803,0.
 00079982,0.00014325,-0.00141509,-0.00082143,0.00003802,0.00001110,0.00
 000682,0.00000941,0.00002700,0.00001294,0.00002759,-0.00000281,0.00001
 252,0.00023667,0.00015472,-0.00045149,0.00005253,-0.00002030,-0.000004
 45,-0.00002016,0.00000382,-0.00000854,-0.00000376,0.00000026,0.0000003
 4,-0.00003702,0.00002721,-0.00002530,-0.00000444,-0.00000297,0.0000064
 4,0.00335271,0.02011141,0.00722743,-0.00138234,0.00114757,-0.00441670,
 -0.01334133,-0.08211944,-0.07240820,0.01504737,0.09113504,0.08102933,0
 .00055916,-0.00007414,0.00036935,-0.00022302,-0.00032308,0.00002071,0.
 00001905,0.00013672,-0.00005010,0.00003390,-0.00023006,-0.00020385,-0.
 00102438,0.00002639,-0.00044534,-0.00132391,0.00106411,0.00159135,0.00
 007535,-0.00002714,0.00006390,0.00001233,-0.00002335,-0.00002093,-0.00
 000574,-0.00000174,0.00000606,-0.00162827,-0.00053861,-0.00050058,-0.0
 0005164,0.00004871,0.00003602,0.00003053,0.00000560,-0.00000113,0.0000
 0411,-0.00000628,0.00000469,0.00003893,-0.00002869,0.00001644,0.000004
 74,0.00000511,-0.00000769,0.00716805,-0.00336244,-0.01897499,-0.000522
 25,0.00283119,0.00017734,-0.06811073,0.00192753,0.06498024,0.00104070,
 -0.00113168,-0.00466943,0.07042005,0.00007761,-0.00035468,-0.00009484,
 -0.00015674,0.00003516,0.00010753,0.00006111,0.00012386,-0.00014298,0.
 00030122,-0.00015644,0.00028163,-0.00013243,0.00073082,-0.00044423,0.0
 0003675,-0.00051356,-0.00167988,-0.00008055,0.00001166,-0.00001283,-0.
 00000818,0.00000552,0.00003196,-0.00002049,0.00000886,-0.00000228,-0.0
 0030607,-0.00020785,-0.00011055,-0.00003404,0.00001717,-0.00001327,0.0
 0001739,-0.00001159,0.00000054,0.00000306,0.00000220,0.00000155,0.0000
 2678,-0.00002552,0.00001366,0.00000287,0.00000609,0.00000025,-0.008143
 08,0.00004403,0.02430582,0.00275299,-0.00490167,0.00011184,0.00119723,
 -0.04192740,-0.00189780,0.00837460,-0.00064005,-0.03235562,-0.00214999
 ,0.04776449,-0.00031281,0.00010345,0.00014138,0.00018292,-0.00003472,-
 0.00005275,0.00011488,-0.00017244,0.00009514,-0.00022605,-0.00018743,0
 .00027102,0.00029937,0.00093526,0.00004529,-0.00047323,0.00091165,0.00
 061569,0.00015620,-0.00005120,0.00009510,-0.00001375,-0.00001752,-0.00
 001621,-0.00003131,0.00000688,0.00000192,-0.00024947,-0.00091339,0.000
 05170,-0.00007826,-0.00004326,-0.00003200,0.00002677,0.00001345,0.0000
 0890,0.00000416,-0.00000714,0.00000028,0.00005568,-0.00002721,0.000041
 00,0.00000578,0.00000765,-0.00000516,0.00825337,-0.00069597,-0.0154550
 4,-0.00281673,0.00190275,-0.00043898,0.06641616,-0.00519496,-0.2909296
 8,0.00402290,0.00079715,-0.01143947,-0.07427133,0.00348865,0.31840593,
 -0.00076739,-0.00045291,0.00023672,-0.00011654,0.00025837,-0.00018685,
 -0.00012866,0.00004251,-0.00004102,0.00014089,-0.00004241,0.00002987,0
 .00061730,0.00023656,-0.00013958,-0.00006720,0.00259466,-0.00205562,0.
 00000881,0.00004575,-0.00004006,-0.00009199,0.,-0.00000641,-0.00002851
 ,-0.00001371,0.00000621,0.00011396,0.00009484,-0.00001719,0.00031670,0
 .00003129,0.00000989,-0.00011482,-0.00008177,0.00004894,-0.00000581,0.
 00001656,-0.00001290,-0.00012851,0.00006401,-0.00005973,-0.00000579,-0
 .00001894,0.00001281,-0.02306763,-0.00671544,0.00269688,0.00428319,-0.
 00111463,0.00133615,-0.30572446,-0.06394052,0.02180001,-0.00247047,0.0
 0078712,0.00081379,-0.00651697,-0.00182003,-0.00106524,0.33375389,0.00
 100108,0.00038668,-0.00001664,0.00016195,-0.00027355,0.00010153,-0.000
 08348,-0.00006051,0.00001862,-0.00006719,0.00029383,-0.00011103,-0.000
 28558,-0.00050961,0.00051760,0.00079089,-0.00265750,0.00325748,0.00000
 421,0.00004310,0.00002320,0.00008197,0.00000034,-0.00001325,0.00002156
 ,0.00000614,0.00000614,-0.00010888,0.00023580,-0.00049993,0.00003416,-
 0.00000536,-0.00000749,-0.00001367,0.00000090,-0.00000031,-0.00000139,
 0.00000302,-0.00000201,-0.00001925,0.00001577,-0.00001484,-0.00000118,
 0.00000142,0.00000354,0.02749244,0.00388035,-0.00060575,-0.00131433,0.
 00130726,-0.00188221,-0.06917485,-0.06654343,0.00482591,-0.03039903,-0
 .00621923,0.00359535,0.00185187,-0.00001111,-0.00082164,0.07002871,0.0
 7010568,-0.00081904,-0.00015533,0.00026988,-0.00011588,0.00010371,-0.0
 0025050,0.00005073,0.00003350,-0.00004270,0.00005212,-0.00011118,0.000
 23731,0.00024260,0.00056886,-0.00016382,-0.00075005,0.00343425,-0.0008
 5063,-0.00000936,0.00002776,0.00005441,-0.00006557,-0.00002140,-0.0000
 1975,-0.00001956,0.00000281,0.00000771,0.00013283,-0.00048432,-0.00006
 565,0.00000839,-0.00000768,-0.00001336,-0.00000142,-0.00000707,0.00000
 721,0.00000045,-0.00000024,0.00000075,0.00000175,-0.00000657,0.0000030
 2,-0.00000027,0.00000186,0.00000514,-0.02209284,-0.00391810,0.00006874
 ,0.00142588,-0.00185119,0.00039135,0.02561219,0.00533819,-0.05215348,-
 0.01216555,-0.00298442,0.00076170,0.03187929,0.00841083,-0.00140408,-0
 .02336669,-0.00837427,0.05315676||0.00000842,-0.00000917,-0.00000375,-
 0.00000301,-0.00000275,-0.00000016,-0.00000942,0.00000221,0.00000423,-
 0.00000375,0.00000395,-0.00000340,0.00000446,0.00000445,-0.00000966,-0
 .00001798,0.00000105,0.00001731,-0.00000326,0.00000034,-0.00000375,-0.
 00000193,-0.00000127,-0.00000307,0.00000126,-0.00000233,0.00000234,0.0
 0000338,0.00000033,0.00000181,0.00000441,-0.00000320,-0.00000486,0.000
 00289,0.,-0.00000342,0.00000227,-0.00000265,0.00000072,0.00000427,-0.0
 0001043,-0.00000066,0.00000093,-0.00000393,-0.00000035,0.00001697,0.00
 001618,-0.00000989,-0.00000880,-0.00000775,0.00000622,-0.00000456,0.00
 000985,0.00000959,-0.00000175,-0.00000156,0.00000095,0.00000386,0.0000
 0318,-0.00000254,0.00000133,0.00000352,0.00000235|||@


 IN-LAWS ARE LIKE SEEDS. YOU DON'T NEED THEM
 BUT THEY COME WITH THE TOMATO.
 Job cpu time:       0 days  0 hours  3 minutes 51.0 seconds.
 File lengths (MBytes):  RWF=     54 Int=      0 D2E=      0 Chk=      3 Scr=      1
 Normal termination of Gaussian 09 at Wed Sep 13 15:42:01 2023.
