 Entering Gaussian System, Link 0=C:\G09W\g09.exe
 Input=C:\Users\vivek\Downloads\14_09_23\molecule_38.gjf
 Output=C:\Users\vivek\Downloads\14_09_23\molecule_38.log
 Initial command:
 C:/G09W\l1.exe ".\Gau-15012.inp" "C:\Users\vivek\Downloads\14_09_23\molecule_38.log" /scrdir=".\"
 Entering Link 1 = C:/G09W\l1.exe PID=     11156.
  
 Copyright (c) 1988,1990,1992,1993,1995,1998,2003,2009,2013,
            Gaussian, Inc.  All Rights Reserved.
  
 This is part of the Gaussian(R) 09 program.  It is based on
 the Gaussian(R) 03 system (copyright 2003, Gaussian, Inc.),
 the Gaussian(R) 98 system (copyright 1998, Gaussian, Inc.),
 the Gaussian(R) 94 system (copyright 1995, Gaussian, Inc.),
 the Gaussian 92(TM) system (copyright 1992, Gaussian, Inc.),
 the Gaussian 90(TM) system (copyright 1990, Gaussian, Inc.),
 the Gaussian 88(TM) system (copyright 1988, Gaussian, Inc.),
 the Gaussian 86(TM) system (copyright 1986, Carnegie Mellon
 University), and the Gaussian 82(TM) system (copyright 1983,
 Carnegie Mellon University). Gaussian is a federally registered
 trademark of Gaussian, Inc.
  
 This software contains proprietary and confidential information,
 including trade secrets, belonging to Gaussian, Inc.
  
 This software is provided under written license and may be
 used, copied, transmitted, or stored only in accord with that
 written license.
  
 The following legend is applicable only to US Government
 contracts under FAR:
  
                    RESTRICTED RIGHTS LEGEND
  
 Use, reproduction and disclosure by the US Government is
 subject to restrictions as set forth in subparagraphs (a)
 and (c) of the Commercial Computer Software - Restricted
 Rights clause in FAR 52.227-19.
  
 Gaussian, Inc.
 340 Quinnipiac St., Bldg. 40, Wallingford CT 06492
  
  
 ---------------------------------------------------------------
 Warning -- This program may not be used in any manner that
 competes with the business of Gaussian, Inc. or will provide
 assistance to any competitor of Gaussian, Inc.  The licensee
 of this program is prohibited from giving any competitor of
 Gaussian, Inc. access to this program.  By using this program,
 the user acknowledges that Gaussian, Inc. is engaged in the
 business of creating and licensing software in the field of
 computational chemistry and represents and warrants to the
 licensee that it is not a competitor of Gaussian, Inc. and that
 it will not use this program in any manner prohibited above.
 ---------------------------------------------------------------
  

 Cite this work as:
 Gaussian 09, Revision D.01,
 M. J. Frisch, G. W. Trucks, H. B. Schlegel, G. E. Scuseria, 
 M. A. Robb, J. R. Cheeseman, G. Scalmani, V. Barone, B. Mennucci, 
 G. A. Petersson, H. Nakatsuji, M. Caricato, X. Li, H. P. Hratchian, 
 A. F. Izmaylov, J. Bloino, G. Zheng, J. L. Sonnenberg, M. Hada, 
 M. Ehara, K. Toyota, R. Fukuda, J. Hasegawa, M. Ishida, T. Nakajima, 
 Y. Honda, O. Kitao, H. Nakai, T. Vreven, J. A. Montgomery, Jr., 
 J. E. Peralta, F. Ogliaro, M. Bearpark, J. J. Heyd, E. Brothers, 
 K. N. Kudin, V. N. Staroverov, T. Keith, R. Kobayashi, J. Normand, 
 K. Raghavachari, A. Rendell, J. C. Burant, S. S. Iyengar, J. Tomasi, 
 M. Cossi, N. Rega, J. M. Millam, M. Klene, J. E. Knox, J. B. Cross, 
 V. Bakken, C. Adamo, J. Jaramillo, R. Gomperts, R. E. Stratmann, 
 O. Yazyev, A. J. Austin, R. Cammi, C. Pomelli, J. W. Ochterski, 
 R. L. Martin, K. Morokuma, V. G. Zakrzewski, G. A. Voth, 
 P. Salvador, J. J. Dannenberg, S. Dapprich, A. D. Daniels, 
 O. Farkas, J. B. Foresman, J. V. Ortiz, J. Cioslowski, 
 and D. J. Fox, Gaussian, Inc., Wallingford CT, 2013.
 
 ******************************************
 Gaussian 09:  EM64W-G09RevD.01 13-Apr-2013
                14-Sep-2023 
 ******************************************
 %nprocshared=6
 Will use up to    6 processors via shared memory.
 %mem=8GB
 %chk=C:\Users\vivek\Downloads\molecule_38.chk
 ---------------------------------------------------------------------
 # opt freq rb3lyp/6-31+g(d) geom=connectivity empiricaldispersion=gd3
 ---------------------------------------------------------------------
 1/14=-1,18=20,19=15,26=3,38=1,57=2/1,3;
 2/9=110,12=2,17=6,18=5,40=1/2;
 3/5=1,6=6,7=11,11=2,16=1,25=1,30=1,71=1,74=-5,116=1,124=31/1,2,3;
 4//1;
 5/5=2,38=5/2;
 6/7=2,8=2,9=2,10=2,28=1/1;
 7//1,2,3,16;
 1/14=-1,18=20,19=15,26=3/3(2);
 2/9=110/2;
 99//99;
 2/9=110/2;
 3/5=1,6=6,7=11,11=2,16=1,25=1,30=1,71=1,74=-5,116=1,124=31/1,2,3;
 4/5=5,16=3,69=1/1;
 5/5=2,38=5/2;
 7//1,2,3,16;
 1/14=-1,18=20,19=15,26=3/3(-5);
 2/9=110/2;
 6/7=2,8=2,9=2,10=2,19=2,28=1/1;
 99/9=1/99;
 -------------------
 Title Card Required
 -------------------
 Symbolic Z-matrix:
 Charge =  0 Multiplicity = 1
 C                    -4.15426  -1.52235   0.01378 
 C                    -2.75303  -1.50062   0.01158 
 C                    -2.07125  -0.27626   0.00496 
 C                    -2.79069   0.92636   0.00054 
 C                    -4.19192   0.90463   0.00274 
 C                    -4.87371  -0.31972   0.00936 
 H                    -4.67482  -2.45717   0.01884 
 H                    -2.20372  -2.41885   0.01496 
 C                    -0.67002  -0.25453   0.00276 
 C                    -2.1089    2.15072  -0.00609 
 H                    -4.74123   1.82286  -0.00064 
 C                    -0.70767   2.17245  -0.00829 
 C                     0.01177   0.96982  -0.00386 
 H                    -2.65821   3.06895  -0.00946 
 H                    -0.18711   3.10727  -0.01334 
 H                     1.08164   0.98642  -0.00555 
 H                    -5.94358  -0.33631   0.01104 
 O                     0.06411  -1.4817    0.00727 
 H                     1.0052   -1.29214   0.005 
 

 GradGradGradGradGradGradGradGradGradGradGradGradGradGradGradGradGradGrad
 Berny optimization.
 Initialization pass.
                           ----------------------------
                           !    Initial Parameters    !
                           ! (Angstroms and Degrees)  !
 --------------------------                            --------------------------
 ! Name  Definition              Value          Derivative Info.                !
 --------------------------------------------------------------------------------
 ! R1    R(1,2)                  1.4014         estimate D2E/DX2                !
 ! R2    R(1,6)                  1.4014         estimate D2E/DX2                !
 ! R3    R(1,7)                  1.07           estimate D2E/DX2                !
 ! R4    R(2,3)                  1.4014         estimate D2E/DX2                !
 ! R5    R(2,8)                  1.07           estimate D2E/DX2                !
 ! R6    R(3,4)                  1.4014         estimate D2E/DX2                !
 ! R7    R(3,9)                  1.4014         estimate D2E/DX2                !
 ! R8    R(4,5)                  1.4014         estimate D2E/DX2                !
 ! R9    R(4,10)                 1.4014         estimate D2E/DX2                !
 ! R10   R(5,6)                  1.4014         estimate D2E/DX2                !
 ! R11   R(5,11)                 1.07           estimate D2E/DX2                !
 ! R12   R(6,17)                 1.07           estimate D2E/DX2                !
 ! R13   R(9,13)                 1.4014         estimate D2E/DX2                !
 ! R14   R(9,18)                 1.43           estimate D2E/DX2                !
 ! R15   R(10,12)                1.4014         estimate D2E/DX2                !
 ! R16   R(10,14)                1.07           estimate D2E/DX2                !
 ! R17   R(12,13)                1.4014         estimate D2E/DX2                !
 ! R18   R(12,15)                1.07           estimate D2E/DX2                !
 ! R19   R(13,16)                1.07           estimate D2E/DX2                !
 ! R20   R(18,19)                0.96           estimate D2E/DX2                !
 ! A1    A(2,1,6)              120.0            estimate D2E/DX2                !
 ! A2    A(2,1,7)              120.0            estimate D2E/DX2                !
 ! A3    A(6,1,7)              120.0            estimate D2E/DX2                !
 ! A4    A(1,2,3)              120.0            estimate D2E/DX2                !
 ! A5    A(1,2,8)              120.0            estimate D2E/DX2                !
 ! A6    A(3,2,8)              120.0            estimate D2E/DX2                !
 ! A7    A(2,3,4)              120.0            estimate D2E/DX2                !
 ! A8    A(2,3,9)              120.0            estimate D2E/DX2                !
 ! A9    A(4,3,9)              120.0            estimate D2E/DX2                !
 ! A10   A(3,4,5)              120.0            estimate D2E/DX2                !
 ! A11   A(3,4,10)             120.0            estimate D2E/DX2                !
 ! A12   A(5,4,10)             120.0            estimate D2E/DX2                !
 ! A13   A(4,5,6)              120.0            estimate D2E/DX2                !
 ! A14   A(4,5,11)             120.0            estimate D2E/DX2                !
 ! A15   A(6,5,11)             120.0            estimate D2E/DX2                !
 ! A16   A(1,6,5)              120.0            estimate D2E/DX2                !
 ! A17   A(1,6,17)             120.0            estimate D2E/DX2                !
 ! A18   A(5,6,17)             120.0            estimate D2E/DX2                !
 ! A19   A(3,9,13)             120.0            estimate D2E/DX2                !
 ! A20   A(3,9,18)             120.0            estimate D2E/DX2                !
 ! A21   A(13,9,18)            120.0            estimate D2E/DX2                !
 ! A22   A(4,10,12)            120.0            estimate D2E/DX2                !
 ! A23   A(4,10,14)            120.0            estimate D2E/DX2                !
 ! A24   A(12,10,14)           120.0            estimate D2E/DX2                !
 ! A25   A(10,12,13)           120.0            estimate D2E/DX2                !
 ! A26   A(10,12,15)           120.0            estimate D2E/DX2                !
 ! A27   A(13,12,15)           120.0            estimate D2E/DX2                !
 ! A28   A(9,13,12)            120.0            estimate D2E/DX2                !
 ! A29   A(9,13,16)            120.0            estimate D2E/DX2                !
 ! A30   A(12,13,16)           120.0            estimate D2E/DX2                !
 ! A31   A(9,18,19)            109.5            estimate D2E/DX2                !
 ! D1    D(6,1,2,3)              0.0            estimate D2E/DX2                !
 ! D2    D(6,1,2,8)            180.0            estimate D2E/DX2                !
 ! D3    D(7,1,2,3)           -180.0            estimate D2E/DX2                !
 ! D4    D(7,1,2,8)              0.0            estimate D2E/DX2                !
 ! D5    D(2,1,6,5)              0.0            estimate D2E/DX2                !
 ! D6    D(2,1,6,17)           180.0            estimate D2E/DX2                !
 ! D7    D(7,1,6,5)            179.9999         estimate D2E/DX2                !
 ! D8    D(7,1,6,17)            -0.0001         estimate D2E/DX2                !
 ! D9    D(1,2,3,4)              0.0            estimate D2E/DX2                !
 ! D10   D(1,2,3,9)           -179.9999         estimate D2E/DX2                !
 ! D11   D(8,2,3,4)           -179.9999         estimate D2E/DX2                !
 ! D12   D(8,2,3,9)              0.0001         estimate D2E/DX2                !
 ! D13   D(2,3,4,5)             -0.0001         estimate D2E/DX2                !
 ! D14   D(2,3,4,10)           180.0            estimate D2E/DX2                !
 ! D15   D(9,3,4,5)            179.9999         estimate D2E/DX2                !
 ! D16   D(9,3,4,10)            -0.0001         estimate D2E/DX2                !
 ! D17   D(2,3,9,13)          -180.0            estimate D2E/DX2                !
 ! D18   D(2,3,9,18)             0.0001         estimate D2E/DX2                !
 ! D19   D(4,3,9,13)             0.0            estimate D2E/DX2                !
 ! D20   D(4,3,9,18)          -179.9998         estimate D2E/DX2                !
 ! D21   D(3,4,5,6)              0.0001         estimate D2E/DX2                !
 ! D22   D(3,4,5,11)           180.0            estimate D2E/DX2                !
 ! D23   D(10,4,5,6)          -180.0            estimate D2E/DX2                !
 ! D24   D(10,4,5,11)            0.0            estimate D2E/DX2                !
 ! D25   D(3,4,10,12)            0.0            estimate D2E/DX2                !
 ! D26   D(3,4,10,14)         -180.0            estimate D2E/DX2                !
 ! D27   D(5,4,10,12)         -179.9999         estimate D2E/DX2                !
 ! D28   D(5,4,10,14)            0.0            estimate D2E/DX2                !
 ! D29   D(4,5,6,1)              0.0            estimate D2E/DX2                !
 ! D30   D(4,5,6,17)          -180.0            estimate D2E/DX2                !
 ! D31   D(11,5,6,1)          -179.9999         estimate D2E/DX2                !
 ! D32   D(11,5,6,17)            0.0001         estimate D2E/DX2                !
 ! D33   D(3,9,13,12)            0.0            estimate D2E/DX2                !
 ! D34   D(3,9,13,16)          180.0            estimate D2E/DX2                !
 ! D35   D(18,9,13,12)         179.9999         estimate D2E/DX2                !
 ! D36   D(18,9,13,16)          -0.0002         estimate D2E/DX2                !
 ! D37   D(3,9,18,19)         -179.9995         estimate D2E/DX2                !
 ! D38   D(13,9,18,19)           0.0007         estimate D2E/DX2                !
 ! D39   D(4,10,12,13)           0.0            estimate D2E/DX2                !
 ! D40   D(4,10,12,15)        -179.9999         estimate D2E/DX2                !
 ! D41   D(14,10,12,13)       -180.0            estimate D2E/DX2                !
 ! D42   D(14,10,12,15)          0.0001         estimate D2E/DX2                !
 ! D43   D(10,12,13,9)           0.0            estimate D2E/DX2                !
 ! D44   D(10,12,13,16)       -180.0            estimate D2E/DX2                !
 ! D45   D(15,12,13,9)         179.9999         estimate D2E/DX2                !
 ! D46   D(15,12,13,16)         -0.0001         estimate D2E/DX2                !
 --------------------------------------------------------------------------------
 Trust Radius=3.00D-01 FncErr=1.00D-07 GrdErr=1.00D-06
 Number of steps in this run=    107 maximum allowed number of steps=    114.
 GradGradGradGradGradGradGradGradGradGradGradGradGradGradGradGradGradGrad

                          Input orientation:                          
 ---------------------------------------------------------------------
 Center     Atomic      Atomic             Coordinates (Angstroms)
 Number     Number       Type             X           Y           Z
 ---------------------------------------------------------------------
      1          6           0       -4.154263   -1.522346    0.013784
      2          6           0       -2.753033   -1.500615    0.011584
      3          6           0       -2.071246   -0.276261    0.004960
      4          6           0       -2.790688    0.926364    0.000538
      5          6           0       -4.191918    0.904633    0.002737
      6          6           0       -4.873705   -0.319721    0.009360
      7          1           0       -4.674823   -2.457167    0.018842
      8          1           0       -2.203723   -2.418846    0.014962
      9          6           0       -0.670016   -0.254530    0.002758
     10          6           0       -2.108901    2.150718   -0.006085
     11          1           0       -4.741228    1.822863   -0.000639
     12          6           0       -0.707671    2.172448   -0.008286
     13          6           0        0.011771    0.969824   -0.003865
     14          1           0       -2.658211    3.068948   -0.009462
     15          1           0       -0.187111    3.107270   -0.013342
     16          1           0        1.081641    0.986416   -0.005545
     17          1           0       -5.943576   -0.336313    0.011040
     18          8           0        0.064109   -1.481698    0.007268
     19          1           0        1.005205   -1.292138    0.004997
 ---------------------------------------------------------------------
                    Distance matrix (angstroms):
                    1          2          3          4          5
     1  C    0.000000
     2  C    1.401400   0.000000
     3  C    2.427296   1.401400   0.000000
     4  C    2.802800   2.427296   1.401400   0.000000
     5  C    2.427296   2.802800   2.427296   1.401400   0.000000
     6  C    1.401400   2.427296   2.802800   2.427296   1.401400
     7  H    1.070000   2.146700   3.396345   3.872800   3.396345
     8  H    2.146700   1.070000   2.146700   3.396345   3.872800
     9  C    3.707756   2.427296   1.401400   2.427296   3.707756
    10  C    4.204200   3.707756   2.427296   1.401400   2.427296
    11  H    3.396345   3.872800   3.396345   2.146700   1.070000
    12  C    5.052820   4.204200   2.802800   2.427296   3.707756
    13  C    4.854592   3.707756   2.427296   2.802800   4.204200
    14  H    4.828943   4.570596   3.396345   2.146700   2.652671
    15  H    6.096915   5.274200   3.872800   3.396345   4.570596
    16  H    5.805941   4.570596   3.396345   3.872800   5.274200
    17  H    2.146700   3.396345   3.872800   3.396345   2.146700
    18  O    4.218573   2.817209   2.452106   3.734792   4.879381
    19  H    5.164609   3.764022   3.239839   4.396655   5.642331
                    6          7          8          9         10
     6  C    0.000000
     7  H    2.146700   0.000000
     8  H    3.396345   2.471400   0.000000
     9  C    4.204200   4.570596   2.652671   0.000000
    10  C    3.707756   5.274200   4.570596   2.802800   0.000000
    11  H    2.146700   4.280590   4.942800   4.570596   2.652671
    12  C    4.854592   6.096915   4.828943   2.427296   1.401400
    13  C    5.052820   5.805941   4.048685   1.401400   2.427296
    14  H    4.048685   5.882642   5.506636   3.872800   1.070000
    15  H    5.805941   7.148675   5.882642   3.396345   2.146700
    16  H    6.096915   6.707886   4.731791   2.146700   3.396345
    17  H    1.070000   2.471400   4.280590   5.274200   4.570596
    18  O    5.072692   4.838300   2.453847   1.430000   4.232800
    19  H    5.958792   5.798293   3.400998   1.970533   4.642309
                   11         12         13         14         15
    11  H    0.000000
    12  C    4.048685   0.000000
    13  C    4.828943   1.401400   0.000000
    14  H    2.427296   2.146700   3.396345   0.000000
    15  H    4.731791   1.070000   2.146700   2.471400   0.000000
    16  H    5.882642   2.146700   1.070000   4.280590   2.471400
    17  H    2.471400   5.805941   6.096915   4.731791   6.707886
    18  O    5.831934   3.734792   2.452106   5.302800   4.595886
    19  H    6.536418   3.864904   2.470519   5.695604   4.558152
                   16         17         18         19
    16  H    0.000000
    17  H    7.148675   0.000000
    18  O    2.669667   6.115897   0.000000
    19  H    2.279860   7.014213   0.960000   0.000000
 Stoichiometry    C10H8O
 Framework group  C1[X(C10H8O)]
 Deg. of freedom    51
 Full point group                 C1      NOp   1
 Largest Abelian subgroup         C1      NOp   1
 Largest concise Abelian subgroup C1      NOp   1
                         Standard orientation:                         
 ---------------------------------------------------------------------
 Center     Atomic      Atomic             Coordinates (Angstroms)
 Number     Number       Type             X           Y           Z
 ---------------------------------------------------------------------
      1          6           0       -2.346019   -1.113759    0.000001
      2          6           0       -0.982341   -1.436721    0.000001
      3          6           0       -0.020808   -0.417223    0.000001
      4          6           0       -0.422954    0.925238    0.000000
      5          6           0       -1.786632    1.248200   -0.000001
      6          6           0       -2.748164    0.228702   -0.000001
      7          1           0       -3.080170   -1.892169    0.000002
      8          1           0       -0.675294   -2.461720    0.000003
      9          6           0        1.342869   -0.740185    0.000000
     10          6           0        0.538579    1.944736    0.000000
     11          1           0       -2.093678    2.273199   -0.000001
     12          6           0        1.902257    1.621774    0.000000
     13          6           0        2.304402    0.279313    0.000000
     14          1           0        0.231532    2.969735    0.000000
     15          1           0        2.636408    2.400183    0.000002
     16          1           0        3.345600    0.032724    0.000000
     17          1           0       -3.789362    0.475291   -0.000002
     18          8           0        1.753222   -2.110043   -0.000003
     19          1           0        2.712056   -2.157341    0.000006
 ---------------------------------------------------------------------
 Rotational constants (GHZ):      1.9325792      1.1361229      0.7154971
 Standard basis: 6-31+G(d) (6D, 7F)
 There are   225 symmetry adapted cartesian basis functions of A   symmetry.
 There are   225 symmetry adapted basis functions of A   symmetry.
   225 basis functions,   384 primitive gaussians,   225 cartesian basis functions
    38 alpha electrons       38 beta electrons
       nuclear repulsion energy       551.6374762447 Hartrees.
 NAtoms=   19 NActive=   19 NUniq=   19 SFac= 1.00D+00 NAtFMM=   60 NAOKFM=F Big=F
 Integral buffers will be    131072 words long.
 Raffenetti 2 integral format.
 Two-electron integral symmetry is turned on.
 Nuclear repulsion after empirical dispersion term =      551.6243452945 Hartrees.
 One-electron integrals computed using PRISM.
 NBasis=   225 RedAO= T EigKep=  1.14D-06  NBF=   225
 NBsUse=   224 1.00D-06 EigRej=  6.32D-07 NBFU=   224
 ExpMin= 4.38D-02 ExpMax= 5.48D+03 ExpMxC= 8.25D+02 IAcc=2 IRadAn=         4 AccDes= 0.00D+00
 Harris functional with IExCor=  402 and IRadAn=       4 diagonalized for initial guess.
 HarFok:  IExCor=  402 AccDes= 0.00D+00 IRadAn=         4 IDoV= 1 UseB2=F ITyADJ=14
 ICtDFT=  3500011 ScaDFX=  1.000000  1.000000  1.000000  1.000000
 FoFCou: FMM=F IPFlag=           0 FMFlag=      100000 FMFlg1=           0
         NFxFlg=           0 DoJE=T BraDBF=F KetDBF=T FulRan=T
         wScrn=  0.000000 ICntrl=     500 IOpCl=  0 I1Cent=   200000004 NGrid=           0
         NMat0=    1 NMatS0=      1 NMatT0=    0 NMatD0=    1 NMtDS0=    0 NMtDT0=    0
 Petite list used in FoFCou.
 Keep R1 ints in memory in canonical form, NReq=329172959.
 Requested convergence on RMS density matrix=1.00D-08 within 128 cycles.
 Requested convergence on MAX density matrix=1.00D-06.
 Requested convergence on             energy=1.00D-06.
 No special actions if energy rises.
 SCF Done:  E(RB3LYP) =  -461.132723310     A.U. after   15 cycles
            NFock= 15  Conv=0.64D-08     -V/T= 2.0093

 **********************************************************************

            Population analysis using the SCF density.

 **********************************************************************

 Orbital symmetries:
       Occupied  (A) (A) (A) (A) (A) (A) (A) (A) (A) (A) (A) (A)
                 (A) (A) (A) (A) (A) (A) (A) (A) (A) (A) (A) (A)
                 (A) (A) (A) (A) (A) (A) (A) (A) (A) (A) (A) (A)
                 (A) (A)
       Virtual   (A) (A) (A) (A) (A) (A) (A) (A) (A) (A) (A) (A)
                 (A) (A) (A) (A) (A) (A) (A) (A) (A) (A) (A) (A)
                 (A) (A) (A) (A) (A) (A) (A) (A) (A) (A) (A) (A)
                 (A) (A) (A) (A) (A) (A) (A) (A) (A) (A) (A) (A)
                 (A) (A) (A) (A) (A) (A) (A) (A) (A) (A) (A) (A)
                 (A) (A) (A) (A) (A) (A) (A) (A) (A) (A) (A) (A)
                 (A) (A) (A) (A) (A) (A) (A) (A) (A) (A) (A) (A)
                 (A) (A) (A) (A) (A) (A) (A) (A) (A) (A) (A) (A)
                 (A) (A) (A) (A) (A) (A) (A) (A) (A) (A) (A) (A)
                 (A) (A) (A) (A) (A) (A) (A) (A) (A) (A) (A) (A)
                 (A) (A) (A) (A) (A) (A) (A) (A) (A) (A) (A) (A)
                 (A) (A) (A) (A) (A) (A) (A) (A) (A) (A) (A) (A)
                 (A) (A) (A) (A) (A) (A) (A) (A) (A) (A) (A) (A)
                 (A) (A) (A) (A) (A) (A) (A) (A) (A) (A) (A) (A)
                 (A) (A) (A) (A) (A) (A) (A) (A) (A) (A) (A) (A)
                 (A) (A) (A) (A) (A) (A)
 The electronic state is 1-A.
 Alpha  occ. eigenvalues --  -19.19280 -10.26396 -10.20285 -10.20205 -10.20162
 Alpha  occ. eigenvalues --  -10.19981 -10.19757 -10.19632 -10.19546 -10.19453
 Alpha  occ. eigenvalues --  -10.19204  -1.05457  -0.88530  -0.82619  -0.78067
 Alpha  occ. eigenvalues --   -0.75493  -0.71849  -0.64181  -0.62629  -0.61098
 Alpha  occ. eigenvalues --   -0.54650  -0.52578  -0.50909  -0.49024  -0.45876
 Alpha  occ. eigenvalues --   -0.43890  -0.42993  -0.41897  -0.41308  -0.39993
 Alpha  occ. eigenvalues --   -0.37857  -0.36835  -0.35141  -0.34077  -0.32484
 Alpha  occ. eigenvalues --   -0.27605  -0.25642  -0.20907
 Alpha virt. eigenvalues --   -0.04972  -0.01909  -0.00595   0.01058   0.01579
 Alpha virt. eigenvalues --    0.01708   0.02928   0.03697   0.05451   0.05696
 Alpha virt. eigenvalues --    0.05807   0.06351   0.07175   0.07798   0.08342
 Alpha virt. eigenvalues --    0.09596   0.09978   0.10576   0.12076   0.12352
 Alpha virt. eigenvalues --    0.12636   0.13532   0.14392   0.14658   0.15247
 Alpha virt. eigenvalues --    0.15473   0.16466   0.16523   0.17237   0.18090
 Alpha virt. eigenvalues --    0.18819   0.19553   0.20381   0.20723   0.21175
 Alpha virt. eigenvalues --    0.21597   0.22004   0.22363   0.22390   0.22601
 Alpha virt. eigenvalues --    0.23242   0.24380   0.25894   0.26683   0.26975
 Alpha virt. eigenvalues --    0.27083   0.27389   0.28323   0.28765   0.28914
 Alpha virt. eigenvalues --    0.30143   0.30641   0.32077   0.32495   0.33024
 Alpha virt. eigenvalues --    0.33896   0.35670   0.35732   0.37041   0.38248
 Alpha virt. eigenvalues --    0.39656   0.41623   0.43372   0.45392   0.53046
 Alpha virt. eigenvalues --    0.54327   0.62225   0.65130   0.66400   0.67268
 Alpha virt. eigenvalues --    0.67854   0.67898   0.71376   0.71403   0.71836
 Alpha virt. eigenvalues --    0.73104   0.73708   0.75305   0.75840   0.75975
 Alpha virt. eigenvalues --    0.76829   0.77257   0.77517   0.80045   0.81999
 Alpha virt. eigenvalues --    0.82664   0.87930   0.89533   0.89973   0.90805
 Alpha virt. eigenvalues --    0.93370   0.95682   0.96664   0.98775   1.01664
 Alpha virt. eigenvalues --    1.02744   1.06083   1.06630   1.10839   1.11450
 Alpha virt. eigenvalues --    1.12565   1.14082   1.14652   1.17708   1.19526
 Alpha virt. eigenvalues --    1.19773   1.22159   1.22924   1.24607   1.24878
 Alpha virt. eigenvalues --    1.27182   1.30608   1.33262   1.36426   1.37769
 Alpha virt. eigenvalues --    1.38915   1.41392   1.43830   1.45120   1.46191
 Alpha virt. eigenvalues --    1.47715   1.48587   1.49347   1.49558   1.50966
 Alpha virt. eigenvalues --    1.59516   1.71092   1.72043   1.77254   1.81293
 Alpha virt. eigenvalues --    1.82015   1.83079   1.89358   1.91661   1.94308
 Alpha virt. eigenvalues --    1.94383   1.96622   1.97984   1.99986   2.02783
 Alpha virt. eigenvalues --    2.04387   2.07487   2.09344   2.11302   2.15091
 Alpha virt. eigenvalues --    2.18070   2.19984   2.20791   2.25819   2.28142
 Alpha virt. eigenvalues --    2.29890   2.31638   2.34572   2.35388   2.37699
 Alpha virt. eigenvalues --    2.44812   2.44974   2.52682   2.62068   2.62270
 Alpha virt. eigenvalues --    2.64108   2.67581   2.68276   2.70404   2.73282
 Alpha virt. eigenvalues --    2.78620   2.79484   2.83018   2.87930   2.93615
 Alpha virt. eigenvalues --    2.97092   3.04064   3.12678   3.41500   3.50174
 Alpha virt. eigenvalues --    4.23230   4.23944   4.26275   4.29690   4.30916
 Alpha virt. eigenvalues --    4.32385   4.39027   4.42680   4.48146   4.59488
 Alpha virt. eigenvalues --    4.87285
          Condensed to atoms (all electrons):
               1          2          3          4          5          6
     1  C    9.401021  -2.931797   0.000247   1.768492   0.180220   0.127499
     2  C   -2.931797  11.069155  -0.639410  -3.732907   0.043239  -0.215214
     3  C    0.000247  -0.639410  22.321048  -2.868010  -1.356435   0.561474
     4  C    1.768492  -3.732907  -2.868010  17.920712  -3.529858   0.166082
     5  C    0.180220   0.043239  -1.356435  -3.529858   9.913040  -0.613064
     6  C    0.127499  -0.215214   0.561474   0.166082  -0.613064   6.488452
     7  H    0.358366  -0.064900   0.024120   0.017583   0.041861  -0.062252
     8  H   -0.031178   0.292037  -0.016784   0.064201  -0.014735   0.006827
     9  C   -2.905682   2.743736  -5.762542  -2.155300  -0.351781   0.497934
    10  C    1.066059  -0.803637  -4.283257  -0.439902   1.792490  -0.836462
    11  H    0.002235  -0.015302   0.081814  -0.006418   0.236444   0.043510
    12  C   -0.002022   0.173931   0.219288  -0.135556  -0.575438  -0.279439
    13  C   -0.696855  -0.166724  -2.751572  -0.228917   0.169752   0.138235
    14  H   -0.001322   0.005583   0.069478   0.007465  -0.058829  -0.002171
    15  H   -0.000360   0.008246   0.012498   0.021853  -0.021754   0.000868
    16  H   -0.000875  -0.004411  -0.009178  -0.014621   0.010668  -0.000453
    17  H   -0.067823   0.048642   0.032673   0.008960  -0.054070   0.339717
    18  O    0.067551   0.026755   0.136582   0.067364  -0.009852  -0.001566
    19  H    0.006356   0.010135   0.258150  -0.003186   0.003820  -0.000938
               7          8          9         10         11         12
     1  C    0.358366  -0.031178  -2.905682   1.066059   0.002235  -0.002022
     2  C   -0.064900   0.292037   2.743736  -0.803637  -0.015302   0.173931
     3  C    0.024120  -0.016784  -5.762542  -4.283257   0.081814   0.219288
     4  C    0.017583   0.064201  -2.155300  -0.439902  -0.006418  -0.135556
     5  C    0.041861  -0.014735  -0.351781   1.792490   0.236444  -0.575438
     6  C   -0.062252   0.006827   0.497934  -0.836462   0.043510  -0.279439
     7  H    0.533160  -0.004137  -0.026735   0.009173  -0.000172  -0.001020
     8  H   -0.004137   0.508244  -0.029055   0.002174   0.000018   0.001561
     9  C   -0.026735  -0.029055  12.795586  -0.535992   0.011284  -0.008612
    10  C    0.009173   0.002174  -0.535992  10.827313  -0.071931  -0.200326
    11  H   -0.000172   0.000018   0.011284  -0.071931   0.541373  -0.005963
    12  C   -0.001020   0.001561  -0.008612  -0.200326  -0.005963   6.456233
    13  C   -0.000254   0.005366   1.243950  -0.675505   0.000926   0.488633
    14  H    0.000000   0.000002  -0.014329   0.215283   0.004037   0.042624
    15  H    0.000000   0.000000   0.047835  -0.053514  -0.000009   0.331413
    16  H    0.000000  -0.000009  -0.109298   0.035284   0.000000   0.007534
    17  H   -0.004218  -0.000170   0.007904  -0.021055  -0.004350   0.001647
    18  O    0.000074   0.004325  -0.120285   0.022784   0.000018  -0.002030
    19  H    0.000000  -0.000094  -0.056098  -0.004285   0.000000  -0.015775
              13         14         15         16         17         18
     1  C   -0.696855  -0.001322  -0.000360  -0.000875  -0.067823   0.067551
     2  C   -0.166724   0.005583   0.008246  -0.004411   0.048642   0.026755
     3  C   -2.751572   0.069478   0.012498  -0.009178   0.032673   0.136582
     4  C   -0.228917   0.007465   0.021853  -0.014621   0.008960   0.067364
     5  C    0.169752  -0.058829  -0.021754   0.010668  -0.054070  -0.009852
     6  C    0.138235  -0.002171   0.000868  -0.000453   0.339717  -0.001566
     7  H   -0.000254   0.000000   0.000000   0.000000  -0.004218   0.000074
     8  H    0.005366   0.000002   0.000000  -0.000009  -0.000170   0.004325
     9  C    1.243950  -0.014329   0.047835  -0.109298   0.007904  -0.120285
    10  C   -0.675505   0.215283  -0.053514   0.035284  -0.021055   0.022784
    11  H    0.000926   0.004037  -0.000009   0.000000  -0.004350   0.000018
    12  C    0.488633   0.042624   0.331413   0.007534   0.001647  -0.002030
    13  C    8.513267   0.015666  -0.048187   0.376985  -0.001420  -0.260127
    14  H    0.015666   0.542649  -0.003933  -0.000179  -0.000012   0.000111
    15  H   -0.048187  -0.003933   0.529149  -0.004376   0.000000  -0.000583
    16  H    0.376985  -0.000179  -0.004376   0.556362   0.000000  -0.013534
    17  H   -0.001420  -0.000012   0.000000   0.000000   0.535056   0.000010
    18  O   -0.260127   0.000111  -0.000583  -0.013534   0.000010   8.672640
    19  H   -0.192600  -0.000001  -0.000013   0.008025   0.000000   0.131834
              19
     1  C    0.006356
     2  C    0.010135
     3  C    0.258150
     4  C   -0.003186
     5  C    0.003820
     6  C   -0.000938
     7  H    0.000000
     8  H   -0.000094
     9  C   -0.056098
    10  C   -0.004285
    11  H    0.000000
    12  C   -0.015775
    13  C   -0.192600
    14  H   -0.000001
    15  H   -0.000013
    16  H    0.008025
    17  H    0.000000
    18  O    0.131834
    19  H    0.350400
 Mulliken charges:
               1
     1  C   -0.340130
     2  C    0.152845
     3  C   -0.030184
     4  C   -0.928037
     5  C    0.194282
     6  C   -0.359040
     7  H    0.179354
     8  H    0.211408
     9  C    0.727481
    10  C   -0.044694
    11  H    0.182487
    12  C   -0.496683
    13  C    0.069382
    14  H    0.177877
    15  H    0.180867
    16  H    0.162077
    17  H    0.178510
    18  O   -0.722071
    19  H    0.504269
 Sum of Mulliken charges =   0.00000
 Mulliken charges with hydrogens summed into heavy atoms:
               1
     1  C   -0.160777
     2  C    0.364253
     3  C   -0.030184
     4  C   -0.928037
     5  C    0.376769
     6  C   -0.180530
     9  C    0.727481
    10  C    0.133183
    12  C   -0.315816
    13  C    0.231459
    18  O   -0.217802
 Electronic spatial extent (au):  <R**2>=           1552.9258
 Charge=              0.0000 electrons
 Dipole moment (field-independent basis, Debye):
    X=              1.0869    Y=              0.6090    Z=              0.0000  Tot=              1.2458
 Quadrupole moment (field-independent basis, Debye-Ang):
   XX=            -50.7605   YY=            -60.6686   ZZ=            -69.9381
   XY=             -1.8212   XZ=              0.0000   YZ=              0.0000
 Traceless Quadrupole moment (field-independent basis, Debye-Ang):
   XX=              9.6953   YY=             -0.2129   ZZ=             -9.4824
   XY=             -1.8212   XZ=              0.0000   YZ=              0.0000
 Octapole moment (field-independent basis, Debye-Ang**2):
  XXX=             28.7057  YYY=              3.3073  ZZZ=              0.0000  XYY=              3.3048
  XXY=            -15.5988  XXZ=              0.0001  XZZ=              4.0452  YZZ=             -4.7489
  YYZ=              0.0001  XYZ=             -0.0001
 Hexadecapole moment (field-independent basis, Debye-Ang**3):
 XXXX=          -1098.0042 YYYY=           -738.9146 ZZZZ=            -85.2056 XXXY=            -61.3122
 XXXZ=              0.0004 YYYX=            -14.8687 YYYZ=             -0.0002 ZZZX=              0.0000
 ZZZY=              0.0000 XXYY=           -288.0132 XXZZ=           -255.9813 YYZZ=           -158.1220
 XXYZ=             -0.0003 YYXZ=              0.0002 ZZXY=             -9.4186
 N-N= 5.516243452945D+02 E-N=-2.173564301622D+03  KE= 4.568902935035D+02
 Calling FoFJK, ICntrl=      2127 FMM=F ISym2X=0 I1Cent= 0 IOpClX= 0 NMat=1 NMatS=1 NMatT=0.
 ***** Axes restored to original set *****
 -------------------------------------------------------------------
 Center     Atomic                   Forces (Hartrees/Bohr)
 Number     Number              X              Y              Z
 -------------------------------------------------------------------
      1        6           0.026419501    0.002435202   -0.000050758
      2        6          -0.034413679   -0.005459635    0.000076619
      3        6           0.008071594   -0.029284303    0.000121799
      4        6          -0.005961309    0.021154105   -0.000087895
      5        6          -0.018976572   -0.032882272    0.000178980
      6        6           0.013846726    0.022817610   -0.000125161
      7        1          -0.005335880   -0.010790409    0.000057348
      8        1           0.006233523   -0.008429570    0.000029190
      9        6           0.050339900    0.001745045   -0.000083665
     10        6           0.035510303    0.005017722   -0.000076257
     11        1          -0.005263651    0.010766129   -0.000041396
     12        6          -0.028716528   -0.004025436    0.000061604
     13        6          -0.013811590   -0.019822844    0.000111487
     14        1          -0.006456374    0.010000371   -0.000036043
     15        1           0.006224754    0.010065054   -0.000055428
     16        1           0.013068115   -0.000072560   -0.000019313
     17        1          -0.012268817    0.000230358    0.000017356
     18        8          -0.036336626    0.021783548   -0.000045039
     19        1           0.007826609    0.004751883   -0.000033429
 -------------------------------------------------------------------
 Cartesian Forces:  Max     0.050339900 RMS     0.015449828

 GradGradGradGradGradGradGradGradGradGradGradGradGradGradGradGradGradGrad
 Berny optimization.
 FormGI is forming the generalized inverse of G from B-inverse, IUseBI=4.
 Internal  Forces:  Max     0.037414947 RMS     0.008005018
 Search for a local minimum.
 Step number   1 out of a maximum of  107
 All quantities printed in internal units (Hartrees-Bohrs-Radians)
 Mixed Optimization -- RFO/linear search
 Second derivative matrix not updated -- first step.
 ITU=  0
     Eigenvalues ---    0.01295   0.01931   0.02070   0.02070   0.02070
     Eigenvalues ---    0.02070   0.02070   0.02070   0.02070   0.02070
     Eigenvalues ---    0.02070   0.02070   0.02070   0.02070   0.02070
     Eigenvalues ---    0.02070   0.16000   0.16000   0.16000   0.16000
     Eigenvalues ---    0.16000   0.16000   0.16000   0.16000   0.22000
     Eigenvalues ---    0.22082   0.22580   0.23540   0.24510   0.24932
     Eigenvalues ---    0.25000   0.37230   0.37230   0.37230   0.37230
     Eigenvalues ---    0.37230   0.37230   0.37230   0.39092   0.40989
     Eigenvalues ---    0.41120   0.41752   0.43078   0.45389   0.45389
     Eigenvalues ---    0.45389   0.45389   0.45389   0.45389   0.45389
     Eigenvalues ---    0.55473
 RFO step:  Lambda=-1.54165418D-02 EMin= 1.29493779D-02
 Linear search not attempted -- first point.
 Iteration  1 RMS(Cart)=  0.02643431 RMS(Int)=  0.00028534
 Iteration  2 RMS(Cart)=  0.00040828 RMS(Int)=  0.00005420
 Iteration  3 RMS(Cart)=  0.00000023 RMS(Int)=  0.00005420
 Variable       Old X    -DE/DX   Delta X   Delta X   Delta X     New X
                                 (Linear)    (Quad)   (Total)
    R1        2.64826  -0.01485   0.00000  -0.03327  -0.03334   2.61493
    R2        2.64826   0.01270   0.00000   0.02365   0.02357   2.67183
    R3        2.02201   0.01203   0.00000   0.03102   0.03102   2.05302
    R4        2.64826   0.01630   0.00000   0.03651   0.03652   2.68478
    R5        2.02201   0.01044   0.00000   0.02692   0.02692   2.04893
    R6        2.64826   0.02454   0.00000   0.05909   0.05927   2.70753
    R7        2.64826   0.01387   0.00000   0.03122   0.03131   2.67958
    R8        2.64826   0.01654   0.00000   0.03687   0.03693   2.68519
    R9        2.64826   0.01783   0.00000   0.03971   0.03971   2.68798
   R10        2.64826  -0.01431   0.00000  -0.03226  -0.03227   2.61599
   R11        2.02201   0.01194   0.00000   0.03079   0.03079   2.05280
   R12        2.02201   0.01226   0.00000   0.03163   0.03163   2.05363
   R13        2.64826  -0.01398   0.00000  -0.03150  -0.03151   2.61675
   R14        2.70231  -0.03741   0.00000  -0.08797  -0.08797   2.61434
   R15        2.64826  -0.01505   0.00000  -0.03375  -0.03385   2.61442
   R16        2.02201   0.01190   0.00000   0.03069   0.03069   2.05270
   R17        2.64826   0.01111   0.00000   0.02028   0.02018   2.66844
   R18        2.02201   0.01182   0.00000   0.03049   0.03049   2.05250
   R19        2.02201   0.01306   0.00000   0.03369   0.03369   2.05570
   R20        1.81414   0.00862   0.00000   0.01511   0.01511   1.82925
    A1        2.09440   0.00362   0.00000   0.00644   0.00632   2.10072
    A2        2.09440  -0.00241   0.00000  -0.00665  -0.00659   2.08780
    A3        2.09440  -0.00121   0.00000   0.00021   0.00027   2.09466
    A4        2.09440   0.00039   0.00000   0.00330   0.00327   2.09767
    A5        2.09440   0.00084   0.00000   0.00427   0.00428   2.09868
    A6        2.09440  -0.00124   0.00000  -0.00757  -0.00756   2.08684
    A7        2.09440  -0.00240   0.00000  -0.00382  -0.00382   2.09058
    A8        2.09440   0.01243   0.00000   0.03626   0.03609   2.13048
    A9        2.09440  -0.01003   0.00000  -0.03244  -0.03227   2.06213
   A10        2.09440  -0.00869   0.00000  -0.02781  -0.02770   2.06670
   A11        2.09440  -0.00311   0.00000  -0.00614  -0.00609   2.08830
   A12        2.09440   0.01179   0.00000   0.03395   0.03379   2.12819
   A13        2.09440   0.00310   0.00000   0.01422   0.01430   2.10870
   A14        2.09440  -0.00257   0.00000  -0.01290  -0.01294   2.08146
   A15        2.09440  -0.00054   0.00000  -0.00132  -0.00136   2.09303
   A16        2.09440   0.00398   0.00000   0.00767   0.00762   2.10201
   A17        2.09440  -0.00157   0.00000  -0.00146  -0.00143   2.09296
   A18        2.09440  -0.00240   0.00000  -0.00621  -0.00619   2.08821
   A19        2.09440   0.00658   0.00000   0.02621   0.02632   2.12072
   A20        2.09440  -0.01509   0.00000  -0.05758  -0.05764   2.03675
   A21        2.09440   0.00852   0.00000   0.03138   0.03132   2.12571
   A22        2.09440   0.00060   0.00000   0.00433   0.00426   2.09866
   A23        2.09440  -0.00072   0.00000  -0.00454  -0.00451   2.08989
   A24        2.09440   0.00012   0.00000   0.00021   0.00025   2.09464
   A25        2.09440   0.00454   0.00000   0.01070   0.01052   2.10492
   A26        2.09440  -0.00173   0.00000  -0.00227  -0.00218   2.09221
   A27        2.09440  -0.00281   0.00000  -0.00843  -0.00834   2.08605
   A28        2.09440   0.00142   0.00000  -0.00266  -0.00275   2.09165
   A29        2.09440  -0.00098   0.00000  -0.00021  -0.00017   2.09422
   A30        2.09440  -0.00044   0.00000   0.00288   0.00292   2.09731
   A31        1.91114  -0.00566   0.00000  -0.03226  -0.03226   1.87888
    D1        0.00000   0.00000   0.00000   0.00000   0.00000   0.00000
    D2        3.14159   0.00000   0.00000   0.00000   0.00000   3.14159
    D3       -3.14159   0.00000   0.00000   0.00000   0.00000  -3.14159
    D4        0.00000   0.00000   0.00000   0.00000   0.00000   0.00000
    D5        0.00000   0.00000   0.00000   0.00000   0.00000   0.00000
    D6        3.14159   0.00000   0.00000   0.00000   0.00000   3.14159
    D7        3.14159   0.00000   0.00000   0.00000   0.00000   3.14159
    D8        0.00000   0.00000   0.00000   0.00000   0.00000   0.00000
    D9        0.00000   0.00000   0.00000   0.00000   0.00000   0.00000
   D10       -3.14159   0.00000   0.00000   0.00000   0.00000  -3.14159
   D11       -3.14159   0.00000   0.00000   0.00000   0.00000  -3.14159
   D12        0.00000   0.00000   0.00000   0.00000   0.00000   0.00000
   D13        0.00000   0.00000   0.00000   0.00000   0.00000   0.00000
   D14        3.14159   0.00000   0.00000   0.00000   0.00000   3.14159
   D15        3.14159   0.00000   0.00000   0.00000   0.00000   3.14159
   D16        0.00000   0.00000   0.00000   0.00000   0.00000   0.00000
   D17       -3.14159   0.00000   0.00000   0.00000   0.00000  -3.14159
   D18        0.00000   0.00000   0.00000   0.00000   0.00000   0.00000
   D19        0.00000   0.00000   0.00000   0.00000   0.00000   0.00000
   D20       -3.14159   0.00000   0.00000   0.00000   0.00000  -3.14159
   D21        0.00000   0.00000   0.00000   0.00000   0.00000   0.00000
   D22        3.14159   0.00000   0.00000   0.00000   0.00000   3.14159
   D23       -3.14159   0.00000   0.00000   0.00000   0.00000  -3.14159
   D24        0.00000   0.00000   0.00000   0.00000   0.00000   0.00000
   D25        0.00000   0.00000   0.00000   0.00000   0.00000   0.00000
   D26       -3.14159   0.00000   0.00000   0.00000   0.00000  -3.14159
   D27       -3.14159   0.00000   0.00000   0.00000   0.00000  -3.14159
   D28        0.00000   0.00000   0.00000   0.00000   0.00000   0.00000
   D29        0.00000   0.00000   0.00000   0.00000   0.00000   0.00000
   D30       -3.14159   0.00000   0.00000   0.00000   0.00000  -3.14159
   D31       -3.14159   0.00000   0.00000   0.00000   0.00000  -3.14159
   D32        0.00000   0.00000   0.00000   0.00000   0.00000   0.00000
   D33        0.00000   0.00000   0.00000   0.00000   0.00000   0.00000
   D34        3.14159   0.00000   0.00000   0.00000   0.00000   3.14159
   D35        3.14159   0.00000   0.00000   0.00000   0.00000   3.14159
   D36        0.00000   0.00000   0.00000   0.00000   0.00000   0.00000
   D37       -3.14158   0.00000   0.00000   0.00000   0.00000  -3.14158
   D38        0.00001   0.00000   0.00000   0.00000   0.00000   0.00001
   D39        0.00000   0.00000   0.00000   0.00000   0.00000   0.00000
   D40       -3.14159   0.00000   0.00000   0.00000   0.00000  -3.14159
   D41       -3.14159   0.00000   0.00000   0.00000   0.00000  -3.14159
   D42        0.00000   0.00000   0.00000   0.00000   0.00000   0.00000
   D43        0.00000   0.00000   0.00000   0.00000   0.00000   0.00000
   D44       -3.14159   0.00000   0.00000   0.00000   0.00000   3.14159
   D45        3.14159   0.00000   0.00000   0.00000   0.00000   3.14159
   D46        0.00000   0.00000   0.00000   0.00000   0.00000   0.00000
         Item               Value     Threshold  Converged?
 Maximum Force            0.037415     0.000450     NO 
 RMS     Force            0.008005     0.000300     NO 
 Maximum Displacement     0.082251     0.001800     NO 
 RMS     Displacement     0.026502     0.001200     NO 
 Predicted change in Energy=-8.011606D-03
 GradGradGradGradGradGradGradGradGradGradGradGradGradGradGradGradGradGrad

                          Input orientation:                          
 ---------------------------------------------------------------------
 Center     Atomic      Atomic             Coordinates (Angstroms)
 Number     Number       Type             X           Y           Z
 ---------------------------------------------------------------------
      1          6           0       -4.152851   -1.539514    0.013860
      2          6           0       -2.769129   -1.529645    0.011740
      3          6           0       -2.063527   -0.296542    0.005041
      4          6           0       -2.789420    0.938719    0.000479
      5          6           0       -4.209472    0.888463    0.002838
      6          6           0       -4.876208   -0.324700    0.009387
      7          1           0       -4.683085   -2.487732    0.018994
      8          1           0       -2.216320   -2.462371    0.015179
      9          6           0       -0.646689   -0.239915    0.002656
     10          6           0       -2.080172    2.171677   -0.006224
     11          1           0       -4.773594    1.816790   -0.000563
     12          6           0       -0.696707    2.179764   -0.008336
     13          6           0        0.029263    0.968602   -0.003885
     14          1           0       -2.629017    3.109054   -0.009689
     15          1           0       -0.161217    3.124707   -0.013461
     16          1           0        1.116994    0.983237   -0.005584
     17          1           0       -5.962823   -0.340878    0.011090
     18          8           0        0.023736   -1.450055    0.007185
     19          1           0        0.972851   -1.259810    0.004899
 ---------------------------------------------------------------------
                    Distance matrix (angstroms):
                    1          2          3          4          5
     1  C    0.000000
     2  C    1.383759   0.000000
     3  C    2.431118   1.420726   0.000000
     4  C    2.828562   2.468473   1.432763   0.000000
     5  C    2.428662   2.814589   2.451392   1.420943   0.000000
     6  C    1.413874   2.427278   2.812826   2.439465   1.384321
     7  H    1.086413   2.140376   3.415201   3.914956   3.409291
     8  H    2.145185   1.084245   2.171236   3.449068   3.898832
     9  C    3.739286   2.483594   1.417971   2.445502   3.737200
    10  C    4.250805   3.764940   2.468301   1.422415   2.486089
    11  H    3.413254   3.900853   3.436665   2.169782   1.086294
    12  C    5.077249   4.249124   2.828510   2.433047   3.742606
    13  C    4.876581   3.751331   2.445494   2.818845   4.239498
    14  H    4.892015   4.640864   3.452257   2.176278   2.725622
    15  H    6.139124   5.335244   3.914597   3.418507   4.624870
    16  H    5.842595   4.627832   3.428361   3.906672   5.327315
    17  H    2.170884   3.407763   3.899553   3.421691   2.141398
    18  O    4.177551   2.794003   2.384798   3.690546   4.836190
    19  H    5.133336   3.751703   3.185510   4.357549   5.609951
                    6          7          8          9         10
     6  C    0.000000
     7  H    2.171658   0.000000
     8  H    3.412430   2.466898   0.000000
     9  C    4.230375   4.620113   2.720884   0.000000
    10  C    3.748328   5.337218   4.636097   2.805482   0.000000
    11  H    2.143970   4.305518   4.985089   4.611007   2.716707
    12  C    4.872462   6.138198   4.884587   2.420221   1.383490
    13  C    5.073111   5.844057   4.100559   1.384727   2.428397
    14  H    4.103766   5.961882   5.586744   3.891705   1.086240
    15  H    5.842095   7.207484   5.953126   3.399503   2.142593
    16  H    6.134280   6.759374   4.794124   2.146333   3.410903
    17  H    1.086737   2.499356   4.305466   5.317100   4.624740
    18  O    5.027513   4.819863   2.458191   1.383448   4.188502
    19  H    5.923339   5.787711   3.408382   1.913923   4.593058
                   11         12         13         14         15
    11  H    0.000000
    12  C    4.093020   0.000000
    13  C    4.877178   1.412078   0.000000
    14  H    2.503844   2.144156   3.412920   0.000000
    15  H    4.794250   1.086137   2.164523   2.467853   0.000000
    16  H    5.949273   2.172831   1.087830   4.307170   2.493948
    17  H    2.463723   5.838321   6.133520   4.797574   6.757923
    18  O    5.804025   3.700657   2.418689   5.274737   4.578545
    19  H    6.518215   3.823385   2.419971   5.662212   4.528845
                   16         17         18         19
    16  H    0.000000
    17  H    7.202594   0.000000
    18  O    2.667636   6.088447   0.000000
    19  H    2.247698   6.996288   0.967996   0.000000
 Stoichiometry    C10H8O
 Framework group  C1[X(C10H8O)]
 Deg. of freedom    51
 Full point group                 C1      NOp   1
 Largest Abelian subgroup         C1      NOp   1
 Largest concise Abelian subgroup C1      NOp   1
                         Standard orientation:                         
 ---------------------------------------------------------------------
 Center     Atomic      Atomic             Coordinates (Angstroms)
 Number     Number       Type             X           Y           Z
 ---------------------------------------------------------------------
      1          6           0       -2.377207   -1.070766    0.000001
      2          6           0       -1.042335   -1.435328    0.000001
      3          6           0       -0.029645   -0.438873    0.000000
      4          6           0       -0.394572    0.946638    0.000000
      5          6           0       -1.775339    1.282138   -0.000001
      6          6           0       -2.745219    0.294374    0.000000
      7          1           0       -3.144042   -1.840348    0.000001
      8          1           0       -0.762262   -2.482775    0.000002
      9          6           0        1.349750   -0.767370    0.000000
     10          6           0        0.621589    1.941968    0.000000
     11          1           0       -2.067493    2.328408   -0.000001
     12          6           0        1.955732    1.575760    0.000000
     13          6           0        2.327247    0.213430    0.000000
     14          1           0        0.346589    2.992821    0.000000
     15          1           0        2.726741    2.340767    0.000001
     16          1           0        3.378435   -0.066528    0.000000
     17          1           0       -3.795751    0.572545   -0.000001
     18          8           0        1.668064   -2.113700   -0.000002
     19          1           0        2.633272   -2.187113    0.000006
 ---------------------------------------------------------------------
 Rotational constants (GHZ):      1.9349143      1.1271133      0.7122299
 Standard basis: 6-31+G(d) (6D, 7F)
 There are   225 symmetry adapted cartesian basis functions of A   symmetry.
 There are   225 symmetry adapted basis functions of A   symmetry.
   225 basis functions,   384 primitive gaussians,   225 cartesian basis functions
    38 alpha electrons       38 beta electrons
       nuclear repulsion energy       550.1693064529 Hartrees.
 NAtoms=   19 NActive=   19 NUniq=   19 SFac= 1.00D+00 NAtFMM=   60 NAOKFM=F Big=F
 Integral buffers will be    131072 words long.
 Raffenetti 2 integral format.
 Two-electron integral symmetry is turned on.
 Nuclear repulsion after empirical dispersion term =      550.1562427900 Hartrees.
 One-electron integrals computed using PRISM.
 NBasis=   225 RedAO= T EigKep=  1.31D-06  NBF=   225
 NBsUse=   224 1.00D-06 EigRej=  6.54D-07 NBFU=   224
 Initial guess from the checkpoint file:  "C:\Users\vivek\Downloads\molecule_38.chk"
 B after Tr=     0.000000    0.000000    0.000000
         Rot=    0.999920    0.000000    0.000000    0.012647 Ang=   1.45 deg.
 ExpMin= 4.38D-02 ExpMax= 5.48D+03 ExpMxC= 8.25D+02 IAcc=2 IRadAn=         4 AccDes= 0.00D+00
 Harris functional with IExCor=  402 and IRadAn=       4 diagonalized for initial guess.
 HarFok:  IExCor=  402 AccDes= 0.00D+00 IRadAn=         4 IDoV= 1 UseB2=F ITyADJ=14
 ICtDFT=  3500011 ScaDFX=  1.000000  1.000000  1.000000  1.000000
 FoFCou: FMM=F IPFlag=           0 FMFlag=      100000 FMFlg1=           0
         NFxFlg=           0 DoJE=T BraDBF=F KetDBF=T FulRan=T
         wScrn=  0.000000 ICntrl=     500 IOpCl=  0 I1Cent=   200000004 NGrid=           0
         NMat0=    1 NMatS0=      1 NMatT0=    0 NMatD0=    1 NMtDS0=    0 NMtDT0=    0
 Petite list used in FoFCou.
 Keep R1 ints in memory in canonical form, NReq=329172959.
 Requested convergence on RMS density matrix=1.00D-08 within 128 cycles.
 Requested convergence on MAX density matrix=1.00D-06.
 Requested convergence on             energy=1.00D-06.
 No special actions if energy rises.
 SCF Done:  E(RB3LYP) =  -461.141187148     A.U. after   13 cycles
            NFock= 13  Conv=0.40D-08     -V/T= 2.0098
 Calling FoFJK, ICntrl=      2127 FMM=F ISym2X=0 I1Cent= 0 IOpClX= 0 NMat=1 NMatS=1 NMatT=0.
 ***** Axes restored to original set *****
 -------------------------------------------------------------------
 Center     Atomic                   Forces (Hartrees/Bohr)
 Number     Number              X              Y              Z
 -------------------------------------------------------------------
      1        6           0.004914751   -0.001550531   -0.000000269
      2        6          -0.005327040    0.000934427    0.000003721
      3        6          -0.003316446   -0.002378026    0.000015820
      4        6          -0.000883161    0.002905466   -0.000011991
      5        6          -0.002609588   -0.006253055    0.000032562
      6        6           0.000861401    0.005760373   -0.000027659
      7        1          -0.000607638   -0.000043473    0.000001097
      8        1           0.001153970    0.000350554   -0.000003350
      9        6           0.010657766   -0.003288996   -0.000001014
     10        6           0.005947057   -0.000064497   -0.000008646
     11        1           0.000388859    0.001240206   -0.000006276
     12        6          -0.006467350    0.001354243    0.000003550
     13        6          -0.002189868   -0.003400485    0.000018894
     14        1          -0.001260874   -0.000227625    0.000002945
     15        1           0.000768068    0.000050326   -0.000001411
     16        1           0.000549528    0.000155056   -0.000001551
     17        1          -0.000290628   -0.000419202    0.000002372
     18        8          -0.004534650    0.007598294   -0.000027824
     19        1           0.002245842   -0.002723053    0.000009029
 -------------------------------------------------------------------
 Cartesian Forces:  Max     0.010657766 RMS     0.002897097

 GradGradGradGradGradGradGradGradGradGradGradGradGradGradGradGradGradGrad
 Berny optimization.
 Using GEDIIS/GDIIS optimizer.
 FormGI is forming the generalized inverse of G from B-inverse, IUseBI=4.
 Internal  Forces:  Max     0.005687147 RMS     0.001388327
 Search for a local minimum.
 Step number   2 out of a maximum of  107
 All quantities printed in internal units (Hartrees-Bohrs-Radians)
 Mixed Optimization -- RFO/linear search
 Update second derivatives using D2CorX and points    1    2
 DE= -8.46D-03 DEPred=-8.01D-03 R= 1.06D+00
 TightC=F SS=  1.41D+00  RLast= 2.00D-01 DXNew= 5.0454D-01 5.9891D-01
 Trust test= 1.06D+00 RLast= 2.00D-01 DXMaxT set to 5.05D-01
 ITU=  1  0
 Use linear search instead of GDIIS.
     Eigenvalues ---    0.01295   0.01935   0.02070   0.02070   0.02070
     Eigenvalues ---    0.02070   0.02070   0.02070   0.02070   0.02070
     Eigenvalues ---    0.02070   0.02070   0.02070   0.02070   0.02070
     Eigenvalues ---    0.02070   0.15846   0.16000   0.16000   0.16000
     Eigenvalues ---    0.16000   0.16000   0.16000   0.16262   0.21997
     Eigenvalues ---    0.22075   0.22433   0.23614   0.24472   0.24660
     Eigenvalues ---    0.25252   0.36532   0.37230   0.37230   0.37230
     Eigenvalues ---    0.37230   0.37230   0.37278   0.37897   0.40100
     Eigenvalues ---    0.41301   0.42218   0.43128   0.43973   0.45389
     Eigenvalues ---    0.45389   0.45389   0.45389   0.45389   0.46724
     Eigenvalues ---    0.55388
 RFO step:  Lambda=-5.92230062D-04 EMin= 1.29493779D-02
 Quartic linear search produced a step of  0.10189.
 Iteration  1 RMS(Cart)=  0.00882778 RMS(Int)=  0.00020056
 Iteration  2 RMS(Cart)=  0.00018367 RMS(Int)=  0.00000534
 Iteration  3 RMS(Cart)=  0.00000003 RMS(Int)=  0.00000534
 Variable       Old X    -DE/DX   Delta X   Delta X   Delta X     New X
                                 (Linear)    (Quad)   (Total)
    R1        2.61493  -0.00314  -0.00340  -0.00549  -0.00889   2.60604
    R2        2.67183   0.00191   0.00240   0.00280   0.00519   2.67703
    R3        2.05302   0.00034   0.00316  -0.00112   0.00204   2.05506
    R4        2.68478  -0.00054   0.00372  -0.00363   0.00009   2.68488
    R5        2.04893   0.00029   0.00274  -0.00098   0.00176   2.05068
    R6        2.70753   0.00107   0.00604  -0.00077   0.00528   2.71281
    R7        2.67958   0.00509   0.00319   0.01079   0.01399   2.69357
    R8        2.68519   0.00053   0.00376  -0.00110   0.00267   2.68786
    R9        2.68798  -0.00046   0.00405  -0.00396   0.00008   2.68806
   R10        2.61599  -0.00418  -0.00329  -0.00809  -0.01139   2.60460
   R11        2.05280   0.00086   0.00314   0.00043   0.00357   2.05637
   R12        2.05363   0.00030   0.00322  -0.00128   0.00194   2.05558
   R13        2.61675  -0.00268  -0.00321  -0.00421  -0.00742   2.60933
   R14        2.61434  -0.00538  -0.00896  -0.00848  -0.01744   2.59690
   R15        2.61442  -0.00406  -0.00345  -0.00811  -0.01157   2.60285
   R16        2.05270   0.00044   0.00313  -0.00079   0.00234   2.05504
   R17        2.66844   0.00257   0.00206   0.00450   0.00655   2.67499
   R18        2.05250   0.00042   0.00311  -0.00083   0.00228   2.05478
   R19        2.05570   0.00055   0.00343  -0.00067   0.00276   2.05846
   R20        1.82925   0.00167   0.00154   0.00231   0.00385   1.83310
    A1        2.10072   0.00011   0.00064  -0.00052   0.00011   2.10083
    A2        2.08780   0.00046  -0.00067   0.00408   0.00342   2.09122
    A3        2.09466  -0.00058   0.00003  -0.00357  -0.00353   2.09113
    A4        2.09767   0.00074   0.00033   0.00359   0.00392   2.10159
    A5        2.09868   0.00083   0.00044   0.00600   0.00644   2.10512
    A6        2.08684  -0.00157  -0.00077  -0.00960  -0.01036   2.07648
    A7        2.09058  -0.00086  -0.00039  -0.00362  -0.00401   2.08657
    A8        2.13048   0.00084   0.00368  -0.00011   0.00355   2.13403
    A9        2.06213   0.00002  -0.00329   0.00374   0.00046   2.06259
   A10        2.06670  -0.00047  -0.00282   0.00042  -0.00239   2.06431
   A11        2.08830  -0.00020  -0.00062  -0.00043  -0.00105   2.08725
   A12        2.12819   0.00066   0.00344   0.00001   0.00344   2.13163
   A13        2.10870   0.00070   0.00146   0.00249   0.00396   2.11265
   A14        2.08146  -0.00135  -0.00132  -0.00767  -0.00899   2.07247
   A15        2.09303   0.00065  -0.00014   0.00518   0.00503   2.09807
   A16        2.10201  -0.00022   0.00078  -0.00236  -0.00160   2.10042
   A17        2.09296  -0.00032  -0.00015  -0.00194  -0.00208   2.09088
   A18        2.08821   0.00054  -0.00063   0.00430   0.00368   2.09189
   A19        2.12072  -0.00184   0.00268  -0.00864  -0.00594   2.11478
   A20        2.03675  -0.00145  -0.00587  -0.00293  -0.00881   2.02794
   A21        2.12571   0.00329   0.00319   0.01157   0.01475   2.14047
   A22        2.09866   0.00038   0.00043   0.00004   0.00047   2.09913
   A23        2.08989  -0.00143  -0.00046  -0.00833  -0.00878   2.08110
   A24        2.09464   0.00105   0.00003   0.00829   0.00832   2.10296
   A25        2.10492   0.00099   0.00107   0.00227   0.00333   2.10825
   A26        2.09221   0.00016  -0.00022   0.00314   0.00293   2.09514
   A27        2.08605  -0.00115  -0.00085  -0.00541  -0.00625   2.07980
   A28        2.09165   0.00064  -0.00028   0.00301   0.00274   2.09438
   A29        2.09422  -0.00017  -0.00002  -0.00033  -0.00035   2.09388
   A30        2.09731  -0.00048   0.00030  -0.00268  -0.00239   2.09492
   A31        1.87888   0.00569  -0.00329   0.04146   0.03817   1.91705
    D1        0.00000   0.00000   0.00000   0.00000   0.00000   0.00000
    D2        3.14159   0.00000   0.00000   0.00000   0.00000   3.14159
    D3       -3.14159   0.00000   0.00000   0.00000   0.00000  -3.14159
    D4        0.00000   0.00000   0.00000   0.00000   0.00000   0.00000
    D5        0.00000   0.00000   0.00000   0.00000   0.00000   0.00000
    D6        3.14159   0.00000   0.00000   0.00000   0.00000   3.14159
    D7        3.14159   0.00000   0.00000   0.00000   0.00000   3.14159
    D8        0.00000   0.00000   0.00000   0.00000   0.00000   0.00000
    D9        0.00000   0.00000   0.00000   0.00000   0.00000   0.00000
   D10       -3.14159   0.00000   0.00000   0.00000   0.00000  -3.14159
   D11       -3.14159   0.00000   0.00000   0.00000   0.00000  -3.14159
   D12        0.00000   0.00000   0.00000   0.00000   0.00000   0.00000
   D13        0.00000   0.00000   0.00000   0.00000   0.00000   0.00000
   D14        3.14159   0.00000   0.00000   0.00000   0.00000   3.14159
   D15        3.14159   0.00000   0.00000   0.00000   0.00000   3.14159
   D16        0.00000   0.00000   0.00000   0.00000   0.00000   0.00000
   D17       -3.14159   0.00000   0.00000   0.00000   0.00000  -3.14159
   D18        0.00000   0.00000   0.00000   0.00000   0.00000   0.00000
   D19        0.00000   0.00000   0.00000   0.00000   0.00000   0.00000
   D20       -3.14159   0.00000   0.00000   0.00000   0.00000  -3.14159
   D21        0.00000   0.00000   0.00000   0.00000   0.00000   0.00000
   D22        3.14159   0.00000   0.00000   0.00000   0.00000  -3.14159
   D23       -3.14159   0.00000   0.00000   0.00000   0.00000  -3.14159
   D24        0.00000   0.00000   0.00000   0.00000   0.00000   0.00000
   D25        0.00000   0.00000   0.00000   0.00000   0.00000   0.00000
   D26       -3.14159   0.00000   0.00000   0.00000   0.00000  -3.14159
   D27       -3.14159   0.00000   0.00000   0.00000   0.00000   3.14159
   D28        0.00000   0.00000   0.00000   0.00000   0.00000   0.00000
   D29        0.00000   0.00000   0.00000   0.00000   0.00000   0.00000
   D30       -3.14159   0.00000   0.00000   0.00000   0.00000  -3.14159
   D31       -3.14159   0.00000   0.00000   0.00000   0.00000  -3.14159
   D32        0.00000   0.00000   0.00000   0.00000   0.00000   0.00000
   D33        0.00000   0.00000   0.00000   0.00000   0.00000   0.00000
   D34        3.14159   0.00000   0.00000   0.00000   0.00000  -3.14159
   D35        3.14159   0.00000   0.00000   0.00000   0.00000   3.14159
   D36        0.00000   0.00000   0.00000   0.00000   0.00000   0.00000
   D37       -3.14158   0.00000   0.00000   0.00000   0.00000  -3.14159
   D38        0.00001   0.00000   0.00000   0.00000   0.00000   0.00001
   D39        0.00000   0.00000   0.00000   0.00000   0.00000   0.00000
   D40       -3.14159   0.00000   0.00000   0.00000   0.00000   3.14159
   D41       -3.14159   0.00000   0.00000   0.00000   0.00000  -3.14159
   D42        0.00000   0.00000   0.00000   0.00000   0.00000   0.00000
   D43        0.00000   0.00000   0.00000   0.00000   0.00000   0.00000
   D44        3.14159   0.00000   0.00000   0.00000   0.00000   3.14159
   D45        3.14159   0.00000   0.00000   0.00000   0.00000   3.14159
   D46        0.00000   0.00000   0.00000   0.00000   0.00000   0.00000
         Item               Value     Threshold  Converged?
 Maximum Force            0.005687     0.000450     NO 
 RMS     Force            0.001388     0.000300     NO 
 Maximum Displacement     0.074538     0.001800     NO 
 RMS     Displacement     0.008846     0.001200     NO 
 Predicted change in Energy=-3.721145D-04
 GradGradGradGradGradGradGradGradGradGradGradGradGradGradGradGradGradGrad

                          Input orientation:                          
 ---------------------------------------------------------------------
 Center     Atomic      Atomic             Coordinates (Angstroms)
 Number     Number       Type             X           Y           Z
 ---------------------------------------------------------------------
      1          6           0       -4.149571   -1.538325    0.013850
      2          6           0       -2.770563   -1.527089    0.011730
      3          6           0       -2.061355   -0.295999    0.005035
      4          6           0       -2.790027    0.940869    0.000470
      5          6           0       -4.211307    0.885604    0.002854
      6          6           0       -4.875706   -0.321969    0.009374
      7          1           0       -4.682609   -2.486206    0.018985
      8          1           0       -2.210333   -2.456462    0.015142
      9          6           0       -0.637155   -0.238163    0.002635
     10          6           0       -2.080817    2.173900   -0.006234
     11          1           0       -4.771285    1.818640   -0.000574
     12          6           0       -0.703478    2.182663   -0.008339
     13          6           0        0.028936    0.971336   -0.003897
     14          1           0       -2.638556    3.107455   -0.009668
     15          1           0       -0.165115    3.127359   -0.013468
     16          1           0        1.118016    0.992778   -0.005629
     17          1           0       -5.963291   -0.341655    0.011095
     18          8           0        0.018951   -1.445631    0.007174
     19          1           0        0.977874   -1.299254    0.005070
 ---------------------------------------------------------------------
                    Distance matrix (angstroms):
                    1          2          3          4          5
     1  C    0.000000
     2  C    1.379055   0.000000
     3  C    2.429835   1.420775   0.000000
     4  C    2.827532   2.468060   1.435558   0.000000
     5  C    2.424740   2.810144   2.453261   1.422356   0.000000
     6  C    1.416621   2.425685   2.814474   2.438215   1.378296
     7  H    1.087490   2.139131   3.415871   3.914978   3.404627
     8  H    2.145605   1.085175   2.165617   3.446465   3.895312
     9  C    3.745345   2.492557   1.425376   2.454583   3.746654
    10  C    4.249795   3.764756   2.470002   1.422459   2.489735
    11  H    3.414081   3.898325   3.437362   2.166995   1.088183
    12  C    5.071666   4.246822   2.826265   2.428130   3.739967
    13  C    4.874283   3.752274   2.444490   2.819131   4.241115
    14  H    4.885385   4.636472   3.452083   2.171898   2.722191
    15  H    6.135572   5.334124   3.913496   3.416299   4.625733
    16  H    5.844171   4.633689   3.430665   3.908393   5.330408
    17  H    2.172926   3.405696   3.902208   3.422657   2.139084
    18  O    4.169558   2.790707   2.376832   3.685890   4.830090
    19  H    5.133022   3.755360   3.200536   4.383520   5.630383
                    6          7          8          9         10
     6  C    0.000000
     7  H    2.172855   0.000000
     8  H    3.414720   2.472458   0.000000
     9  C    4.239385   4.628138   2.719540   0.000000
    10  C    3.747133   5.337279   4.632223   2.811101   0.000000
    11  H    2.143177   4.305803   4.983495   4.617519   2.713827
    12  C    4.866310   6.134539   4.877771   2.421760   1.377369
    13  C    5.072309   5.844123   4.094446   1.380800   2.428420
    14  H    4.094648   5.955503   5.580427   3.898579   1.087478
    15  H    5.838497   7.205617   5.946663   3.398503   2.139872
    16  H    6.136244   6.763962   4.793287   2.143807   3.409925
    17  H    1.087764   2.497860   4.307797   5.327148   4.626221
    18  O    5.021981   4.815351   2.447765   1.374218   4.184521
    19  H    5.934602   5.783608   3.391739   1.932418   4.628015
                   11         12         13         14         15
    11  H    0.000000
    12  C    4.084070   0.000000
    13  C    4.874429   1.415544   0.000000
    14  H    2.491919   2.144707   3.417390   0.000000
    15  H    4.788498   1.087342   2.164760   2.473524   0.000000
    16  H    5.946927   2.175702   1.089293   4.310883   2.490567
    17  H    2.467365   5.834226   6.134407   4.790684   6.756738
    18  O    5.796714   3.699549   2.417013   5.271928   4.576740
    19  H    6.540193   3.866636   2.460923   5.700690   4.571835
                   16         17         18         19
    16  H    0.000000
    17  H    7.205963   0.000000
    18  O    2.674686   6.083255   0.000000
    19  H    2.296337   7.006911   0.970033   0.000000
 Stoichiometry    C10H8O
 Framework group  C1[X(C10H8O)]
 Deg. of freedom    51
 Full point group                 C1      NOp   1
 Largest Abelian subgroup         C1      NOp   1
 Largest concise Abelian subgroup C1      NOp   1
                         Standard orientation:                         
 ---------------------------------------------------------------------
 Center     Atomic      Atomic             Coordinates (Angstroms)
 Number     Number       Type             X           Y           Z
 ---------------------------------------------------------------------
      1          6           0       -2.373273   -1.073438    0.000000
      2          6           0       -1.042345   -1.434580    0.000000
      3          6           0       -0.027347   -0.440406    0.000000
      4          6           0       -0.395379    0.947175    0.000000
      5          6           0       -1.778889    1.277322    0.000000
      6          6           0       -2.744394    0.293707    0.000000
      7          1           0       -3.142237   -1.842416    0.000000
      8          1           0       -0.753569   -2.480626    0.000001
      9          6           0        1.359668   -0.768864    0.000000
     10          6           0        0.620144    1.943219    0.000000
     11          1           0       -2.066435    2.326827    0.000000
     12          6           0        1.948798    1.580145    0.000000
     13          6           0        2.327322    0.216150    0.000000
     14          1           0        0.334894    2.992619    0.000000
     15          1           0        2.722031    2.344621    0.000000
     16          1           0        3.381821   -0.056962   -0.000001
     17          1           0       -3.796980    0.568105    0.000000
     18          8           0        1.665753   -2.108561   -0.000001
     19          1           0        2.628619   -2.226260    0.000004
 ---------------------------------------------------------------------
 Rotational constants (GHZ):      1.9348054      1.1279210      0.7125376
 Standard basis: 6-31+G(d) (6D, 7F)
 There are   225 symmetry adapted cartesian basis functions of A   symmetry.
 There are   225 symmetry adapted basis functions of A   symmetry.
   225 basis functions,   384 primitive gaussians,   225 cartesian basis functions
    38 alpha electrons       38 beta electrons
       nuclear repulsion energy       550.2944893950 Hartrees.
 NAtoms=   19 NActive=   19 NUniq=   19 SFac= 1.00D+00 NAtFMM=   60 NAOKFM=F Big=F
 Integral buffers will be    131072 words long.
 Raffenetti 2 integral format.
 Two-electron integral symmetry is turned on.
 Nuclear repulsion after empirical dispersion term =      550.2814106757 Hartrees.
 One-electron integrals computed using PRISM.
 NBasis=   225 RedAO= T EigKep=  1.32D-06  NBF=   225
 NBsUse=   224 1.00D-06 EigRej=  6.52D-07 NBFU=   224
 Initial guess from the checkpoint file:  "C:\Users\vivek\Downloads\molecule_38.chk"
 B after Tr=     0.000000    0.000000    0.000000
         Rot=    1.000000    0.000000    0.000000   -0.000526 Ang=  -0.06 deg.
 ExpMin= 4.38D-02 ExpMax= 5.48D+03 ExpMxC= 8.25D+02 IAcc=2 IRadAn=         4 AccDes= 0.00D+00
 Harris functional with IExCor=  402 and IRadAn=       4 diagonalized for initial guess.
 HarFok:  IExCor=  402 AccDes= 0.00D+00 IRadAn=         4 IDoV= 1 UseB2=F ITyADJ=14
 ICtDFT=  3500011 ScaDFX=  1.000000  1.000000  1.000000  1.000000
 FoFCou: FMM=F IPFlag=           0 FMFlag=      100000 FMFlg1=           0
         NFxFlg=           0 DoJE=T BraDBF=F KetDBF=T FulRan=T
         wScrn=  0.000000 ICntrl=     500 IOpCl=  0 I1Cent=   200000004 NGrid=           0
         NMat0=    1 NMatS0=      1 NMatT0=    0 NMatD0=    1 NMtDS0=    0 NMtDT0=    0
 Petite list used in FoFCou.
 Keep R1 ints in memory in canonical form, NReq=329172959.
 Requested convergence on RMS density matrix=1.00D-08 within 128 cycles.
 Requested convergence on MAX density matrix=1.00D-06.
 Requested convergence on             energy=1.00D-06.
 No special actions if energy rises.
 SCF Done:  E(RB3LYP) =  -461.141571669     A.U. after   12 cycles
            NFock= 12  Conv=0.64D-08     -V/T= 2.0098
 Calling FoFJK, ICntrl=      2127 FMM=F ISym2X=0 I1Cent= 0 IOpClX= 0 NMat=1 NMatS=1 NMatT=0.
 ***** Axes restored to original set *****
 -------------------------------------------------------------------
 Center     Atomic                   Forces (Hartrees/Bohr)
 Number     Number              X              Y              Z
 -------------------------------------------------------------------
      1        6          -0.000307207   -0.000974493    0.000004926
      2        6           0.000574194    0.000265479   -0.000002080
      3        6          -0.001980109    0.000995720   -0.000001591
      4        6           0.000454682   -0.001119451    0.000004446
      5        6           0.000225296    0.000426228   -0.000002288
      6        6          -0.000991013    0.000109748    0.000000976
      7        1          -0.000024319    0.000449461   -0.000002024
      8        1           0.000052088    0.000294241   -0.000001429
      9        6           0.002551907   -0.001368858    0.000002418
     10        6          -0.000061455    0.000380960   -0.000001654
     11        1           0.000396439   -0.000026797   -0.000000473
     12        6          -0.000117613    0.000993520   -0.000004374
     13        6           0.000148322   -0.000149548    0.000000471
     14        1          -0.000096533   -0.000372039    0.000001849
     15        1           0.000171144   -0.000479738    0.000001936
     16        1          -0.000454126    0.000126293    0.000000110
     17        1           0.000416271   -0.000265987    0.000000599
     18        8          -0.000231192    0.000594906   -0.000002322
     19        1          -0.000726774    0.000120354    0.000000503
 -------------------------------------------------------------------
 Cartesian Forces:  Max     0.002551907 RMS     0.000605479

 GradGradGradGradGradGradGradGradGradGradGradGradGradGradGradGradGradGrad
 Berny optimization.
 Using GEDIIS/GDIIS optimizer.
 FormGI is forming the generalized inverse of G from B-inverse, IUseBI=4.
 Internal  Forces:  Max     0.001187943 RMS     0.000303491
 Search for a local minimum.
 Step number   3 out of a maximum of  107
 All quantities printed in internal units (Hartrees-Bohrs-Radians)
 Mixed Optimization -- En-DIIS/RFO-DIIS
 Update second derivatives using D2CorX and points    1    2    3
 DE= -3.85D-04 DEPred=-3.72D-04 R= 1.03D+00
 TightC=F SS=  1.41D+00  RLast= 5.87D-02 DXNew= 8.4853D-01 1.7605D-01
 Trust test= 1.03D+00 RLast= 5.87D-02 DXMaxT set to 5.05D-01
 ITU=  1  1  0
 Use linear search instead of GDIIS.
     Eigenvalues ---    0.01295   0.01934   0.02070   0.02070   0.02070
     Eigenvalues ---    0.02070   0.02070   0.02070   0.02070   0.02070
     Eigenvalues ---    0.02070   0.02070   0.02070   0.02070   0.02070
     Eigenvalues ---    0.02070   0.14622   0.16000   0.16000   0.16000
     Eigenvalues ---    0.16000   0.16000   0.16012   0.17325   0.21988
     Eigenvalues ---    0.22070   0.22103   0.23470   0.24053   0.24645
     Eigenvalues ---    0.25230   0.36030   0.37230   0.37230   0.37230
     Eigenvalues ---    0.37230   0.37235   0.37299   0.37763   0.40706
     Eigenvalues ---    0.41300   0.42255   0.43106   0.44114   0.45389
     Eigenvalues ---    0.45389   0.45389   0.45389   0.46506   0.46708
     Eigenvalues ---    0.55882
 RFO step:  Lambda=-2.84725144D-05 EMin= 1.29493779D-02
 Quartic linear search produced a step of  0.04109.
 Iteration  1 RMS(Cart)=  0.00149288 RMS(Int)=  0.00000173
 Iteration  2 RMS(Cart)=  0.00000221 RMS(Int)=  0.00000019
 Iteration  3 RMS(Cart)=  0.00000000 RMS(Int)=  0.00000019
 Variable       Old X    -DE/DX   Delta X   Delta X   Delta X     New X
                                 (Linear)    (Quad)   (Total)
    R1        2.60604   0.00044  -0.00037   0.00103   0.00067   2.60670
    R2        2.67703   0.00025   0.00021   0.00080   0.00102   2.67804
    R3        2.05506  -0.00038   0.00008  -0.00094  -0.00086   2.05420
    R4        2.68488  -0.00032   0.00000  -0.00068  -0.00067   2.68420
    R5        2.05068  -0.00022   0.00007  -0.00053  -0.00045   2.05023
    R6        2.71281  -0.00112   0.00022  -0.00263  -0.00242   2.71040
    R7        2.69357   0.00119   0.00057   0.00270   0.00327   2.69684
    R8        2.68786  -0.00016   0.00011  -0.00031  -0.00020   2.68767
    R9        2.68806   0.00013   0.00000   0.00037   0.00037   2.68843
   R10        2.60460   0.00056  -0.00047   0.00136   0.00090   2.60550
   R11        2.05637  -0.00023   0.00015  -0.00054  -0.00039   2.05597
   R12        2.05558  -0.00041   0.00008  -0.00103  -0.00095   2.05463
   R13        2.60933   0.00011  -0.00030   0.00029  -0.00002   2.60931
[...]
 .00085464,-0.00234678,0.15187517,-0.04232644,0.02575700,-0.00006392,0.
 05356223,0.01498038,-0.00014588,-0.17125822,0.05003417,-0.00005467,0.6
 7137858,0.00802024,-0.00126312,-0.00003369,-0.00195342,-0.04050376,0.0
 0020905,0.05460624,-0.22880882,0.00064888,0.02505607,0.64813701,0.0000
 1258,-0.00006175,-0.00595055,-0.00006499,0.00018088,0.00429316,-0.0000
 8997,0.00066430,-0.06662170,-0.00089408,-0.00226302,0.15978866,0.05715
 043,-0.01764885,0.00000663,-0.04087670,-0.02108492,0.00015363,-0.01199
 896,0.04925217,-0.00020699,-0.28405273,-0.00198098,0.00034223,0.649602
 09,0.02382976,-0.05746293,0.00026187,-0.02661773,-0.01479611,0.0000914
 0,0.03370812,0.02562457,-0.00014807,0.02734675,-0.11186772,0.00017434,
 -0.00140416,0.75980404,-0.00018288,0.00032422,0.00757884,0.00017756,0.
 00008270,-0.00366115,-0.00012898,-0.00016775,0.00501029,0.00020409,0.0
 0021478,-0.06530513,-0.00076939,-0.00286745,0.13258482,-0.17132079,0.1
 0628022,-0.00032156,-0.02894126,0.02873447,-0.00007581,0.00240302,0.00
 217850,-0.00002588,-0.02280944,-0.03390008,0.00019930,-0.18979461,-0.1
 3743819,0.00082399,0.73713524,0.04427135,-0.25236952,0.00080569,0.0700
 4903,0.02917487,-0.00020402,-0.01759445,-0.04713901,0.00021442,-0.0687
 9318,0.00385078,0.00010955,-0.07953631,-0.32376299,0.00132814,0.036238
 04,0.67158230,-0.00003739,0.00071289,-0.06173916,-0.00026560,-0.000141
 47,0.00761712,0.00006651,0.00018224,-0.00663865,0.00035925,0.00005841,
 0.00570202,0.00055840,0.00141439,-0.05956766,-0.00107356,-0.00252257,0
 .13198400,-0.12661677,-0.11896124,0.00068048,-0.01131520,-0.02961447,0
 .00015784,-0.00546559,0.00179763,0.00000996,-0.00087237,0.00046285,0.0
 0000048,-0.00142866,0.00310570,-0.00000447,0.01205095,0.01566922,-0.00
 008627,0.13184703,-0.11932004,-0.27204505,0.00126001,0.00166034,0.0036
 9190,-0.00000315,0.00077704,0.00157218,0.00002432,0.00083158,0.0003651
 4,-0.00000068,0.00429459,-0.00281082,0.00002983,-0.01573041,-0.0183941
 6,0.00011853,0.12832048,0.28703009,0.00068201,0.00125925,-0.03575782,0
 .00001438,0.00004273,0.00333017,0.00001718,0.00002802,0.00832210,-0.00
 000327,-0.00000356,-0.00035955,-0.00000958,0.00003208,0.00520469,0.000
 05754,0.00007189,0.00247803,-0.00074707,-0.00139070,0.02506953,-0.0112
 4028,0.02831423,-0.00010626,-0.13469563,0.12627995,-0.00043121,0.01315
 788,-0.01369867,0.00004624,-0.00176239,-0.00277864,0.00002406,-0.00049
 614,-0.00079003,0.00000331,-0.00521561,-0.00171732,0.00002779,0.000712
 62,-0.00030616,-0.00000722,0.14266448,-0.00253725,0.00524658,-0.000000
 82,0.12521780,-0.26958124,0.00087452,0.01460578,-0.01944321,0.00008629
 ,-0.00417088,-0.00203391,0.00003542,-0.00076497,0.00011312,-0.00000182
 ,-0.00076951,0.00143689,0.00003243,0.00031719,0.00091922,-0.00002793,-
 0.13477780,0.28405399,0.00003519,-0.00004707,0.00424297,-0.00042667,0.
 00087348,-0.03726928,-0.00008128,0.00012576,0.00360363,0.00002955,0.00
 003577,0.00478563,0.00000315,-0.00000206,-0.00058565,0.00002330,0.0000
 3354,0.00821621,-0.00001014,-0.00002706,-0.00506632,0.00044089,-0.0009
 8045,0.02554594,0.02528273,-0.01142359,0.00002318,-0.04588929,-0.03104
 105,0.00021909,-0.26197838,-0.01736502,0.00035874,-0.00726184,0.052400
 92,-0.00022302,-0.01232047,-0.00607464,0.00005303,-0.00181475,0.019683
 75,-0.00008862,0.00057145,0.00011554,-0.00000044,0.00027162,0.00198226
 ,-0.00001371,0.67044736,0.00618835,-0.01346257,0.00007745,-0.04309468,
 0.00028864,0.00008055,0.01076468,-0.10946564,0.00017435,0.03628445,0.0
 2984838,-0.00019847,-0.00401561,-0.00995224,0.00007429,-0.00020512,0.0
 0742669,-0.00003367,-0.00164711,-0.00015127,0.00000576,-0.00119860,-0.
 00263855,0.00000291,0.03749629,0.71256393,-0.00005996,0.00010363,0.005
 57448,0.00027170,0.00006226,0.00386045,0.00024343,0.00021700,-0.067548
 05,-0.00016276,-0.00022114,-0.00192365,0.00004638,0.00007860,0.0050508
 8,0.00000440,-0.00006424,-0.00000915,0.00000813,0.00000438,0.00052402,
 0.00000189,-0.00000307,-0.00250040,-0.00094434,-0.00261677,0.15279887,
 0.01228977,-0.00981677,0.00002579,-0.01306010,-0.00253768,0.00003907,0
 .04854852,0.00248593,-0.00008183,-0.13633950,-0.05019573,0.00034144,-0
 .04470842,-0.04664218,0.00028694,-0.00417326,0.02226873,-0.00008734,0.
 00037737,-0.00020233,-0.00000099,0.00052492,0.00111375,-0.00000566,-0.
 04342630,-0.03041727,0.00020593,0.73567044,0.00942214,-0.00726130,0.00
 001726,-0.00284900,-0.00571237,0.00005398,0.01395347,-0.03695524,0.000
 16176,-0.07708866,-0.25581951,0.00099819,-0.02663013,-0.00587082,0.000
 08751,0.00370895,0.01658614,-0.00005575,0.00005198,-0.00002015,-0.0000
 0443,-0.00069915,-0.00070510,0.00000453,-0.02327100,-0.01083567,0.0000
 8800,-0.05083302,0.67630720,-0.00006202,0.00004565,-0.00048847,0.00004
 004,0.00005254,0.00492674,-0.00013136,0.00018140,0.00356412,0.00046265
 ,0.00095675,-0.06323892,0.00019553,0.00011749,0.00452218,-0.00000246,-
 0.00008325,0.00570426,-0.00000221,-0.00000400,-0.00094810,0.00000265,0
 .00000229,0.00016425,0.00017214,0.00009828,0.00057918,-0.00068502,-0.0
 0245183,0.12376892,-0.00101962,-0.00288066,0.00002675,-0.00069328,-0.0
 0077113,0.00000434,-0.00503433,-0.00223530,0.00002144,-0.01252393,0.02
 832340,-0.00010315,-0.13247551,0.12173174,-0.00041218,0.01200458,-0.01
 501294,0.00005603,0.00042890,-0.00080283,0.00000352,0.00011581,0.00013
 646,-0.00000265,0.00032439,0.00177846,-0.00000738,0.00081852,0.0016998
 2,-0.00001369,0.13833570,-0.00441963,-0.00268706,0.00005531,-0.0005801
 8,0.00021265,-0.00000373,-0.00067382,0.00125840,0.00002354,-0.00145999
 ,0.00303105,-0.00000084,0.12148477,-0.26208402,0.00085348,0.01676062,-
 0.01954535,0.00008227,0.00086610,-0.00106383,0.00000470,0.00009318,-0.
 00001133,-0.00000548,-0.00053267,-0.00000043,-0.00000001,-0.00149837,0
 .00081609,-0.00001576,-0.13030975,0.27880642,0.00003393,0.00005309,0.0
 0797591,0.00000282,-0.00000250,-0.00060092,0.00001812,0.00002063,0.005
 05814,0.00003066,-0.00004158,0.00318792,-0.00041089,0.00085266,-0.0357
 8317,-0.00008915,0.00012940,0.00382291,-0.00000422,0.00000722,0.000271
 91,-0.00000242,-0.00000559,-0.00119409,0.00000182,-0.00000184,0.000124
 10,0.00000092,-0.00002085,-0.00312224,0.00042560,-0.00096713,0.0246653
 4,-0.01456214,0.00935750,-0.00002136,0.01202818,0.00912840,-0.00006180
 ,-0.03868285,0.00443610,0.00004179,-0.04813767,-0.05594168,0.00033121,
 0.02259979,0.00803959,-0.00006272,-0.00051223,-0.01959665,0.00009202,-
 0.00021673,0.00012318,-0.00000006,0.00030636,0.00016858,-0.00000145,0.
 06186731,0.02655648,-0.00021812,-0.38811731,0.02453368,0.00038419,0.00
 011028,0.00035809,-0.00000188,0.72321021,0.00806783,-0.00593567,0.0000
 1454,-0.00823361,-0.00565932,0.00003644,0.02039637,-0.00050733,-0.0000
 3877,-0.02104188,0.02330595,-0.00004907,-0.01095440,-0.01089754,0.0000
 8884,-0.00025708,0.01024544,-0.00004390,0.00023905,-0.00007373,0.00000
 093,-0.00014151,-0.00021510,-0.00000013,-0.01832305,-0.06036205,0.0002
 9806,-0.03055271,-0.12657428,0.00036350,-0.00024366,0.00011629,-0.0000
 0084,0.04579149,0.68840800,-0.00001487,0.00001268,-0.00010461,0.000018
 90,0.00001002,-0.00050044,-0.00003759,-0.00001087,-0.00142147,0.000176
 70,0.00000021,0.00502100,0.00002348,0.00006066,0.00501990,0.00000266,-
 0.00001453,0.00063777,-0.00000057,0.00000077,0.00017685,-0.00000034,-0
 .00000062,-0.00031071,-0.00001163,0.00022997,-0.00143437,0.00063596,0.
 00028045,-0.05715706,0.00000060,-0.00000162,-0.00015344,-0.00110187,-0
 .00263272,0.12791882,0.00015888,-0.00032251,0.00000199,-0.00485378,0.0
 0293054,-0.00000050,-0.01824554,-0.02964324,0.00017419,0.00228644,0.00
 185150,-0.00001968,-0.00223398,-0.00089229,0.00000724,-0.00059898,0.00
 118714,-0.00000457,-0.00057772,-0.00012159,0.00000018,0.00015919,0.000
 08121,-0.00000071,-0.19778517,-0.14020982,0.00084742,-0.02942601,0.028
 06235,-0.00007449,-0.00002740,-0.00000494,0.00000008,-0.17010812,0.110
 10329,-0.00032754,0.72778262,-0.01796461,0.01121366,-0.00002178,0.0207
 8358,0.01404280,-0.00007735,-0.05899402,0.00141405,0.00011326,-0.01979
 761,-0.04299646,0.00020457,0.01733733,0.00843934,-0.00006528,0.0002795
 0,-0.01934681,0.00008760,-0.00008872,0.00017799,-0.00000452,0.00069521
 ,0.00051665,-0.00000404,-0.07264626,-0.29147219,0.00116692,0.06816920,
 0.02378421,-0.00018154,-0.00009167,0.00020532,-0.00000093,0.05025643,-
 0.25373535,0.00084425,0.02020570,0.67909963,0.00008241,-0.00004830,0.0
 0056390,-0.00008152,-0.00004954,0.00419729,0.00030498,0.00006102,0.005
 04615,0.00008118,0.00017848,-0.00343138,-0.00007612,-0.00003859,-0.000
 31532,-0.00000058,0.00008543,-0.00026426,0.00000019,-0.00000399,-0.000
 78332,-0.00000351,-0.00000313,-0.00011833,0.00053992,0.00127025,-0.059
 73706,-0.00025788,-0.00012098,0.00648361,0.00000058,-0.00000125,-0.000
 02554,-0.00005418,0.00075448,-0.05273912,-0.00101491,-0.00262145,0.112
 73442,0.00026104,-0.00012013,-0.00000003,0.00048851,-0.00068914,0.0000
 0306,-0.00161596,-0.00247536,0.00001901,0.01070996,-0.01398042,0.00005
 190,0.00092155,-0.00143846,0.00000069,0.00012534,0.00045740,-0.0000026
 7,-0.00001082,0.00003098,-0.00000003,-0.00012497,-0.00022127,0.0000015
 8,-0.00069336,-0.00092310,0.00000527,-0.13192161,0.12205287,-0.0004086
 6,-0.00043197,0.00022133,0.00000006,-0.01192180,0.02936568,-0.00011285
 ,-0.00489974,-0.00191748,0.00002731,0.13891865,-0.00009611,0.00018139,
 -0.00000141,0.00144336,-0.00070971,0.00000180,-0.00411920,-0.00224215,
 0.00003968,0.01565713,-0.01981673,0.00007416,0.00178704,0.00072571,-0.
 00001919,-0.00031745,0.00003497,-0.00000017,-0.00008185,0.00003861,0.0
 0000008,-0.00028271,-0.00037220,0.00000340,-0.00104020,-0.00010162,0.0
 0000011,0.12268433,-0.26404578,0.00087703,-0.00141192,0.00023259,0.000
 00244,-0.00236188,0.00425755,-0.00000472,-0.00057189,0.00158863,0.0000
 2745,-0.13168349,0.27916236,0.00000005,-0.00000119,-0.00014115,-0.0000
 0690,0.00000569,0.00029291,0.00002761,0.00003394,0.00431858,-0.0000840
 1,0.00012049,0.00207924,-0.00001422,-0.00001475,-0.00294124,0.00000101
 ,-0.00000153,-0.00018120,0.00000035,-0.00000022,0.00004337,0.00000179,
 0.00000335,0.00026275,0.00000510,0.00000067,-0.00021141,-0.00041168,0.
 00087800,-0.03211657,0.00000739,0.00000014,0.00029190,0.00003251,-0.00
 005262,0.00242548,0.00002125,0.00003001,0.00743329,0.00042927,-0.00097
 192,0.02350594,-0.00020284,0.00025904,-0.00000064,0.00035168,0.0000300
 2,-0.00000135,-0.00070355,0.00046079,-0.00000324,-0.00564184,0.0019263
 0,0.00001326,0.00036082,-0.00152842,0.00000676,-0.00058569,-0.00015477
 ,0.00000041,0.00000287,-0.00002122,0.00000023,-0.00001876,-0.00005046,
 0.00000029,-0.00158877,0.00293538,-0.00000309,-0.01043594,-0.02965988,
 0.00015694,-0.00002004,0.00005692,-0.00000005,-0.12856512,-0.12042612,
 0.00068992,0.01142715,0.01559386,-0.00008468,0.00065068,0.00036059,-0.
 00000999,0.13367899,0.00009903,-0.00007318,0.00000090,-0.00013704,-0.0
 0002895,-0.00000193,0.00072429,0.00028227,-0.00000781,0.00065942,0.001
 58236,0.00003239,-0.00002537,-0.00008223,0.00000146,-0.00008258,0.0001
 6678,-0.00000410,-0.00001735,-0.00001716,0.00000049,0.00002701,0.00001
 530,-0.00000001,0.00414619,-0.00164338,0.00002524,0.00138072,0.0037652
 4,-0.00000218,-0.00002648,0.00000590,0.00000058,-0.12062808,-0.2703865
 2,0.00125381,-0.01503943,-0.01868830,0.00011955,-0.00031677,0.00089669
 ,-0.00002603,0.12965254,0.28517244,0.00000018,0.00000071,0.00014389,-0
 .00000082,-0.00000261,-0.00059830,-0.00000325,-0.00000445,-0.00059543,
 0.00001848,0.00002783,0.00844803,-0.00000020,0.00000381,0.00027445,0.0
 0000031,-0.00000359,-0.00069974,0.00000009,0.00000029,0.00007159,-0.00
 000012,0.00000026,0.00003144,-0.00000922,0.00002602,0.00507406,0.00001
 483,0.00004453,0.00374338,0.00000022,0.00000066,0.00013076,0.00069101,
 0.00125337,-0.03582998,0.00005551,0.00007390,0.00249262,-0.00000688,-0
 .00002684,-0.00487497,-0.00075626,-0.00138514,0.02490245,-0.00013226,-
 0.00040620,0.00000089,-0.00061067,0.00069255,-0.00000147,0.00114147,-0
 .00306322,0.00001977,0.00056426,-0.00006225,0.00000035,0.00005167,0.00
 000285,-0.00000119,0.00004117,-0.00006863,0.00000024,-0.00010728,-0.00
 001345,0.00000028,-0.00001104,-0.00010179,0.00000088,-0.01479261,0.005
 02327,0.00000656,0.00088795,0.00323534,-0.00000915,0.00000561,0.000028
 03,-0.00000009,-0.01242240,-0.00273009,0.00003302,-0.33129165,-0.00876
 074,0.00049086,-0.00074909,-0.00017699,0.00000274,0.00084376,0.0003755
 7,-0.00000729,0.35351251,-0.00038820,-0.00027585,-0.00000188,-0.001093
 13,0.00086240,-0.00000117,-0.00129163,-0.00497729,0.00005438,-0.000284
 59,-0.00117028,0.00000358,0.00030799,0.00033285,-0.00000482,0.00009820
 ,-0.00034939,0.00000208,-0.00014966,0.00000898,0.00000021,0.00001595,0
 .00001214,0.00000128,-0.02800969,0.00193339,0.00005374,0.00190843,-0.0
 0475653,0.00004024,-0.00007917,0.00002045,0.00000028,0.02859141,0.0056
 7425,-0.00006280,-0.00850446,-0.05941264,0.00014387,0.00144522,0.00007
 975,0.00000018,-0.00031624,0.00069897,-0.00001566,0.00810770,0.0591553
 4,0.00000063,-0.00000180,-0.00080658,0.00000633,-0.00000371,0.00028618
 ,0.00001370,0.00005631,0.00630672,-0.00000030,0.00000363,-0.00035351,-
 0.00000236,-0.00000440,-0.00063129,-0.00000019,0.00000227,0.00011912,0
 .00000086,0.00000006,0.00000900,0.00000039,0.00000142,0.00028854,0.000
 15731,0.00000424,0.00454997,-0.00000307,0.00003843,0.00466104,0.000000
 45,0.00000008,0.00005031,-0.00011028,-0.00001591,0.00131123,0.00048959
 ,0.00014435,-0.03074233,-0.00000460,0.00000257,0.00058777,-0.00000406,
 -0.00001670,-0.00283169,-0.00053509,-0.00018481,0.02141722,-0.01161056
 ,-0.00307262,0.00003553,0.00051595,0.00330265,-0.00000897,0.00064142,0
 .00000511,0.00000410,0.00120303,-0.00268701,0.00001940,-0.01144750,0.0
 0191668,0.00001417,-0.33811883,-0.00532354,0.00047681,0.00073645,0.000
 47887,-0.00000772,-0.00064343,-0.00024580,0.00000248,0.00013098,-0.000
 08287,-0.00000279,-0.00066770,0.00048894,-0.00000071,0.00087666,-0.000
 46536,-0.00000640,-0.00005453,-0.00038505,0.00000090,0.00001887,0.0000
 3489,-0.00000010,0.00001605,-0.00004536,0.00000064,-0.00008986,-0.0000
 0753,0.00000031,-0.00003255,0.00000194,0.00000015,0.35868327,0.0282561
 1,0.00554589,-0.00005500,0.00219528,-0.00491100,0.00004308,-0.00049346
 ,-0.00108680,0.00000516,-0.00153573,-0.00501438,0.00006409,-0.02960473
 ,0.00400886,0.00004241,-0.00488350,-0.06017904,0.00011461,-0.00040461,
 0.00068398,-0.00001568,0.00135712,0.00014206,-0.00000179,0.00039084,0.
 00003196,-0.00000547,-0.00097939,0.00089330,-0.00000109,0.00020393,0.0
 0069841,-0.00002575,-0.00040117,-0.00033378,-0.00000128,0.00011494,-0.
 00026110,0.00000194,0.00002480,-0.00002579,0.00000086,-0.00015399,-0.0
 0000341,0.00000016,-0.00001027,0.00001890,0.00000035,0.00598852,0.0595
 4799,-0.00010772,-0.00000803,0.00279496,-0.00000292,0.00004155,0.00525
 783,0.00000098,0.00000371,-0.00024575,0.00001789,0.00006655,0.00857594
 ,0.00015804,-0.00000483,0.00356954,0.00047422,0.00011514,-0.03674093,-
 0.00000352,-0.00001692,-0.00287588,-0.00000493,0.00000052,0.00018591,-
 0.00000335,-0.00000444,-0.00100032,0.00000603,-0.00000341,0.00032559,-
 0.00000948,-0.00002486,-0.00486960,0.00000072,-0.00000123,-0.00075212,
 -0.00000030,0.00000190,0.00020877,0.00000014,0.00000090,0.00016754,0.0
 0000083,-0.00000001,-0.00001896,0.00000027,0.00000034,0.00009652,-0.00
 052735,-0.00016550,0.02533402,-0.00273799,0.00157854,-0.00000270,0.002
 13440,0.00307269,-0.00002043,-0.03503216,0.04570701,-0.00014875,-0.005
 58062,-0.00799046,0.00005068,0.00117648,0.00263124,-0.00001335,0.00015
 181,-0.00204998,0.00000840,-0.00011879,-0.00012489,0.00000119,-0.00381
 260,-0.00013065,0.00000596,-0.14562162,0.09875243,-0.00029510,0.002426
 10,0.00418240,-0.00002513,-0.00069265,0.00009678,0.00000070,-0.0055132
 6,-0.00090369,0.00002527,0.01267423,-0.00858492,0.00003524,0.00024444,
 0.00022276,-0.00000273,0.00041818,-0.00050327,0.00000196,0.00312302,-0
 .00130354,-0.00000600,-0.00017994,-0.00006818,0.00000048,0.65837198,0.
 00136716,0.00203219,-0.00001036,-0.00276603,-0.00321656,0.00000917,0.0
 1523276,-0.00115753,0.00000285,-0.00398901,-0.00207157,0.00003586,-0.0
 0064288,0.00120741,-0.00000371,-0.00042291,0.00030745,-0.00000323,0.00
 016616,0.00012149,0.00000080,-0.00058688,0.00183678,-0.00000819,0.0475
 2590,-0.25482434,0.00090690,0.00428968,-0.00355545,0.00000306,-0.00014
 040,-0.00003908,0.00000092,-0.00861546,0.00326089,0.00003742,0.0284044
 3,-0.05606195,0.00025952,0.00037193,0.00012680,-0.00000555,0.00108553,
 -0.00183488,0.00000725,-0.00005462,0.00330361,-0.00003745,0.00014221,0
 .00019912,-0.00000125,-0.02776714,0.36893941,-0.00000372,-0.00001127,0
 .00018817,0.00000605,-0.00000065,-0.00223131,-0.00000875,-0.00004116,0
 .00494891,0.00002863,0.00004241,0.00411766,0.00000318,-0.00000778,0.00
 021254,0.00000174,-0.00000109,-0.00048234,0.00000049,0.00000247,0.0003
 4717,0.00000870,-0.00000934,-0.00011641,-0.00005779,0.00082942,-0.0411
 3032,-0.00002479,0.00000423,-0.00145964,0.00000276,-0.00000050,0.00013
 477,0.00005914,0.00002677,0.00864269,-0.00013485,0.00031318,0.00995391
 ,-0.00000323,-0.00000607,-0.00095218,-0.00000514,0.00001026,0.00010977
 ,-0.00001135,-0.00003583,-0.00491117,-0.00000167,-0.00000110,-0.000030
 44,-0.00081963,-0.00152299,0.02676923,0.00013521,0.00017147,-0.0000010
 9,0.00049359,0.00005142,-0.00000151,0.00174367,0.00351349,-0.00001354,
 -0.00113751,-0.00117685,0.00000800,-0.00002914,0.00051367,-0.00000261,
 -0.00002667,0.00002311,0.00000015,0.00000228,0.00001034,-0.00000013,0.
 00010799,0.00014734,-0.00000098,-0.02572327,-0.00398562,0.00005245,0.0
 0073256,-0.00036110,0.00000077,-0.00010172,-0.00002112,0.00000037,-0.0
 0130798,0.00022914,-0.00000012,0.00554072,-0.00450967,0.00001081,0.000
 03309,0.00003383,-0.00000017,0.00011830,-0.00028089,0.00000114,-0.0000
 2186,0.00094348,-0.00000344,0.00002223,0.00000347,-0.00000002,-0.48143
 100,-0.05360044,0.00096022,0.50084952,0.00035272,0.00025353,-0.0000016
 5,-0.00117244,-0.00104277,0.00000589,0.00231710,-0.00656301,0.00003944
 ,0.00155456,0.00124559,-0.00000349,-0.00017060,-0.00066849,0.00000237,
 -0.00027166,0.00027396,-0.00000058,-0.00003136,-0.00003343,-0.00000013
 ,0.00019481,0.00070789,-0.00000438,0.04598547,0.00281698,-0.00009415,-
 0.00062532,-0.00003998,0.00000143,0.00013208,0.00002753,-0.00000021,0.
 00020397,-0.00058769,-0.00000107,0.00236907,0.00149252,-0.00001477,-0.
 00020459,-0.00001107,0.00000048,-0.00004988,0.00017206,-0.00000049,-0.
 00201706,-0.00115908,0.00001108,-0.00004466,0.00004483,-0.00000011,-0.
 10681714,-0.05857380,0.00040906,0.05829493,0.06164444,-0.00000028,-0.0
 0000105,-0.00000390,0.00000448,0.00000456,-0.00012870,-0.00001016,0.00
 003700,0.00257620,-0.00000018,-0.00000025,0.00118512,-0.00000093,0.000
 00061,-0.00023751,0.00000071,-0.00000064,0.00004166,-0.00000040,-0.000
 00116,-0.00005745,-0.00000169,-0.00000372,-0.00016606,-0.00017819,-0.0
 0001895,-0.00264129,0.00000135,0.00000036,0.00008772,-0.00000113,0.000
 00102,0.00003505,0.00000114,-0.00000174,-0.00075043,-0.00001988,-0.000
 00305,-0.00095727,0.00000068,0.00000070,0.00000993,-0.00000015,-0.0000
 0075,0.00002664,0.00000978,0.00000677,0.00059295,0.00000123,0.,0.00001
 739,0.00120394,0.00032900,-0.00411102,-0.00101031,-0.00034871,0.004480
 97||0.00003153,-0.00006534,0.00000025,-0.00007015,0.00001958,0.0000000
 2,0.00008821,-0.00012609,0.00000044,-0.00006503,0.00023260,-0.00000097
 ,0.00000327,-0.00006489,0.00000029,-0.00004842,0.00004878,-0.00000015,
 0.00000246,0.00001221,-0.00000006,0.00002335,0.00001347,-0.00000010,0.
 00000872,-0.00006673,0.00000029,-0.00005530,-0.00009758,0.00000053,0.0
 0001413,0.00001876,-0.00000011,0.00006285,-0.00002166,0.,0.00001363,0.
 00010220,-0.00000049,-0.00000962,0.00000372,0.,-0.00001486,-0.00000191
 ,0.00000003,-0.00002384,-0.00001415,0.00000010,0.00001584,-0.00001063,
 0.00000002,0.00004046,0.00003736,-0.00000024,-0.00001723,-0.00001970,0
 .00000012|||@


 THERE'S SMALL CHOICE IN A BOWL OF ROTTEN APPLES.
                     SHAKESPEARE
 Job cpu time:       0 days  0 hours  5 minutes 20.0 seconds.
 File lengths (MBytes):  RWF=    105 Int=      0 D2E=      0 Chk=      5 Scr=      1
 Normal termination of Gaussian 09 at Thu Sep 14 14:00:25 2023.
