 Entering Link 1 = C:\G09W\l1.exe PID=      5568.
  
 Copyright (c) 1988,1990,1992,1993,1995,1998,2003,2009,2013,
            Gaussian, Inc.  All Rights Reserved.
  
 This is part of the Gaussian(R) 09 program.  It is based on
 the Gaussian(R) 03 system (copyright 2003, Gaussian, Inc.),
 the Gaussian(R) 98 system (copyright 1998, Gaussian, Inc.),
 the Gaussian(R) 94 system (copyright 1995, Gaussian, Inc.),
 the Gaussian 92(TM) system (copyright 1992, Gaussian, Inc.),
 the Gaussian 90(TM) system (copyright 1990, Gaussian, Inc.),
 the Gaussian 88(TM) system (copyright 1988, Gaussian, Inc.),
 the Gaussian 86(TM) system (copyright 1986, Carnegie Mellon
 University), and the Gaussian 82(TM) system (copyright 1983,
 Carnegie Mellon University). Gaussian is a federally registered
 trademark of Gaussian, Inc.
  
 This software contains proprietary and confidential information,
 including trade secrets, belonging to Gaussian, Inc.
  
 This software is provided under written license and may be
 used, copied, transmitted, or stored only in accord with that
 written license.
  
 The following legend is applicable only to US Government
 contracts under FAR:
  
                    RESTRICTED RIGHTS LEGEND
  
 Use, reproduction and disclosure by the US Government is
 subject to restrictions as set forth in subparagraphs (a)
 and (c) of the Commercial Computer Software - Restricted
 Rights clause in FAR 52.227-19.
  
 Gaussian, Inc.
 340 Quinnipiac St., Bldg. 40, Wallingford CT 06492
  
  
 ---------------------------------------------------------------
 Warning -- This program may not be used in any manner that
 competes with the business of Gaussian, Inc. or will provide
 assistance to any competitor of Gaussian, Inc.  The licensee
 of this program is prohibited from giving any competitor of
 Gaussian, Inc. access to this program.  By using this program,
 the user acknowledges that Gaussian, Inc. is engaged in the
 business of creating and licensing software in the field of
 computational chemistry and represents and warrants to the
 licensee that it is not a competitor of Gaussian, Inc. and that
 it will not use this program in any manner prohibited above.
 ---------------------------------------------------------------
  

 Cite this work as:
 Gaussian 09, Revision D.01,
 M. J. Frisch, G. W. Trucks, H. B. Schlegel, G. E. Scuseria, 
 M. A. Robb, J. R. Cheeseman, G. Scalmani, V. Barone, B. Mennucci, 
 G. A. Petersson, H. Nakatsuji, M. Caricato, X. Li, H. P. Hratchian, 
 A. F. Izmaylov, J. Bloino, G. Zheng, J. L. Sonnenberg, M. Hada, 
 M. Ehara, K. Toyota, R. Fukuda, J. Hasegawa, M. Ishida, T. Nakajima, 
 Y. Honda, O. Kitao, H. Nakai, T. Vreven, J. A. Montgomery, Jr., 
 J. E. Peralta, F. Ogliaro, M. Bearpark, J. J. Heyd, E. Brothers, 
 K. N. Kudin, V. N. Staroverov, T. Keith, R. Kobayashi, J. Normand, 
 K. Raghavachari, A. Rendell, J. C. Burant, S. S. Iyengar, J. Tomasi, 
 M. Cossi, N. Rega, J. M. Millam, M. Klene, J. E. Knox, J. B. Cross, 
 V. Bakken, C. Adamo, J. Jaramillo, R. Gomperts, R. E. Stratmann, 
 O. Yazyev, A. J. Austin, R. Cammi, C. Pomelli, J. W. Ochterski, 
 R. L. Martin, K. Morokuma, V. G. Zakrzewski, G. A. Voth, 
 P. Salvador, J. J. Dannenberg, S. Dapprich, A. D. Daniels, 
 O. Farkas, J. B. Foresman, J. V. Ortiz, J. Cioslowski, 
 and D. J. Fox, Gaussian, Inc., Wallingford CT, 2013.
 
 ******************************************
 Gaussian 09:  EM64W-G09RevD.01 13-Apr-2013
                25-Aug-2023 
 ******************************************
 %nprocshared=2
 Will use up to    2 processors via shared memory.
 %mem=4GB
 %chk=C:\Users\123\Desktop\ML project\MOLECULE_11.chk
 --------------------------------------------------------------------
 # opt freq b3lyp/6-31+g(d) geom=connectivity empiricaldispersion=gd3
 --------------------------------------------------------------------
 1/14=-1,18=20,19=15,26=3,38=1,57=2/1,3;
 2/9=110,12=2,17=6,18=5,40=1/2;
 3/5=1,6=6,7=11,11=2,16=1,25=1,30=1,71=1,74=-5,124=31/1,2,3;
 4//1;
 5/5=2,38=5/2;
 6/7=2,8=2,9=2,10=2,28=1/1;
 7//1,2,3,16;
 1/14=-1,18=20,19=15,26=3/3(2);
 2/9=110/2;
 99//99;
 2/9=110/2;
 3/5=1,6=6,7=11,11=2,16=1,25=1,30=1,71=1,74=-5,124=31/1,2,3;
 4/5=5,16=3,69=1/1;
 5/5=2,38=5/2;
 7//1,2,3,16;
 1/14=-1,18=20,19=15,26=3/3(-5);
 2/9=110/2;
 6/7=2,8=2,9=2,10=2,19=2,28=1/1;
 99/9=1/99;
 -------------------
 Title Card Required
 -------------------
 Symbolic Z-matrix:
 Charge =  0 Multiplicity = 1
 C                    -1.07393  -1.22301   0.1141 
 C                     0.32703  -1.21957   0.07937 
 C                     1.02462  -0.00421   0.06567 
 C                     0.32125   1.20771   0.08671 
 C                    -1.07971   1.20427   0.12144 
 C                    -1.77731  -0.01109   0.13513 
 H                    -1.60656  -2.15096   0.12456 
 H                     0.86407  -2.1449    0.06332 
 H                     0.85388   2.13566   0.07625 
 H                    -1.61675   2.1296    0.1375 
 B                     2.67411  -0.00016   0.02478 
 O                     3.45068   1.32659   0.11575 
 H                     4.30759   1.22531  -0.30502 
 O                     3.45699  -1.32372   0.10775 
 H                     4.3134   -1.21583  -0.3124 
 C                    -3.31683  -0.01487   0.1733 
 H                    -3.85387   0.91046   0.18935 
 O                    -3.94324  -1.10621   0.18559 
 

 GradGradGradGradGradGradGradGradGradGradGradGradGradGradGradGradGradGrad
 Berny optimization.
 Initialization pass.
                           ----------------------------
                           !    Initial Parameters    !
                           ! (Angstroms and Degrees)  !
 --------------------------                            --------------------------
 ! Name  Definition              Value          Derivative Info.                !
 --------------------------------------------------------------------------------
 ! R1    R(1,2)                  1.4014         estimate D2E/DX2                !
 ! R2    R(1,6)                  1.4014         estimate D2E/DX2                !
 ! R3    R(1,7)                  1.07           estimate D2E/DX2                !
 ! R4    R(2,3)                  1.4014         estimate D2E/DX2                !
 ! R5    R(2,8)                  1.07           estimate D2E/DX2                !
 ! R6    R(3,4)                  1.4014         estimate D2E/DX2                !
 ! R7    R(3,11)                 1.65           estimate D2E/DX2                !
 ! R8    R(4,5)                  1.4014         estimate D2E/DX2                !
 ! R9    R(4,9)                  1.07           estimate D2E/DX2                !
 ! R10   R(5,6)                  1.4014         estimate D2E/DX2                !
 ! R11   R(5,10)                 1.07           estimate D2E/DX2                !
 ! R12   R(6,16)                 1.54           estimate D2E/DX2                !
 ! R13   R(11,12)                1.54           estimate D2E/DX2                !
 ! R14   R(11,14)                1.54           estimate D2E/DX2                !
 ! R15   R(12,13)                0.96           estimate D2E/DX2                !
 ! R16   R(14,15)                0.96           estimate D2E/DX2                !
 ! R17   R(16,17)                1.07           estimate D2E/DX2                !
 ! R18   R(16,18)                1.2584         estimate D2E/DX2                !
 ! A1    A(2,1,6)              120.0            estimate D2E/DX2                !
 ! A2    A(2,1,7)              120.0            estimate D2E/DX2                !
 ! A3    A(6,1,7)              120.0            estimate D2E/DX2                !
 ! A4    A(1,2,3)              120.0            estimate D2E/DX2                !
 ! A5    A(1,2,8)              120.0            estimate D2E/DX2                !
 ! A6    A(3,2,8)              120.0            estimate D2E/DX2                !
 ! A7    A(2,3,4)              120.0            estimate D2E/DX2                !
 ! A8    A(2,3,11)             120.0            estimate D2E/DX2                !
 ! A9    A(4,3,11)             120.0            estimate D2E/DX2                !
 ! A10   A(3,4,5)              120.0            estimate D2E/DX2                !
 ! A11   A(3,4,9)              120.0            estimate D2E/DX2                !
 ! A12   A(5,4,9)              120.0            estimate D2E/DX2                !
 ! A13   A(4,5,6)              120.0            estimate D2E/DX2                !
 ! A14   A(4,5,10)             120.0            estimate D2E/DX2                !
 ! A15   A(6,5,10)             120.0            estimate D2E/DX2                !
 ! A16   A(1,6,5)              120.0            estimate D2E/DX2                !
 ! A17   A(1,6,16)             120.0            estimate D2E/DX2                !
 ! A18   A(5,6,16)             120.0            estimate D2E/DX2                !
 ! A19   A(3,11,12)            120.3155         estimate D2E/DX2                !
 ! A20   A(3,11,14)            120.3154         estimate D2E/DX2                !
 ! A21   A(12,11,14)           118.7449         estimate D2E/DX2                !
 ! A22   A(11,12,13)           109.4712         estimate D2E/DX2                !
 ! A23   A(11,14,15)           109.4712         estimate D2E/DX2                !
 ! A24   A(6,16,17)            120.0            estimate D2E/DX2                !
 ! A25   A(6,16,18)            120.0            estimate D2E/DX2                !
 ! A26   A(17,16,18)           120.0            estimate D2E/DX2                !
 ! D1    D(6,1,2,3)              0.0            estimate D2E/DX2                !
 ! D2    D(6,1,2,8)            180.0            estimate D2E/DX2                !
 ! D3    D(7,1,2,3)            180.0            estimate D2E/DX2                !
 ! D4    D(7,1,2,8)             -0.0001         estimate D2E/DX2                !
 ! D5    D(2,1,6,5)             -0.0001         estimate D2E/DX2                !
 ! D6    D(2,1,6,16)           179.9999         estimate D2E/DX2                !
 ! D7    D(7,1,6,5)            179.9999         estimate D2E/DX2                !
 ! D8    D(7,1,6,16)            -0.0001         estimate D2E/DX2                !
 ! D9    D(1,2,3,4)              0.0001         estimate D2E/DX2                !
 ! D10   D(1,2,3,11)          -179.9999         estimate D2E/DX2                !
 ! D11   D(8,2,3,4)           -179.9999         estimate D2E/DX2                !
 ! D12   D(8,2,3,11)             0.0001         estimate D2E/DX2                !
 ! D13   D(2,3,4,5)             -0.0001         estimate D2E/DX2                !
 ! D14   D(2,3,4,9)            179.9999         estimate D2E/DX2                !
 ! D15   D(11,3,4,5)           179.9999         estimate D2E/DX2                !
 ! D16   D(11,3,4,9)            -0.0001         estimate D2E/DX2                !
 ! D17   D(2,3,11,12)         -175.4152         estimate D2E/DX2                !
 ! D18   D(2,3,11,14)           -4.5848         estimate D2E/DX2                !
 ! D19   D(4,3,11,12)            4.5848         estimate D2E/DX2                !
 ! D20   D(4,3,11,14)          175.4152         estimate D2E/DX2                !
 ! D21   D(3,4,5,6)              0.0            estimate D2E/DX2                !
 ! D22   D(3,4,5,10)           180.0            estimate D2E/DX2                !
 ! D23   D(9,4,5,6)            180.0            estimate D2E/DX2                !
 ! D24   D(9,4,5,10)             0.0            estimate D2E/DX2                !
 ! D25   D(4,5,6,1)              0.0001         estimate D2E/DX2                !
 ! D26   D(4,5,6,16)          -179.9999         estimate D2E/DX2                !
 ! D27   D(10,5,6,1)          -179.9999         estimate D2E/DX2                !
 ! D28   D(10,5,6,16)            0.0001         estimate D2E/DX2                !
 ! D29   D(1,6,16,17)          180.0            estimate D2E/DX2                !
 ! D30   D(1,6,16,18)           -0.0001         estimate D2E/DX2                !
 ! D31   D(5,6,16,17)            0.0            estimate D2E/DX2                !
 ! D32   D(5,6,16,18)          179.9998         estimate D2E/DX2                !
 ! D33   D(3,11,12,13)        -154.5136         estimate D2E/DX2                !
 ! D34   D(14,11,12,13)         34.5135         estimate D2E/DX2                !
 ! D35   D(3,11,14,15)         154.5136         estimate D2E/DX2                !
 ! D36   D(12,11,14,15)        -34.5135         estimate D2E/DX2                !
 --------------------------------------------------------------------------------
 Trust Radius=3.00D-01 FncErr=1.00D-07 GrdErr=1.00D-06
 Number of steps in this run=     90 maximum allowed number of steps=    108.
 GradGradGradGradGradGradGradGradGradGradGradGradGradGradGradGradGradGrad

                          Input orientation:                          
 ---------------------------------------------------------------------
 Center     Atomic      Atomic             Coordinates (Angstroms)
 Number     Number       Type             X           Y           Z
 ---------------------------------------------------------------------
      1          6           0       -1.073935   -1.223007    0.114103
      2          6           0        0.327031   -1.219568    0.079373
      3          6           0        1.024625   -0.004209    0.065674
      4          6           0        0.321254    1.207710    0.086707
      5          6           0       -1.079711    1.204271    0.121437
      6          6           0       -1.777306   -0.011087    0.135134
      7          1           0       -1.606564   -2.150960    0.124562
      8          1           0        0.864070   -2.144895    0.063316
      9          1           0        0.853883    2.135663    0.076249
     10          1           0       -1.616751    2.129599    0.137497
     11          5           0        2.674113   -0.000160    0.024781
     12          8           0        3.450684    1.326589    0.115753
     13          1           0        4.307593    1.225310   -0.305020
     14          8           0        3.456991   -1.323723    0.107745
     15          1           0        4.313402   -1.215826   -0.312396
     16          6           0       -3.316828   -0.014867    0.173296
     17          1           0       -3.853868    0.910461    0.189354
     18          8           0       -3.943240   -1.106209    0.185592
 ---------------------------------------------------------------------
                    Distance matrix (angstroms):
                    1          2          3          4          5
     1  C    0.000000
     2  C    1.401400   0.000000
     3  C    2.427296   1.401400   0.000000
     4  C    2.802800   2.427296   1.401400   0.000000
     5  C    2.427296   2.802800   2.427296   1.401400   0.000000
     6  C    1.401400   2.427296   2.802800   2.427296   1.401400
     7  H    1.070000   2.146700   3.396345   3.872800   3.396345
     8  H    2.146700   1.070000   2.146700   3.396345   3.872800
     9  H    3.872800   3.396345   2.146700   1.070000   2.146700
    10  H    3.396345   3.872800   3.396345   2.146700   1.070000
    11  B    3.943500   2.645512   1.650000   2.645512   3.943500
    12  O    5.193516   4.030068   2.767543   3.131822   4.532050
    13  H    5.927120   4.687223   3.525196   4.005578   5.404198
    14  O    4.532050   3.131822   2.767543   4.030068   5.193516
    15  H    5.404198   4.005578   3.525196   4.687223   5.927120
    16  C    2.548270   3.838989   4.342800   3.838989   2.548270
    17  H    3.505050   4.693509   4.965039   4.186948   2.790498
    18  O    2.872571   4.273095   5.090036   4.852825   3.679977
                    6          7          8          9         10
     6  C    0.000000
     7  H    2.146700   0.000000
     8  H    3.396345   2.471400   0.000000
     9  H    3.396345   4.942800   4.280590   0.000000
    10  H    2.146700   4.280590   4.942800   2.471400   0.000000
    11  B    4.452800   4.791669   2.806712   2.806712   4.791669
    12  O    5.396446   6.137522   4.329494   2.720209   5.130711
    13  H    6.224821   6.823561   4.832370   3.591966   6.009276
    14  O    5.396446   5.130711   2.720209   4.329494   6.137522
    15  H    6.224821   6.009276   3.591966   4.832370   6.823561
    16  C    1.540000   2.736837   4.693509   4.693509   2.736837
    17  H    2.272510   3.798272   5.622279   4.865884   2.548270
    18  O    2.427572   2.560329   4.919761   5.790861   3.985638
                   11         12         13         14         15
    11  B    0.000000
    12  O    1.540000   0.000000
    13  H    2.068526   0.960000   0.000000
    14  O    1.540000   2.650331   2.718725   0.000000
    15  H    2.068526   2.718725   2.441153   0.960000   0.000000
    16  C    5.992800   6.899423   7.739420   6.899423   7.739420
    17  H    6.593243   7.316765   8.182479   7.645057   8.454416
    18  O    6.711078   7.784182   8.587952   7.403836   8.272372
                   16         17         18
    16  C    0.000000
    17  H    1.070000   0.000000
    18  O    1.258400   2.018653   0.000000
 Stoichiometry    C7H7BO3
 Framework group  C1[X(C7H7BO3)]
 Deg. of freedom    48
 Full point group                 C1      NOp   1
 Largest Abelian subgroup         C1      NOp   1
 Largest concise Abelian subgroup C1      NOp   1
                         Standard orientation:                         
 ---------------------------------------------------------------------
 Center     Atomic      Atomic             Coordinates (Angstroms)
 Number     Number       Type             X           Y           Z
 ---------------------------------------------------------------------
      1          6           0        1.244506   -1.024257    0.007943
      2          6           0       -0.153006   -1.128195    0.016838
      3          6           0       -0.941784    0.030140    0.020141
      4          6           0       -0.333051    1.292413    0.014548
      5          6           0        1.064461    1.396352    0.005653
      6          6           0        1.853239    0.238017    0.002352
      7          1           0        1.846755   -1.908671    0.005422
      8          1           0       -0.617788   -2.091969    0.021107
      9          1           0       -0.935300    2.176828    0.017069
     10          1           0        1.529243    2.360125    0.001382
     11          5           0       -2.587207   -0.092236    0.030616
     12          8           0       -3.461341    1.171476   -0.071964
     13          1           0       -4.315502    1.003448    0.332728
     14          8           0       -3.264752   -1.471553   -0.069463
     15          1           0       -4.134429   -1.430979    0.335031
     16          6           0        3.388967    0.352235   -0.007420
     17          1           0        3.853749    1.316008   -0.011690
     18          8           0        4.097258   -0.687903   -0.010381
 ---------------------------------------------------------------------
 Rotational constants (GHZ):      3.1317111      0.5124156      0.4406694
 Standard basis: 6-31+G(d) (6D, 7F)
 There are   223 symmetry adapted cartesian basis functions of A   symmetry.
 There are   223 symmetry adapted basis functions of A   symmetry.
   223 basis functions,   380 primitive gaussians,   223 cartesian basis functions
    39 alpha electrons       39 beta electrons
       nuclear repulsion energy       519.0202078205 Hartrees.
 NAtoms=   18 NActive=   18 NUniq=   18 SFac= 1.00D+00 NAtFMM=   60 NAOKFM=F Big=F
 Integral buffers will be    131072 words long.
 Raffenetti 2 integral format.
 Two-electron integral symmetry is turned on.
 Nuclear repulsion after empirical dispersion term =      519.0070721971 Hartrees.
 One-electron integrals computed using PRISM.
 NBasis=   223 RedAO= T EigKep=  2.75D-06  NBF=   223
 NBsUse=   223 1.00D-06 EigRej= -1.00D+00 NBFU=   223
 ExpMin= 3.15D-02 ExpMax= 5.48D+03 ExpMxC= 8.25D+02 IAcc=3 IRadAn=         5 AccDes= 0.00D+00
 Harris functional with IExCor=  402 and IRadAn=       5 diagonalized for initial guess.
 HarFok:  IExCor=  402 AccDes= 0.00D+00 IRadAn=         5 IDoV= 1 UseB2=F ITyADJ=14
 ICtDFT=  3500011 ScaDFX=  1.000000  1.000000  1.000000  1.000000
 FoFCou: FMM=F IPFlag=           0 FMFlag=      100000 FMFlg1=           0
         NFxFlg=           0 DoJE=T BraDBF=F KetDBF=T FulRan=T
         wScrn=  0.000000 ICntrl=     500 IOpCl=  0 I1Cent=   200000004 NGrid=           0
         NMat0=    1 NMatS0=      1 NMatT0=    0 NMatD0=    1 NMtDS0=    0 NMtDT0=    0
 Petite list used in FoFCou.
 Keep R1 ints in memory in canonical form, NReq=317703117.
 Requested convergence on RMS density matrix=1.00D-08 within 128 cycles.
 Requested convergence on MAX density matrix=1.00D-06.
 Requested convergence on             energy=1.00D-06.
 No special actions if energy rises.
 SCF Done:  E(RB3LYP) =  -521.577642003     A.U. after   15 cycles
            NFock= 15  Conv=0.97D-08     -V/T= 2.0107

 **********************************************************************

            Population analysis using the SCF density.

 **********************************************************************

 Orbital symmetries:
       Occupied  (A) (A) (A) (A) (A) (A) (A) (A) (A) (A) (A) (A)
                 (A) (A) (A) (A) (A) (A) (A) (A) (A) (A) (A) (A)
                 (A) (A) (A) (A) (A) (A) (A) (A) (A) (A) (A) (A)
                 (A) (A) (A)
       Virtual   (A) (A) (A) (A) (A) (A) (A) (A) (A) (A) (A) (A)
                 (A) (A) (A) (A) (A) (A) (A) (A) (A) (A) (A) (A)
                 (A) (A) (A) (A) (A) (A) (A) (A) (A) (A) (A) (A)
                 (A) (A) (A) (A) (A) (A) (A) (A) (A) (A) (A) (A)
                 (A) (A) (A) (A) (A) (A) (A) (A) (A) (A) (A) (A)
                 (A) (A) (A) (A) (A) (A) (A) (A) (A) (A) (A) (A)
                 (A) (A) (A) (A) (A) (A) (A) (A) (A) (A) (A) (A)
                 (A) (A) (A) (A) (A) (A) (A) (A) (A) (A) (A) (A)
                 (A) (A) (A) (A) (A) (A) (A) (A) (A) (A) (A) (A)
                 (A) (A) (A) (A) (A) (A) (A) (A) (A) (A) (A) (A)
                 (A) (A) (A) (A) (A) (A) (A) (A) (A) (A) (A) (A)
                 (A) (A) (A) (A) (A) (A) (A) (A) (A) (A) (A) (A)
                 (A) (A) (A) (A) (A) (A) (A) (A) (A) (A) (A) (A)
                 (A) (A) (A) (A) (A) (A) (A) (A) (A) (A) (A) (A)
                 (A) (A) (A) (A) (A) (A) (A) (A) (A) (A) (A) (A)
                 (A) (A) (A) (A)
 The electronic state is 1-A.
 Alpha  occ. eigenvalues --  -19.19014 -19.18988 -19.16691 -10.29671 -10.22759
 Alpha  occ. eigenvalues --  -10.22012 -10.21654 -10.21511 -10.21457 -10.21352
 Alpha  occ. eigenvalues --   -6.86591  -1.03688  -1.03061  -1.00791  -0.87792
 Alpha  occ. eigenvalues --   -0.77902  -0.76950  -0.66290  -0.63194  -0.59517
 Alpha  occ. eigenvalues --   -0.56811  -0.53004  -0.52343  -0.48405  -0.47249
 Alpha  occ. eigenvalues --   -0.44845  -0.44256  -0.43689  -0.43113  -0.41075
 Alpha  occ. eigenvalues --   -0.38250  -0.37306  -0.36804  -0.36292  -0.34731
 Alpha  occ. eigenvalues --   -0.32777  -0.27993  -0.27444  -0.27316
 Alpha virt. eigenvalues --   -0.09458  -0.03873  -0.03369  -0.02676   0.00369
 Alpha virt. eigenvalues --    0.01372   0.01950   0.02284   0.03632   0.04340
 Alpha virt. eigenvalues --    0.04630   0.06240   0.06631   0.06820   0.08794
 Alpha virt. eigenvalues --    0.08912   0.10157   0.10254   0.10434   0.11973
 Alpha virt. eigenvalues --    0.12538   0.13319   0.13870   0.14290   0.15110
 Alpha virt. eigenvalues --    0.15209   0.15869   0.16375   0.16930   0.17204
 Alpha virt. eigenvalues --    0.17556   0.18216   0.19609   0.19931   0.20250
 Alpha virt. eigenvalues --    0.20468   0.21709   0.22248   0.22453   0.22965
 Alpha virt. eigenvalues --    0.23252   0.23670   0.24504   0.24856   0.26523
 Alpha virt. eigenvalues --    0.26859   0.27180   0.27873   0.28441   0.28840
 Alpha virt. eigenvalues --    0.29489   0.30396   0.30729   0.31402   0.32968
 Alpha virt. eigenvalues --    0.33673   0.33839   0.35059   0.37498   0.37926
 Alpha virt. eigenvalues --    0.40661   0.42546   0.43150   0.44506   0.46087
 Alpha virt. eigenvalues --    0.56764   0.56958   0.59979   0.61328   0.65113
 Alpha virt. eigenvalues --    0.65809   0.67503   0.67948   0.69920   0.70245
 Alpha virt. eigenvalues --    0.73000   0.74269   0.75619   0.76215   0.76767
 Alpha virt. eigenvalues --    0.79155   0.81545   0.87064   0.88707   0.89693
 Alpha virt. eigenvalues --    0.90398   0.90802   0.96078   0.96126   0.99996
 Alpha virt. eigenvalues --    1.00418   1.02943   1.03293   1.06987   1.07558
 Alpha virt. eigenvalues --    1.08201   1.09163   1.11717   1.12301   1.12796
 Alpha virt. eigenvalues --    1.20836   1.21460   1.21884   1.22242   1.23444
 Alpha virt. eigenvalues --    1.24258   1.25576   1.26441   1.28078   1.29924
 Alpha virt. eigenvalues --    1.32106   1.33402   1.33855   1.36627   1.38074
 Alpha virt. eigenvalues --    1.38943   1.42564   1.44400   1.44939   1.48364
 Alpha virt. eigenvalues --    1.48582   1.49653   1.51417   1.53408   1.61303
 Alpha virt. eigenvalues --    1.65080   1.65929   1.66993   1.68669   1.72905
 Alpha virt. eigenvalues --    1.74170   1.77026   1.78809   1.81274   1.84000
 Alpha virt. eigenvalues --    1.86929   1.90016   1.95899   1.98804   2.00810
 Alpha virt. eigenvalues --    2.02050   2.03111   2.05156   2.08076   2.09680
 Alpha virt. eigenvalues --    2.12776   2.13035   2.16013   2.19420   2.22805
 Alpha virt. eigenvalues --    2.27924   2.28054   2.31046   2.32308   2.34457
 Alpha virt. eigenvalues --    2.39309   2.46581   2.46705   2.52638   2.54889
 Alpha virt. eigenvalues --    2.60260   2.63258   2.66350   2.71366   2.72066
 Alpha virt. eigenvalues --    2.76070   2.79148   2.83678   2.90031   2.94140
 Alpha virt. eigenvalues --    3.04594   3.12108   3.37412   3.69210   4.02782
 Alpha virt. eigenvalues --    4.12658   4.21858   4.23890   4.25229   4.29138
 Alpha virt. eigenvalues --    4.35669   4.37982   4.46658   4.70263
          Condensed to atoms (all electrons):
               1          2          3          4          5          6
     1  C   15.580968  -9.292540   0.860114   0.635530  -1.443735   0.649472
     2  C   -9.292540  18.013883  -1.649986  -2.619690   0.311709   0.115317
     3  C    0.860114  -1.649986   8.900893  -2.441136   2.172552  -1.289452
     4  C    0.635530  -2.619690  -2.441136  16.282121  -8.254035   1.419472
     5  C   -1.443735   0.311709   2.172552  -8.254035  16.122096  -2.092567
     6  C    0.649472   0.115317  -1.289452   1.419472  -2.092567   7.938333
     7  H    0.230230  -0.011198   0.016280  -0.017650   0.054371   0.040010
     8  H   -0.010162   0.273838   0.002822   0.031726  -0.018760   0.009202
     9  H   -0.020460   0.039055   0.036060   0.270057  -0.026062  -0.011874
    10  H    0.045604  -0.018378   0.019928   0.067577   0.150719   0.049513
    11  B   -0.152932   0.120046   0.388205   0.117515  -0.133759   0.046265
    12  O    0.038919   0.031269   0.092735  -0.055717  -0.104372   0.008486
    13  H    0.003025  -0.022208  -0.010583   0.024043   0.001512  -0.001747
    14  O   -0.110830  -0.043469   0.108694   0.022716   0.034044   0.002392
    15  H   -0.001169   0.027648  -0.010787  -0.025310   0.004044  -0.001814
    16  C   -0.793057   0.706418  -0.505797   0.522891  -0.160626  -1.067909
    17  H   -0.072322   0.007546   0.005855   0.017931   0.142064  -0.241940
    18  O   -0.250355   0.150854  -0.015964   0.028368   0.027877  -0.131824
               7          8          9         10         11         12
     1  C    0.230230  -0.010162  -0.020460   0.045604  -0.152932   0.038919
     2  C   -0.011198   0.273838   0.039055  -0.018378   0.120046   0.031269
     3  C    0.016280   0.002822   0.036060   0.019928   0.388205   0.092735
     4  C   -0.017650   0.031726   0.270057   0.067577   0.117515  -0.055717
     5  C    0.054371  -0.018760  -0.026062   0.150719  -0.133759  -0.104372
     6  C    0.040010   0.009202  -0.011874   0.049513   0.046265   0.008486
     7  H    0.490029  -0.003687   0.000015  -0.000140   0.000609   0.000014
     8  H   -0.003687   0.507120  -0.000123   0.000017  -0.007263   0.000746
     9  H    0.000015  -0.000123   0.509029  -0.003910  -0.007275   0.005398
    10  H   -0.000140   0.000017  -0.003910   0.533057   0.000896   0.000104
    11  B    0.000609  -0.007263  -0.007275   0.000896   3.338985   0.194290
    12  O    0.000014   0.000746   0.005398   0.000104   0.194290   8.479817
    13  H    0.000000  -0.000005  -0.000114   0.000000   0.015513   0.171826
    14  O    0.000082   0.005122   0.000745   0.000015   0.195831  -0.105445
    15  H    0.000000  -0.000118  -0.000005   0.000000   0.016166  -0.007119
    16  C   -0.024105  -0.002755  -0.000926  -0.034863   0.008276   0.000256
    17  H    0.000065   0.000002   0.000005   0.004193   0.000246   0.000000
    18  O    0.005842   0.000115   0.000018   0.000449   0.000447   0.000000
              13         14         15         16         17         18
     1  C    0.003025  -0.110830  -0.001169  -0.793057  -0.072322  -0.250355
     2  C   -0.022208  -0.043469   0.027648   0.706418   0.007546   0.150854
     3  C   -0.010583   0.108694  -0.010787  -0.505797   0.005855  -0.015964
     4  C    0.024043   0.022716  -0.025310   0.522891   0.017931   0.028368
     5  C    0.001512   0.034044   0.004044  -0.160626   0.142064   0.027877
     6  C   -0.001747   0.002392  -0.001814  -1.067909  -0.241940  -0.131824
     7  H    0.000000   0.000082   0.000000  -0.024105   0.000065   0.005842
     8  H   -0.000005   0.005122  -0.000118  -0.002755   0.000002   0.000115
     9  H   -0.000114   0.000745  -0.000005  -0.000926   0.000005   0.000018
    10  H    0.000000   0.000015   0.000000  -0.034863   0.004193   0.000449
    11  B    0.015513   0.195831   0.016166   0.008276   0.000246   0.000447
    12  O    0.171826  -0.105445  -0.007119   0.000256   0.000000   0.000000
    13  H    0.362908  -0.006972   0.003523  -0.000103   0.000000   0.000000
    14  O   -0.006972   8.470530   0.172655   0.000622   0.000000   0.000000
    15  H    0.003523   0.172655   0.363138  -0.000108   0.000000   0.000000
    16  C   -0.000103   0.000622  -0.000108   6.387756   0.421003   0.493083
    17  H    0.000000   0.000000   0.000000   0.421003   0.597640  -0.061928
    18  O    0.000000   0.000000   0.000000   0.493083  -0.061928   8.118550
 Mulliken charges:
               1
     1  C    0.103700
     2  C   -0.140115
     3  C   -0.680432
     4  C   -0.026411
     5  C   -0.787073
     6  C    0.560665
     7  H    0.219233
     8  H    0.212165
     9  H    0.210367
    10  H    0.185218
    11  B    0.857939
    12  O   -0.751209
    13  H    0.459381
    14  O   -0.746733
    15  H    0.459255
    16  C    0.049943
    17  H    0.179638
    18  O   -0.365532
 Sum of Mulliken charges =   0.00000
 Mulliken charges with hydrogens summed into heavy atoms:
               1
     1  C    0.322933
     2  C    0.072050
     3  C   -0.680432
     4  C    0.183956
     5  C   -0.601855
     6  C    0.560665
    11  B    0.857939
    12  O   -0.291828
    14  O   -0.287477
    16  C    0.229582
    18  O   -0.365532
 Electronic spatial extent (au):  <R**2>=           2322.0859
 Charge=              0.0000 electrons
 Dipole moment (field-independent basis, Debye):
    X=             -3.7452    Y=              1.8334    Z=              1.5256  Tot=              4.4402
 Quadrupole moment (field-independent basis, Debye-Ang):
   XX=            -61.2790   YY=            -63.6953   ZZ=            -65.9635
   XY=              9.6751   XZ=             -6.9265   YZ=             -0.3941
 Traceless Quadrupole moment (field-independent basis, Debye-Ang):
   XX=              2.3669   YY=             -0.0494   ZZ=             -2.3175
   XY=              9.6751   XZ=             -6.9265   YZ=             -0.3941
 Octapole moment (field-independent basis, Debye-Ang**2):
  XXX=           -173.2990  YYY=              1.1381  ZZZ=              0.1367  XYY=             13.2289
  XXY=             26.5392  XXZ=             30.1200  XZZ=             -3.4314  YZZ=             -1.7940
  YYZ=              2.2760  XYZ=              1.2441
 Hexadecapole moment (field-independent basis, Debye-Ang**3):
 XXXX=          -2218.2802 YYYY=           -477.8465 ZZZZ=            -75.6989 XXXY=            178.1030
 XXXZ=           -128.6173 YYYX=              1.0895 YYYZ=             -1.8141 ZZZX=             -3.1908
 ZZZY=             -0.1981 XXYY=           -504.6728 XXZZ=           -411.4517 YYZZ=           -101.8575
 XXYZ=             -5.4054 YYXZ=            -11.0217 ZZXY=             -1.6976
 N-N= 5.190070721971D+02 E-N=-2.254088683248D+03  KE= 5.160420528232D+02
 Calling FoFJK, ICntrl=      2127 FMM=F ISym2X=0 I1Cent= 0 IOpClX= 0 NMat=1 NMatS=1 NMatT=0.
 ***** Axes restored to original set *****
 -------------------------------------------------------------------
 Center     Atomic                   Forces (Hartrees/Bohr)
 Number     Number              X              Y              Z
 -------------------------------------------------------------------
      1        6           0.012930924    0.005088918   -0.000264075
      2        6          -0.016377061    0.008442501    0.000048932
      3        6           0.050961342    0.001756069    0.000639903
      4        6          -0.012507154   -0.007142854   -0.000105004
      5        6           0.010770558   -0.009635857   -0.000251036
      6        6          -0.027571019    0.007010607    0.000535418
      7        1          -0.007806801   -0.008598661    0.000204778
      8        1           0.006131780   -0.009728957   -0.000127720
      9        1           0.006418833    0.009679159   -0.000085152
     10        1          -0.006605082    0.011265295    0.000232877
     11        5           0.039612842   -0.000055972    0.022259084
     12        8          -0.054832758   -0.068394374   -0.012117343
     13        1           0.012082848    0.000141299    0.000739235
     14        8          -0.055335209    0.068578176   -0.011688355
     15        1           0.012080031   -0.000137684    0.000729128
     16        6           0.016466118   -0.080035647   -0.000627700
     17        1          -0.007542074    0.021783656    0.000274428
     18        8           0.021121880    0.049984324   -0.000397396
 -------------------------------------------------------------------
 Cartesian Forces:  Max     0.080035647 RMS     0.024786426

 GradGradGradGradGradGradGradGradGradGradGradGradGradGradGradGradGradGrad
 Berny optimization.
 FormGI is forming the generalized inverse of G from B-inverse, IUseBI=4.
 Internal  Forces:  Max     0.081401406 RMS     0.016255872
 Search for a local minimum.
 Step number   1 out of a maximum of   90
 All quantities printed in internal units (Hartrees-Bohrs-Radians)
 Mixed Optimization -- RFO/linear search
 Second derivative matrix not updated -- first step.
 ITU=  0
     Eigenvalues ---    0.00230   0.00237   0.00237   0.00369   0.00369
     Eigenvalues ---    0.00376   0.01458   0.01556   0.02070   0.02070
     Eigenvalues ---    0.02070   0.02070   0.02070   0.02070   0.02070
     Eigenvalues ---    0.16000   0.16000   0.16000   0.16000   0.16000
     Eigenvalues ---    0.16000   0.16000   0.20635   0.22000   0.22000
     Eigenvalues ---    0.22981   0.24000   0.24852   0.24894   0.25000
     Eigenvalues ---    0.25000   0.28519   0.28519   0.28519   0.37230
     Eigenvalues ---    0.37230   0.37230   0.37230   0.37230   0.41268
     Eigenvalues ---    0.41640   0.45389   0.45389   0.45389   0.45389
     Eigenvalues ---    0.55473   0.55473   0.80209
 RFO step:  Lambda=-5.90383058D-02 EMin= 2.30000000D-03
 Linear search not attempted -- first point.
 Maximum step size (   0.300) exceeded in Quadratic search.
    -- Step size scaled by   0.733
 Iteration  1 RMS(Cart)=  0.05774315 RMS(Int)=  0.00069113
 Iteration  2 RMS(Cart)=  0.00067302 RMS(Int)=  0.00006756
 Iteration  3 RMS(Cart)=  0.00000075 RMS(Int)=  0.00006756
 Variable       Old X    -DE/DX   Delta X   Delta X   Delta X     New X
                                 (Linear)    (Quad)   (Total)
    R1        2.64826  -0.00667   0.00000  -0.00958  -0.00958   2.63868
    R2        2.64826   0.00001   0.00000  -0.00013  -0.00013   2.64814
    R3        2.02201   0.01135   0.00000   0.01929   0.01929   2.04130
    R4        2.64826   0.00514   0.00000   0.00745   0.00745   2.65571
    R5        2.02201   0.01149   0.00000   0.01954   0.01954   2.04155
    R6        2.64826   0.00222   0.00000   0.00332   0.00332   2.65158
    R7        3.11805  -0.04638   0.00000  -0.12815  -0.12815   2.98990
    R8        2.64826  -0.00509   0.00000  -0.00724  -0.00724   2.64103
    R9        2.02201   0.01159   0.00000   0.01971   0.01971   2.04171
   R10        2.64826   0.00143   0.00000   0.00193   0.00193   2.65019
   R11        2.02201   0.01306   0.00000   0.02221   0.02221   2.04421
   R12        2.91018  -0.03003   0.00000  -0.06399  -0.06399   2.84619
   R13        2.91018  -0.08103   0.00000  -0.17263  -0.17263   2.73755
   R14        2.91018  -0.08140   0.00000  -0.17342  -0.17342   2.73676
   R15        1.81414   0.01045   0.00000   0.01248   0.01248   1.82662
   R16        1.81414   0.01044   0.00000   0.01248   0.01248   1.82661
   R17        2.02201   0.02263   0.00000   0.03847   0.03847   2.06048
   R18        2.37803  -0.05387   0.00000  -0.04587  -0.04587   2.33216
    A1        2.09440  -0.00211   0.00000  -0.00578  -0.00578   2.08861
    A2        2.09440   0.00358   0.00000   0.01133   0.01133   2.10572
    A3        2.09440  -0.00146   0.00000  -0.00554  -0.00554   2.08885
    A4        2.09440   0.00109   0.00000   0.00311   0.00311   2.09751
    A5        2.09440  -0.00012   0.00000  -0.00014  -0.00014   2.09426
    A6        2.09440  -0.00097   0.00000  -0.00297  -0.00297   2.09142
    A7        2.09440  -0.00043   0.00000  -0.00051  -0.00051   2.09388
    A8        2.09440   0.00057   0.00000   0.00108   0.00108   2.09548
    A9        2.09440  -0.00013   0.00000  -0.00057  -0.00057   2.09383
   A10        2.09440  -0.00095   0.00000  -0.00207  -0.00207   2.09233
   A11        2.09440  -0.00028   0.00000  -0.00150  -0.00150   2.09290
   A12        2.09440   0.00123   0.00000   0.00356   0.00356   2.09796
   A13        2.09440  -0.00043   0.00000  -0.00117  -0.00117   2.09323
   A14        2.09440   0.00028   0.00000   0.00078   0.00078   2.09518
   A15        2.09440   0.00016   0.00000   0.00039   0.00039   2.09478
   A16        2.09440   0.00284   0.00000   0.00642   0.00642   2.10081
   A17        2.09440  -0.00129   0.00000  -0.00290  -0.00290   2.09149
   A18        2.09440  -0.00155   0.00000  -0.00352  -0.00352   2.09088
   A19        2.09990  -0.00347   0.00000  -0.00675  -0.00701   2.09290
   A20        2.09990  -0.00353   0.00000  -0.00689  -0.00714   2.09276
   A21        2.07249   0.00747   0.00000   0.01935   0.01912   2.09161
   A22        1.91063   0.00534   0.00000   0.01789   0.01789   1.92852
   A23        1.91063   0.00542   0.00000   0.01815   0.01815   1.92878
   A24        2.09440  -0.01115   0.00000  -0.03252  -0.03252   2.06188
   A25        2.09440   0.01338   0.00000   0.03517   0.03517   2.12956
   A26        2.09440  -0.00223   0.00000  -0.00265  -0.00265   2.09174
    D1        0.00000   0.00004   0.00000   0.00045   0.00045   0.00045
    D2        3.14159   0.00002   0.00000   0.00019   0.00019  -3.14140
    D3        3.14159   0.00004   0.00000   0.00041   0.00041  -3.14119
    D4        0.00000   0.00001   0.00000   0.00015   0.00015   0.00015
    D5        0.00000  -0.00002   0.00000  -0.00014  -0.00014  -0.00015
    D6        3.14159   0.00001   0.00000   0.00007   0.00007  -3.14153
    D7        3.14159  -0.00001   0.00000  -0.00010  -0.00010   3.14149
    D8        0.00000   0.00001   0.00000   0.00011   0.00011   0.00011
    D9        0.00000  -0.00009   0.00000  -0.00086  -0.00086  -0.00086
   D10       -3.14159   0.00015   0.00000   0.00151   0.00151  -3.14009
   D11       -3.14159  -0.00006   0.00000  -0.00061  -0.00061   3.14099
   D12        0.00000   0.00018   0.00000   0.00176   0.00176   0.00176
   D13        0.00000   0.00010   0.00000   0.00098   0.00098   0.00098
   D14        3.14159   0.00006   0.00000   0.00059   0.00059  -3.14100
   D15        3.14159  -0.00014   0.00000  -0.00139  -0.00139   3.14020
   D16        0.00000  -0.00018   0.00000  -0.00178  -0.00178  -0.00178
   D17       -3.06157  -0.00220   0.00000  -0.02319  -0.02305  -3.08462
   D18       -0.08002   0.00191   0.00000   0.02027   0.02012  -0.05989
   D19        0.08002  -0.00196   0.00000  -0.02082  -0.02068   0.05934
   D20        3.06157   0.00215   0.00000   0.02264   0.02249   3.08407
   D21        0.00000  -0.00007   0.00000  -0.00068  -0.00068  -0.00068
   D22        3.14159  -0.00005   0.00000  -0.00051  -0.00051   3.14108
   D23        3.14159  -0.00003   0.00000  -0.00029  -0.00029   3.14130
   D24        0.00000  -0.00001   0.00000  -0.00013  -0.00012  -0.00013
   D25        0.00000   0.00003   0.00000   0.00026   0.00026   0.00026
   D26       -3.14159   0.00001   0.00000   0.00005   0.00005  -3.14154
   D27       -3.14159   0.00001   0.00000   0.00010   0.00010  -3.14149
   D28        0.00000  -0.00001   0.00000  -0.00012  -0.00012  -0.00011
   D29        3.14159  -0.00003   0.00000  -0.00036  -0.00036   3.14123
   D30        0.00000  -0.00004   0.00000  -0.00039  -0.00039  -0.00039
   D31        0.00000  -0.00001   0.00000  -0.00015  -0.00015  -0.00015
   D32        3.14159  -0.00001   0.00000  -0.00018  -0.00018   3.14141
   D33       -2.69677  -0.00305   0.00000  -0.03341  -0.03325  -2.73002
   D34        0.60238  -0.00612   0.00000  -0.07385  -0.07401   0.52836
   D35        2.69677   0.00303   0.00000   0.03314   0.03298   2.72975
   D36       -0.60238   0.00610   0.00000   0.07360   0.07375  -0.52862
         Item               Value     Threshold  Converged?
 Maximum Force            0.081401     0.000450     NO 
 RMS     Force            0.016256     0.000300     NO 
 Maximum Displacement     0.196692     0.001800     NO 
 RMS     Displacement     0.058018     0.001200     NO 
 Predicted change in Energy=-3.051511D-02
 GradGradGradGradGradGradGradGradGradGradGradGradGradGradGradGradGradGrad

                          Input orientation:                          
 ---------------------------------------------------------------------
 Center     Atomic      Atomic             Coordinates (Angstroms)
 Number     Number       Type             X           Y           Z
 ---------------------------------------------------------------------
      1          6           0       -1.047139   -1.234893    0.114997
      2          6           0        0.348817   -1.225343    0.084039
      3          6           0        1.046864   -0.005677    0.072552
      4          6           0        0.340380    1.206502    0.091170
      5          6           0       -1.056816    1.197688    0.122297
      6          6           0       -1.748839   -0.022049    0.134016
      7          1           0       -1.591360   -2.167944    0.124387
      8          1           0        0.895046   -2.157300    0.069091
      9          1           0        0.877950    2.143654    0.081766
     10          1           0       -1.604124    2.130649    0.137186
     11          5           0        2.628596    0.001937    0.035401
     12          8           0        3.346599    1.258715    0.095116
     13          1           0        4.226195    1.164834   -0.294527
     14          8           0        3.358126   -1.248005    0.088375
     15          1           0        4.236757   -1.144107   -0.300898
     16          6           0       -3.254594   -0.028009    0.167507
     17          1           0       -3.772389    0.931448    0.182067
     18          8           0       -3.904623   -1.077010    0.178617
 ---------------------------------------------------------------------
                    Distance matrix (angstroms):
                    1          2          3          4          5
     1  C    0.000000
     2  C    1.396332   0.000000
     3  C    2.428503   1.405343   0.000000
     4  C    2.808236   2.431870   1.403155   0.000000
     5  C    2.432612   2.801490   2.424053   1.397571   0.000000
     6  C    1.401334   2.418796   2.796426   2.424048   1.402423
     7  H    1.080207   2.157408   3.411497   3.888394   3.407817
     8  H    2.150587   1.080340   2.156976   3.409298   3.881823
     9  H    3.888657   3.410297   2.155978   1.080428   2.154023
    10  H    3.411393   3.883232   3.405261   2.153430   1.081751
    11  B    3.879062   2.589590   1.582187   2.586508   3.875518
    12  O    5.052070   3.893246   2.624495   3.006675   4.403922
    13  H    5.808136   4.570593   3.407783   3.905132   5.299531
    14  O    4.405365   3.009398   2.624035   3.889911   5.047205
    15  H    5.301016   3.907794   3.407478   4.567366   5.803879
    16  C    2.516384   3.798045   4.302564   3.801800   2.516864
    17  H    3.482028   4.652493   4.910743   4.122958   2.729247
    18  O    2.862550   4.257077   5.067172   4.821009   3.645192
                    6          7          8          9         10
     6  C    0.000000
     7  H    2.151687   0.000000
     8  H    3.399065   2.487044   0.000000
     9  H    3.404852   4.968821   4.301007   0.000000
    10  H    2.157559   4.298631   4.963567   2.482726   0.000000
    11  B    4.378612   4.745981   2.769231   2.766562   4.738955
    12  O    5.254079   6.010515   4.204753   2.622503   5.027096
    13  H    6.106829   6.717651   4.718617   3.508622   5.925520
    14  O    5.252251   5.034381   2.625634   4.201746   6.003466
    15  H    6.105368   5.932626   3.511479   4.715653   6.710576
    16  C    1.506140   2.710633   4.665092   4.669196   2.717495
    17  H    2.237458   3.790309   5.598043   4.806782   2.478199
    18  O    2.400487   2.558176   4.920961   5.766720   3.947543
                   11         12         13         14         15
    11  B    0.000000
    12  O    1.448649   0.000000
    13  H    2.003372   0.966605   0.000000
    14  O    1.448232   2.506756   2.592672   0.000000
    15  H    2.003171   2.592829   2.308974   0.966602   0.000000
    16  C    5.884750   6.725820   7.589371   6.724784   7.588506
    17  H    6.469785   7.127036   8.016168   7.456744   8.287798
    18  O    6.623262   7.618583   8.447481   7.265323   8.155765
                   16         17         18
    16  C    0.000000
    17  H    1.090358   0.000000
    18  O    1.234125   2.012809   0.000000
 Stoichiometry    C7H7BO3
 Framework group  C1[X(C7H7BO3)]
 Deg. of freedom    48
 Full point group                 C1      NOp   1
 Largest Abelian subgroup         C1      NOp   1
 Largest concise Abelian subgroup C1      NOp   1
                         Standard orientation:                         
 ---------------------------------------------------------------------
 Center     Atomic      Atomic             Coordinates (Angstroms)
 Number     Number       Type             X           Y           Z
 ---------------------------------------------------------------------
      1          6           0        1.216276   -1.036843    0.004328
      2          6           0       -0.176503   -1.136329    0.007747
      3          6           0       -0.967721    0.025119    0.008606
      4          6           0       -0.357790    1.288775    0.007073
      5          6           0        1.036171    1.389092    0.003511
      6          6           0        1.821393    0.227106    0.002301
      7          1           0        1.831751   -1.924557    0.003269
      8          1           0       -0.648502   -2.108105    0.009500
      9          1           0       -0.966957    2.181097    0.008287
     10          1           0        1.509165    2.361953    0.001841
     11          5           0       -2.545644   -0.090813    0.014545
     12          8           0       -3.358263    1.106370   -0.056082
     13          1           0       -4.235268    0.942565    0.315878
     14          8           0       -3.174203   -1.393619   -0.056052
     15          1           0       -4.065679   -1.360172    0.316068
     16          6           0        3.323385    0.338745   -0.001475
     17          1           0        3.764887    1.335717   -0.003330
     18          8           0        4.053411   -0.656305   -0.002463
 ---------------------------------------------------------------------
 Rotational constants (GHZ):      3.2702369      0.5329709      0.4585290
 Standard basis: 6-31+G(d) (6D, 7F)
 There are   223 symmetry adapted cartesian basis functions of A   symmetry.
 There are   223 symmetry adapted basis functions of A   symmetry.
   223 basis functions,   380 primitive gaussians,   223 cartesian basis functions
    39 alpha electrons       39 beta electrons
       nuclear repulsion energy       527.7775352234 Hartrees.
 NAtoms=   18 NActive=   18 NUniq=   18 SFac= 1.00D+00 NAtFMM=   60 NAOKFM=F Big=F
 Integral buffers will be    131072 words long.
 Raffenetti 2 integral format.
 Two-electron integral symmetry is turned on.
 Nuclear repulsion after empirical dispersion term =      527.7641927088 Hartrees.
 One-electron integrals computed using PRISM.
 NBasis=   223 RedAO= T EigKep=  2.65D-06  NBF=   223
 NBsUse=   223 1.00D-06 EigRej= -1.00D+00 NBFU=   223
 Initial guess from the checkpoint file:  "C:\Users\123\Desktop\ML project\MOLECULE_11.chk"
 B after Tr=     0.000000    0.000000    0.000000
         Rot=    1.000000   -0.000067    0.000097   -0.000533 Ang=  -0.06 deg.
 ExpMin= 3.15D-02 ExpMax= 5.48D+03 ExpMxC= 8.25D+02 IAcc=3 IRadAn=         5 AccDes= 0.00D+00
 Harris functional with IExCor=  402 and IRadAn=       5 diagonalized for initial guess.
 HarFok:  IExCor=  402 AccDes= 0.00D+00 IRadAn=         5 IDoV= 1 UseB2=F ITyADJ=14
 ICtDFT=  3500011 ScaDFX=  1.000000  1.000000  1.000000  1.000000
 FoFCou: FMM=F IPFlag=           0 FMFlag=      100000 FMFlg1=           0
         NFxFlg=           0 DoJE=T BraDBF=F KetDBF=T FulRan=T
         wScrn=  0.000000 ICntrl=     500 IOpCl=  0 I1Cent=   200000004 NGrid=           0
         NMat0=    1 NMatS0=      1 NMatT0=    0 NMatD0=    1 NMtDS0=    0 NMtDT0=    0
 Petite list used in FoFCou.
 Keep R1 ints in memory in canonical form, NReq=317703117.
 Requested convergence on RMS density matrix=1.00D-08 within 128 cycles.
 Requested convergence on MAX density matrix=1.00D-06.
 Requested convergence on             energy=1.00D-06.
 No special actions if energy rises.
 SCF Done:  E(RB3LYP) =  -521.610948371     A.U. after   14 cycles
            NFock= 14  Conv=0.74D-08     -V/T= 2.0100
 Calling FoFJK, ICntrl=      2127 FMM=F ISym2X=0 I1Cent= 0 IOpClX= 0 NMat=1 NMatS=1 NMatT=0.
 ***** Axes restored to original set *****
 -------------------------------------------------------------------
 Center     Atomic                   Forces (Hartrees/Bohr)
 Number     Number              X              Y              Z
 -------------------------------------------------------------------
      1        6           0.008129067    0.000149691   -0.000233371
      2        6          -0.010034368    0.003751573    0.000011389
      3        6           0.023445768    0.000627967    0.002070529
      4        6          -0.008180046   -0.003283427   -0.000043878
      5        6           0.004949585   -0.002904919   -0.000193552
      6        6          -0.015060072    0.005438618    0.000264736
      7        1          -0.003535698   -0.002467423    0.000088981
      8        1           0.002643333   -0.003033052   -0.000015088
      9        1           0.002524789    0.003032718   -0.000005715
     10        1          -0.002870175    0.003692445    0.000090266
     11        5           0.030102870   -0.000050312    0.015918722
     12        8          -0.027838068   -0.038638069   -0.013829444
     13        1           0.005528219    0.003185161    0.004908373
     14        8          -0.028250090    0.038673556   -0.013627610
     15        1           0.005578355   -0.003213012    0.004883079
     16        6           0.007304158   -0.036509518   -0.000267212
     17        1          -0.002157912    0.011169998    0.000106432
     18        8           0.007720286    0.020378005   -0.000126636
 -------------------------------------------------------------------
 Cartesian Forces:  Max     0.038673556 RMS     0.013189196

 GradGradGradGradGradGradGradGradGradGradGradGradGradGradGradGradGradGrad
 Berny optimization.
 Using GEDIIS/GDIIS optimizer.
 FormGI is forming the generalized inverse of G from B-inverse, IUseBI=4.
 Internal  Forces:  Max     0.042345269 RMS     0.008069125
 Search for a local minimum.
 Step number   2 out of a maximum of   90
 All quantities printed in internal units (Hartrees-Bohrs-Radians)
 Mixed Optimization -- RFO/linear search
 Update second derivatives using D2CorX and points    1    2
 DE= -3.33D-02 DEPred=-3.05D-02 R= 1.09D+00
 TightC=F SS=  1.41D+00  RLast= 3.24D-01 DXNew= 5.0454D-01 9.7139D-01
 Trust test= 1.09D+00 RLast= 3.24D-01 DXMaxT set to 5.05D-01
 ITU=  1  0
 Use linear search instead of GDIIS.
     Eigenvalues ---    0.00230   0.00237   0.00237   0.00344   0.00366
     Eigenvalues ---    0.00369   0.01460   0.01557   0.02070   0.02070
     Eigenvalues ---    0.02070   0.02070   0.02070   0.02070   0.02070
     Eigenvalues ---    0.14749   0.16000   0.16000   0.16000   0.16000
     Eigenvalues ---    0.16000   0.16015   0.20982   0.21940   0.22066
     Eigenvalues ---    0.22709   0.23194   0.24441   0.24944   0.24996
     Eigenvalues ---    0.25000   0.27092   0.28519   0.28834   0.37141
     Eigenvalues ---    0.37230   0.37230   0.37230   0.37556   0.41289
     Eigenvalues ---    0.41613   0.45347   0.45389   0.45389   0.45459
     Eigenvalues ---    0.55473   0.55671   0.79926
 RFO step:  Lambda=-5.01402913D-03 EMin= 2.30000291D-03
 Quartic linear search produced a step of  0.69922.
 Iteration  1 RMS(Cart)=  0.05073005 RMS(Int)=  0.00843121
 Iteration  2 RMS(Cart)=  0.00889439 RMS(Int)=  0.00018524
 Iteration  3 RMS(Cart)=  0.00017542 RMS(Int)=  0.00003976
 Iteration  4 RMS(Cart)=  0.00000005 RMS(Int)=  0.00003976
 Variable       Old X    -DE/DX   Delta X   Delta X   Delta X     New X
                                 (Linear)    (Quad)   (Total)
    R1        2.63868  -0.00272  -0.00670   0.00032  -0.00638   2.63231
    R2        2.64814   0.00143  -0.00009   0.00527   0.00516   2.65330
    R3        2.04130   0.00391   0.01349  -0.00431   0.00918   2.05047
    R4        2.65571   0.00320   0.00521   0.00389   0.00912   2.66483
    R5        2.04155   0.00395   0.01366  -0.00442   0.00925   2.05079
    R6        2.65158   0.00235   0.00232   0.00519   0.00753   2.65910
    R7        2.98990  -0.01483  -0.08960   0.05670  -0.03290   2.95700
    R8        2.64103  -0.00175  -0.00506   0.00133  -0.00373   2.63730
    R9        2.04171   0.00389   0.01378  -0.00490   0.00888   2.05059
   R10        2.65019   0.00025   0.00135  -0.00131   0.00002   2.65021
   R11        2.04421   0.00464   0.01553  -0.00437   0.01116   2.05537
   R12        2.84619  -0.01285  -0.04474   0.00339  -0.04135   2.80484
   R13        2.73755  -0.04218  -0.12071  -0.03457  -0.15528   2.58227
   R14        2.73676  -0.04235  -0.12126  -0.03455  -0.15581   2.58096
   R15        1.82662   0.00274   0.00873  -0.00462   0.00410   1.83072
   R16        1.82661   0.00276   0.00872  -0.00457   0.00415   1.83077
   R17        2.06048   0.01086   0.02690   0.00506   0.03196   2.09243
   R18        2.33216  -0.02139  -0.03208  -0.00019  -0.03226   2.29989
    A1        2.08861  -0.00019  -0.00404   0.00536   0.00129   2.08991
    A2        2.10572   0.00195   0.00792   0.00344   0.01137   2.11710
    A3        2.08885  -0.00175  -0.00388  -0.00880  -0.01267   2.07618
    A4        2.09751   0.00218   0.00218   0.01185   0.01404   2.11155
    A5        2.09426  -0.00033  -0.00010  -0.00029  -0.00039   2.09386
    A6        2.09142  -0.00185  -0.00208  -0.01156  -0.01365   2.07777
    A7        2.09388  -0.00352  -0.00036  -0.02276  -0.02309   2.07079
    A8        2.09548   0.00183   0.00076   0.01075   0.01148   2.10696
    A9        2.09383   0.00170  -0.00040   0.01200   0.01157   2.10540
   A10        2.09233   0.00162  -0.00145   0.01452   0.01310   2.10543
   A11        2.09290  -0.00151  -0.00105  -0.01053  -0.01159   2.08131
   A12        2.09796  -0.00012   0.00249  -0.00399  -0.00151   2.09645
   A13        2.09323   0.00038  -0.00082   0.00339   0.00256   2.09579
   A14        2.09518   0.00043   0.00055   0.00435   0.00491   2.10009
   A15        2.09478  -0.00081   0.00027  -0.00775  -0.00747   2.08731
   A16        2.10081  -0.00046   0.00449  -0.01235  -0.00791   2.09291
   A17        2.09149   0.00148  -0.00203   0.01402   0.01201   2.10351
   A18        2.09088  -0.00101  -0.00246  -0.00167  -0.00411   2.08677
   A19        2.09290  -0.00399  -0.00490  -0.01736  -0.02245   2.07045
   A20        2.09276  -0.00392  -0.00499  -0.01674  -0.02192   2.07084
   A21        2.09161   0.00819   0.01337   0.03025   0.04343   2.13505
   A22        1.92852   0.00925   0.01251   0.06753   0.08003   2.00855
   A23        1.92878   0.00935   0.01269   0.06814   0.08083   2.00961
   A24        2.06188  -0.00792  -0.02274  -0.02289  -0.04563   2.01625
   A25        2.12956   0.00883   0.02459   0.01929   0.04389   2.17345
   A26        2.09174  -0.00090  -0.00185   0.00360   0.00174   2.09349
    D1        0.00045   0.00002   0.00031  -0.00108  -0.00079  -0.00034
    D2       -3.14140   0.00003   0.00013   0.00122   0.00135  -3.14006
    D3       -3.14119   0.00001   0.00028  -0.00117  -0.00090   3.14110
    D4        0.00015   0.00003   0.00010   0.00113   0.00123   0.00138
    D5       -0.00015   0.00000  -0.00010   0.00077   0.00066   0.00051
    D6       -3.14153   0.00001   0.00005   0.00001   0.00005  -3.14147
    D7        3.14149   0.00000  -0.00007   0.00085   0.00077  -3.14093
    D8        0.00011   0.00001   0.00008   0.00009   0.00016   0.00027
    D9       -0.00086  -0.00003  -0.00060   0.00176   0.00117   0.00030
   D10       -3.14009   0.00021   0.00105   0.00687   0.00790  -3.13219
   D11        3.14099  -0.00005  -0.00043  -0.00054  -0.00095   3.14003
   D12        0.00176   0.00019   0.00123   0.00457   0.00578   0.00754
   D13        0.00098   0.00003   0.00068  -0.00209  -0.00142  -0.00044
   D14       -3.14100   0.00005   0.00041   0.00080   0.00120  -3.13980
   D15        3.14020  -0.00021  -0.00097  -0.00720  -0.00814   3.13206
   D16       -0.00178  -0.00019  -0.00124  -0.00431  -0.00552  -0.00730
   D17       -3.08462  -0.00174  -0.01611   0.01810   0.00193  -3.08269
   D18       -0.05989   0.00148   0.01407  -0.01775  -0.00372  -0.06361
   D19        0.05934  -0.00149  -0.01446   0.02326   0.00884   0.06819
   D20        3.08407   0.00173   0.01573  -0.01259   0.00319   3.08726
   D21       -0.00068  -0.00002  -0.00047   0.00175   0.00130   0.00062
   D22        3.14108  -0.00001  -0.00036   0.00154   0.00120  -3.14091
   D23        3.14130  -0.00004  -0.00020  -0.00114  -0.00134   3.13997
   D24       -0.00013  -0.00003  -0.00009  -0.00136  -0.00144  -0.00157
   D25        0.00026   0.00001   0.00018  -0.00111  -0.00092  -0.00066
   D26       -3.14154   0.00000   0.00003  -0.00034  -0.00032   3.14133
   D27       -3.14149   0.00000   0.00007  -0.00089  -0.00081   3.14088
   D28       -0.00011  -0.00001  -0.00008  -0.00013  -0.00021  -0.00032
   D29        3.14123  -0.00003  -0.00025  -0.00060  -0.00085   3.14038
   D30       -0.00039  -0.00002  -0.00027   0.00044   0.00017  -0.00023
   D31       -0.00015  -0.00002  -0.00010  -0.00136  -0.00146  -0.00160
   D32        3.14141  -0.00002  -0.00013  -0.00031  -0.00044   3.14097
   D33       -2.73002  -0.00361  -0.02325  -0.20959  -0.23284  -2.96286
   D34        0.52836  -0.00601  -0.05175  -0.17061  -0.22236   0.30600
   D35        2.72975   0.00360   0.02306   0.21069   0.23375   2.96350
   D36       -0.52862   0.00600   0.05157   0.17167   0.22324  -0.30538
         Item               Value     Threshold  Converged?
 Maximum Force            0.042345     0.000450     NO 
 RMS     Force            0.008069     0.000300     NO 
 Maximum Displacement     0.233266     0.001800     NO 
 RMS     Displacement     0.057171     0.001200     NO 
 Predicted change in Energy=-1.566513D-02
 GradGradGradGradGradGradGradGradGradGradGradGradGradGradGradGradGradGrad

                          Input orientation:                          
 ---------------------------------------------------------------------
 Center     Atomic      Atomic             Coordinates (Angstroms)
 Number     Number       Type             X           Y           Z
 ---------------------------------------------------------------------
      1          6           0       -1.035065   -1.246341    0.111505
      2          6           0        0.356957   -1.227700    0.064029
      3          6           0        1.066323   -0.009130    0.042507
      4          6           0        0.339260    1.195294    0.070362
      5          6           0       -1.055480    1.183018    0.117777
      6          6           0       -1.747362   -0.036682    0.138910
      7          1           0       -1.586094   -2.180935    0.127788
      8          1           0        0.911152   -2.160482    0.041282
      9          1           0        0.875175    2.138679    0.052462
     10          1           0       -1.612515    2.116977    0.138505
     11          5           0        2.629645    0.004680   -0.023483
     12          8           0        3.276522    1.207239    0.028202
     13          1           0        4.223953    1.172818   -0.171088
     14          8           0        3.297295   -1.186128    0.016283
     15          1           0        4.244167   -1.133961   -0.181921
     16          6           0       -3.230753   -0.036358    0.189708
     17          1           0       -3.707213    0.962956    0.209727
     18          8           0       -3.920522   -1.038853    0.210603
 ---------------------------------------------------------------------
                    Distance matrix (angstroms):
                    1          2          3          4          5
     1  C    0.000000
     2  C    1.392957   0.000000
     3  C    2.439526   1.410169   0.000000
     4  C    2.802150   2.423067   1.407137   0.000000
     5  C    2.429453   2.794535   2.434939   1.395599   0.000000
     6  C    1.404063   2.419151   2.815471   2.424140   1.402432
     7  H    1.085064   2.165219   3.429188   3.887057   3.405559
     8  H    2.151359   1.085234   2.156941   3.404283   3.879753
     9  H    3.887269   3.406051   2.156320   1.085126   2.155222
    10  H    3.412636   3.882168   3.421362   2.159529   1.087657
    11  B    3.874710   2.586799   1.564775   2.583067   3.871509
    12  O    4.961530   3.801851   2.522843   2.937590   4.332996
    13  H    5.795642   4.557568   3.378350   3.892255   5.287340
    14  O    4.333825   2.941019   2.522548   3.797904   4.956794
    15  H    5.288575   3.896111   3.378507   4.553832   5.791759
    16  C    2.508230   3.782427   4.299683   3.778386   2.494767
    17  H    3.468575   4.619272   4.874378   4.055532   2.662437
    18  O    2.894604   4.284154   5.094822   4.812154   3.626816
                    6          7          8          9         10
     6  C    0.000000
     7  H    2.150338   0.000000
     8  H    3.404079   2.498828   0.000000
     9  H    3.408426   4.972181   4.299326   0.000000
    10  H    2.157876   4.298006   4.967394   2.489272   0.000000
    11  B    4.380214   4.751026   2.765021   2.763672   4.741725
    12  O    5.176776   5.927451   4.115421   2.575779   4.974181
    13  H    6.100459   6.715180   4.704322   3.492446   5.920443
    14  O    5.175406   4.984934   2.577532   4.113674   5.918756
    15  H    6.099622   5.931613   3.494647   4.702681   6.706116
    16  C    1.484260   2.703321   4.657178   4.648469   2.694099
    17  H    2.201205   3.793403   5.577950   4.733427   2.392613
    18  O    2.394183   2.600147   4.963043   5.755035   3.910417
                   11         12         13         14         15
    11  B    0.000000
    12  O    1.366481   0.000000
    13  H    1.981957   0.968776   0.000000
    14  O    1.365783   2.393487   2.541344   0.000000
    15  H    1.981991   2.541988   2.306892   0.968800   0.000000
    16  C    5.864418   6.627009   7.560749   6.630796   7.564210
    17  H    6.413146   6.990363   7.943076   7.329332   8.232551
    18  O    6.636900   7.541595   8.448056   7.221934   8.174673
                   16         17         18
    16  C    0.000000
    17  H    1.107268   0.000000
    18  O    1.217051   2.013142   0.000000
 Stoichiometry    C7H7BO3
 Framework group  C1[X(C7H7BO3)]
 Deg. of freedom    48
 Full point group                 C1      NOp   1
 Largest Abelian subgroup         C1      NOp   1
 Largest concise Abelian subgroup C1      NOp   1
                         Standard orientation:                         
 ---------------------------------------------------------------------
 Center     Atomic      Atomic             Coordinates (Angstroms)
 Number     Number       Type             X           Y           Z
 ---------------------------------------------------------------------
      1          6           0        1.195577   -1.051165    0.003554
      2          6           0       -0.194528   -1.140121    0.008467
      3          6           0       -0.996178    0.020018    0.011364
      4          6           0       -0.363760    1.277029    0.008818
      5          6           0        1.028559    1.372540    0.004065
      6          6           0        1.812862    0.209924    0.001018
      7          1           0        1.817354   -1.940409    0.001768
      8          1           0       -0.675489   -2.112950    0.011885
      9          1           0       -0.971203    2.176193    0.012704
     10          1           0        1.512199    2.346751    0.002755
     11          5           0       -2.557180   -0.087051    0.029530
     12          8           0       -3.293103    1.062300   -0.038874
     13          1           0       -4.240652    0.953971    0.131249
     14          8           0       -3.129391   -1.325576   -0.033660
     15          1           0       -4.083036   -1.347526    0.135614
     16          6           0        3.292656    0.324848   -0.004372
     17          1           0        3.690932    1.358004   -0.007272
     18          8           0        4.058078   -0.621375   -0.006695
 ---------------------------------------------------------------------
 Rotational constants (GHZ):      3.4030212      0.5407107      0.4666543
 Standard basis: 6-31+G(d) (6D, 7F)
 There are   223 symmetry adapted cartesian basis functions of A   symmetry.
 There are   223 symmetry adapted basis functions of A   symmetry.
   223 basis functions,   380 primitive gaussians,   223 cartesian basis functions
    39 alpha electrons       39 beta electrons
       nuclear repulsion energy       533.1702962640 Hartrees.
 NAtoms=   18 NActive=   18 NUniq=   18 SFac= 1.00D+00 NAtFMM=   60 NAOKFM=F Big=F
 Integral buffers will be    131072 words long.
 Raffenetti 2 integral format.
 Two-electron integral symmetry is turned on.
 Nuclear repulsion after empirical dispersion term =      533.1569966748 Hartrees.
 One-electron integrals computed using PRISM.
 NBasis=   223 RedAO= T EigKep=  2.74D-06  NBF=   223
 NBsUse=   223 1.00D-06 EigRej= -1.00D+00 NBFU=   223
 Initial guess from the checkpoint file:  "C:\Users\123\Desktop\ML project\MOLECULE_11.chk"
 B after Tr=     0.000000    0.000000    0.000000
         Rot=    1.000000   -0.000059    0.000102    0.000220 Ang=  -0.03 deg.
 ExpMin= 3.15D-02 ExpMax= 5.48D+03 ExpMxC= 8.25D+02 IAcc=3 IRadAn=         5 AccDes= 0.00D+00
 Harris functional with IExCor=  402 and IRadAn=       5 diagonalized for initial guess.
 HarFok:  IExCor=  402 AccDes= 0.00D+00 IRadAn=         5 IDoV= 1 UseB2=F ITyADJ=14
 ICtDFT=  3500011 ScaDFX=  1.000000  1.000000  1.000000  1.000000
 FoFCou: FMM=F IPFlag=           0 FMFlag=      100000 FMFlg1=           0
         NFxFlg=           0 DoJE=T BraDBF=F KetDBF=T FulRan=T
         wScrn=  0.000000 ICntrl=     500 IOpCl=  0 I1Cent=   200000004 NGrid=           0
         NMat0=    1 NMatS0=      1 NMatT0=    0 NMatD0=    1 NMtDS0=    0 NMtDT0=    0
 Petite list used in FoFCou.
 Keep R1 ints in memory in canonical form, NReq=317703117.
 Requested convergence on RMS density matrix=1.00D-08 within 128 cycles.
 Requested convergence on MAX density matrix=1.00D-06.
 Requested convergence on             energy=1.00D-06.
 No special actions if energy rises.
 SCF Done:  E(RB3LYP) =  -521.623449408     A.U. after   14 cycles
            NFock= 14  Conv=0.30D-08     -V/T= 2.0093
 Calling FoFJK, ICntrl=      2127 FMM=F ISym2X=0 I1Cent= 0 IOpClX= 0 NMat=1 NMatS=1 NMatT=0.
 ***** Axes restored to original set *****
 -------------------------------------------------------------------
 Center     Atomic                   Forces (Hartrees/Bohr)
 Number     Number              X              Y              Z
 -------------------------------------------------------------------
      1        6           0.002563898   -0.000076092    0.000074499
      2        6          -0.002136063    0.001340057   -0.000191968
      3        6          -0.000097919    0.000420528   -0.000783757
      4        6          -0.001405054   -0.001477521   -0.000247422
      5        6           0.001399685   -0.000259541    0.000137419
      6        6          -0.001973737    0.000738367   -0.000042482
      7        1          -0.000681893   -0.000527873    0.000038919
      8        1           0.000319485   -0.000819579    0.000038507
      9        1           0.000307039    0.000842876    0.000048182
     10        1          -0.000210335    0.000683554    0.000029585
     11        5          -0.005400443    0.000031626    0.013301052
     12        8           0.003056949    0.009105886   -0.009932829
     13        1          -0.000183716    0.001921827    0.003794215
     14        8           0.003358489   -0.009082231   -0.010018932
     15        1          -0.000196202   -0.001958218    0.003783214
     16        6           0.003693603   -0.001276944   -0.000042790
     17        1          -0.000222517    0.003023511   -0.000016356
     18        8          -0.002191267   -0.002630233    0.000030944
 -------------------------------------------------------------------
 Cartesian Forces:  Max     0.013301052 RMS     0.003577129

 GradGradGradGradGradGradGradGradGradGradGradGradGradGradGradGradGradGrad
 Berny optimization.
 Using GEDIIS/GDIIS optimizer.
 FormGI is forming the generalized inverse of G from B-inverse, IUseBI=4.
 GSVD:  received Info=                   1 from GESDD.
 Internal  Forces:  Max     0.010994458 RMS     0.002387440
 Search for a local minimum.
 Step number   3 out of a maximum of   90
 All quantities printed in internal units (Hartrees-Bohrs-Radians)
 Mixed Optimization -- RFO/linear search
 Update second derivatives using D2CorX and points    2    3
 DE= -1.25D-02 DEPred=-1.57D-02 R= 7.98D-01
 TightC=F SS=  1.41D+00  RLast= 5.33D-01 DXNew= 8.4853D-01 1.5994D+00
 Trust test= 7.98D-01 RLast= 5.33D-01 DXMaxT set to 8.49D-01
 ITU=  1  1  0
 Use linear search instead of GDIIS.
     Eigenvalues ---    0.00230   0.00237   0.00237   0.00348   0.00369
     Eigenvalues ---    0.00420   0.01449   0.01550   0.02070   0.02070
     Eigenvalues ---    0.02070   0.02070   0.02070   0.02070   0.02071
     Eigenvalues ---    0.14026   0.16000   0.16000   0.16000   0.16000
     Eigenvalues ---    0.16008   0.16012   0.21332   0.21953   0.22069
     Eigenvalues ---    0.22848   0.23321   0.24369   0.24940   0.24999
     Eigenvalues ---    0.25015   0.28519   0.28702   0.36794   0.37087
     Eigenvalues ---    0.37230   0.37230   0.37234   0.38739   0.41243
     Eigenvalues ---    0.41673   0.45317   0.45389   0.45394   0.45459
     Eigenvalues ---    0.55473   0.55829   0.80419
 RFO step:  Lambda=-7.21858334D-03 EMin= 2.30001816D-03
 Quartic linear search produced a step of  0.01734.
 Iteration  1 RMS(Cart)=  0.03748330 RMS(Int)=  0.03488278
 Iteration  2 RMS(Cart)=  0.01802291 RMS(Int)=  0.00439760
 Iteration  3 RMS(Cart)=  0.00196541 RMS(Int)=  0.00424095
 Iteration  4 RMS(Cart)=  0.00000606 RMS(Int)=  0.00424094
 Iteration  5 RMS(Cart)=  0.00000001 RMS(Int)=  0.00424094
 Variable       Old X    -DE/DX   Delta X   Delta X   Delta X     New X
                                 (Linear)    (Quad)   (Total)
    R1        2.63231  -0.00136  -0.00011  -0.00308  -0.00319   2.62912
    R2        2.65330   0.00038   0.00009   0.00070   0.00079   2.65409
    R3        2.05047   0.00080   0.00016   0.00271   0.00287   2.05334
    R4        2.66483   0.00017   0.00016   0.00043   0.00059   2.66542
    R5        2.05079   0.00087   0.00016   0.00288   0.00304   2.05384
    R6        2.65910  -0.00037   0.00013  -0.00084  -0.00071   2.65839
    R7        2.95700   0.00060  -0.00057  -0.00394  -0.00451   2.95248
    R8        2.63730  -0.00101  -0.00006  -0.00230  -0.00237   2.63493
    R9        2.05059   0.00088   0.00015   0.00294   0.00310   2.05369
   R10        2.65021   0.00033   0.00000   0.00082   0.00082   2.65103
   R11        2.05537   0.00070   0.00019   0.00254   0.00273   2.05811
   R12        2.80484  -0.00128  -0.00072  -0.00646  -0.00718   2.79766
   R13        2.58227   0.01083  -0.00269   0.02980   0.02710   2.60938
   R14        2.58096   0.01099  -0.00270   0.03030   0.02760   2.60856
   R15        1.83072  -0.00103   0.00007  -0.00127  -0.00120   1.82952
   R16        1.83077  -0.00107   0.00007  -0.00134  -0.00127   1.82949
   R17        2.09243   0.00283   0.00055   0.00814   0.00869   2.10112
   R18        2.29989   0.00341  -0.00056   0.00280   0.00225   2.30214
    A1        2.08991  -0.00008   0.00002  -0.00064  -0.00062   2.08929
    A2        2.11710   0.00037   0.00020   0.00242   0.00262   2.11971
    A3        2.07618  -0.00029  -0.00022  -0.00178  -0.00200   2.07418
    A4        2.11155   0.00044   0.00024   0.00148   0.00172   2.11327
    A5        2.09386  -0.00037  -0.00001  -0.00167  -0.00167   2.09219
    A6        2.07777  -0.00007  -0.00024   0.00019  -0.00005   2.07772
    A7        2.07079  -0.00039  -0.00040  -0.00114  -0.00154   2.06926
    A8        2.10696   0.00022   0.00020   0.00071   0.00090   2.10786
    A9        2.10540   0.00017   0.00020   0.00044   0.00064   2.10604
   A10        2.10543   0.00030   0.00023   0.00066   0.00089   2.10631
   A11        2.08131   0.00000  -0.00020   0.00050   0.00030   2.08161
   A12        2.09645  -0.00030  -0.00003  -0.00116  -0.00119   2.09526
   A13        2.09579   0.00004   0.00004   0.00010   0.00014   2.09592
   A14        2.10009  -0.00020   0.00009  -0.00118  -0.00110   2.09899
   A15        2.08731   0.00016  -0.00013   0.00109   0.00096   2.08827
   A16        2.09291  -0.00031  -0.00014  -0.00046  -0.00060   2.09231
   A17        2.10351   0.00045   0.00021   0.00112   0.00133   2.10484
   A18        2.08677  -0.00014  -0.00007  -0.00067  -0.00074   2.08603
   A19        2.07045  -0.00346  -0.00039   0.00076  -0.02067   2.04978
   A20        2.07084  -0.00342  -0.00038   0.00086  -0.02056   2.05028
   A21        2.13505   0.00732   0.00075   0.04048   0.01894   2.15398
   A22        2.00855   0.00441   0.00139   0.02406   0.02545   2.03400
   A23        2.00961   0.00441   0.00140   0.02406   0.02546   2.03507
   A24        2.01625  -0.00178  -0.00079  -0.00995  -0.01074   2.00550
   A25        2.17345   0.00125   0.00076   0.00613   0.00688   2.18033
   A26        2.09349   0.00053   0.00003   0.00383   0.00385   2.09734
    D1       -0.00034   0.00005  -0.00001   0.00168   0.00166   0.00132
    D2       -3.14006  -0.00005   0.00002  -0.00156  -0.00154  -3.14159
    D3        3.14110   0.00005  -0.00002   0.00165   0.00163  -3.14046
    D4        0.00138  -0.00005   0.00002  -0.00159  -0.00157  -0.00019
    D5        0.00051  -0.00003   0.00001  -0.00104  -0.00102  -0.00051
    D6       -3.14147  -0.00001   0.00000  -0.00016  -0.00016   3.14156
    D7       -3.14093  -0.00003   0.00001  -0.00101  -0.00099   3.14127
    D8        0.00027  -0.00001   0.00000  -0.00013  -0.00013   0.00014
    D9        0.00030  -0.00007   0.00002  -0.00254  -0.00252  -0.00222
   D10       -3.13219  -0.00011   0.00014  -0.00374  -0.00361  -3.13579
   D11        3.14003   0.00002  -0.00002   0.00066   0.00065   3.14068
   D12        0.00754  -0.00002   0.00010  -0.00053  -0.00043   0.00711
   D13       -0.00044   0.00008  -0.00002   0.00281   0.00279   0.00235
   D14       -3.13980  -0.00002   0.00002  -0.00081  -0.00080  -3.14060
   D15        3.13206   0.00012  -0.00014   0.00401   0.00387   3.13593
   D16       -0.00730   0.00001  -0.00010   0.00038   0.00028  -0.00702
   D17       -3.08269  -0.00223   0.00003  -0.18936  -0.18572   3.01478
   D18       -0.06361   0.00225  -0.00006   0.18846   0.18478   0.12117
   D19        0.06819  -0.00226   0.00015  -0.19057  -0.18681  -0.11863
   D20        3.08726   0.00221   0.00006   0.18724   0.18369  -3.01223
   D21        0.00062  -0.00006   0.00002  -0.00223  -0.00221  -0.00159
   D22       -3.14091  -0.00005   0.00002  -0.00194  -0.00192   3.14035
   D23        3.13997   0.00004  -0.00002   0.00143   0.00140   3.14137
   D24       -0.00157   0.00005  -0.00003   0.00172   0.00169   0.00012
   D25       -0.00066   0.00003  -0.00002   0.00132   0.00130   0.00064
   D26        3.14133   0.00002  -0.00001   0.00045   0.00044  -3.14142
   D27        3.14088   0.00003  -0.00001   0.00103   0.00101  -3.14130
   D28       -0.00032   0.00001   0.00000   0.00016   0.00016  -0.00017
   D29        3.14038   0.00002  -0.00001   0.00271   0.00270  -3.14011
   D30       -0.00023  -0.00004   0.00000  -0.00393  -0.00393  -0.00416
   D31       -0.00160   0.00004  -0.00003   0.00358   0.00356   0.00195
   D32        3.14097  -0.00003  -0.00001  -0.00306  -0.00307   3.13790
   D33       -2.96286  -0.00087  -0.00404  -0.06018  -0.06322  -3.02608
   D34        0.30600  -0.00469  -0.00386  -0.44958  -0.45443  -0.14844
   D35        2.96350   0.00087   0.00405   0.05986   0.06291   3.02641
   D36       -0.30538   0.00469   0.00387   0.44934   0.45422   0.14883
         Item               Value     Threshold  Converged?
 Maximum Force            0.010994     0.000450     NO 
 RMS     Force            0.002387     0.000300     NO 
 Maximum Displacement     0.206800     0.001800     NO 
 RMS     Displacement     0.051972     0.001200     NO 
 Predicted change in Energy=-5.726770D-03
 GradGradGradGradGradGradGradGradGradGradGradGradGradGradGradGradGradGrad

                          Input orientation:                          
 ---------------------------------------------------------------------
 Center     Atomic      Atomic             Coordinates (Angstroms)
 Number     Number       Type             X           Y           Z
 ---------------------------------------------------------------------
      1          6           0       -1.030627   -1.248770    0.125536
      2          6           0        0.360382   -1.228205    0.108248
      3          6           0        1.070620   -0.009602    0.103847
      4          6           0        0.341840    1.193619    0.114607
      5          6           0       -1.052337    1.180897    0.132116
      6          6           0       -1.744514   -0.039308    0.137266
      7          1           0       -1.583790   -2.183998    0.130068
      8          1           0        0.915526   -2.162530    0.099140
[...]
 ,-0.0026268,0.0522534,0.0323758,-0.0016506,-0.0031815,-0.0089495,-0.12
 10529,0.0962847,-0.2081326,-0.009115,0.0700967,0.03445,-0.0023444,-0.0
 082468,0.0086145,-0.1207839,-0.9036979,-0.04683,0.0356482,0.1442778,-0
 .0168259,-0.0057999,0.0363021,0.0017597,0.0041631,0.0631449,-0.0560637
 ,0.0025771,-0.0345753,-0.0033117,0.0010015,0.0026501,0.0018363,0.13223
 1,0.0532161,0.0626587,0.0029297,0.0652377,-0.0337715,-0.0029877,0.0029
 446,-0.0028926,0.1231827,0.0599537,-0.0594417,0.0024279,-0.0644348,-0.
 0400775,0.0020912,0.0024061,0.0019186,0.1256351,0.0098435,0.0965947,0.
 0052704,0.0731598,-0.0452021,-0.0033621,0.0052158,-0.0043031,0.1369117
 ,2.2498915,0.0221292,-0.0692718,0.0074375,1.5846717,0.0026189,-0.06941
 01,0.0020442,0.4912022,-0.9473976,-0.3885321,0.0154342,-0.5409041,-1.0
 565625,0.0198671,0.0151719,0.0139365,-0.5307023,0.1542807,0.0520422,0.
 0081282,0.1243902,0.3301067,-0.0049366,0.0082616,-0.0021246,0.3579338,
 -0.9652515,0.3792393,0.0182248,0.542275,-1.029834,-0.0226422,0.0188146
 ,-0.0162985,-0.5299306,0.1585795,-0.0550309,0.007663,-0.1283971,0.3258
 301,0.0049275,0.0074024,0.002078,0.3578115,1.9347018,0.2133966,-0.0686
 346,0.2624103,0.9417773,-0.0078467,-0.0685968,-0.0059521,0.1765163,-0.
 056591,0.0716112,0.0050616,0.1699969,-0.2301048,-0.0076282,0.0053188,-
 0.0037577,0.0659021,-1.1847819,-0.2715077,0.0322522,-0.628017,-0.75860
 92,0.0233776,0.0312219,0.0093648,-0.3445941|Polar=157.2362635,5.364856
 1,108.26307,-3.9397524,-0.0691739,56.8456191|PG=C01 [X(C7H7B1O3)]|NIma
 g=0||0.70395237,0.04315415,0.70799813,-0.02212761,-0.00017093,0.139604
 55,-0.34963943,-0.03457454,0.01112720,0.69446375,0.02927958,-0.1308428
 0,-0.00133079,-0.04563444,0.69839484,0.01130062,0.00118316,-0.06493396
 ,-0.02188874,0.00330333,0.14231574,-0.02543773,-0.02947095,0.00131954,
 -0.17064240,-0.10421259,0.00387252,0.61786426,-0.07000771,0.02911193,0
 .00280618,-0.05451115,-0.26154894,0.00161507,-0.00308273,0.64202961,0.
 00121187,0.00120957,0.01007714,0.00400450,0.00357131,-0.06523870,-0.01
 883929,0.00147084,0.13984945,-0.05007416,0.02786643,0.00181182,0.06465
 740,0.02035528,-0.00223604,-0.17563199,0.05966832,0.00450464,0.6862495
 5,0.02565152,-0.01451586,-0.00103208,-0.01815024,-0.05704485,0.0005429
 6,0.10940849,-0.26427612,-0.00483756,0.04329226,0.70647230,0.00180534,
 -0.00111956,-0.00602730,-0.00233982,-0.00097179,0.00654806,0.00463713,
 -0.00287814,-0.06540184,-0.02135251,-0.00020012,0.14142080,0.06052033,
 -0.01873108,-0.00216457,-0.05003343,-0.02683421,0.00164038,-0.02770747
 ,0.07049843,0.00170647,-0.33896714,-0.03633204,0.01066404,0.69189312,0
 .02020633,-0.05435828,-0.00095799,-0.02737645,-0.01550869,0.00105371,0
 .02762004,0.02978951,-0.00103559,0.02800521,-0.12879250,-0.00127076,-0
 .03258802,0.70611372,-0.00206111,0.00057346,0.00686789,0.00163979,0.00
 103197,-0.00656130,0.00159246,-0.00272275,0.01080213,0.01083918,0.0012
 5958,-0.06573346,-0.02191067,0.00279765,0.13817503,-0.16242637,0.10088
 999,0.00407874,-0.03160662,0.02636186,0.00163809,-0.00271082,0.0010120
 4,-0.00024242,-0.02833744,-0.02760738,0.00140452,-0.16492614,-0.104171
 97,0.00372018,0.62699170,0.05370132,-0.27218627,-0.00266865,0.06894516
 ,0.03161969,-0.00265269,0.00196366,-0.05684532,-0.00020513,-0.07021213
 ,0.02849673,0.00281190,-0.05417416,-0.28011208,0.00155624,0.00208887,0
 .70185190,0.00395160,-0.00452618,-0.06569480,0.00175540,-0.00097145,0.
 00814263,-0.00023923,-0.00017108,-0.00892178,0.00128716,0.00114010,0.0
 0918700,0.00385629,0.00352173,-0.06367846,-0.01919746,0.00144908,0.140
 01590,-0.13137311,-0.12310927,0.00329473,-0.00995997,-0.02781885,0.000
 49041,-0.00532720,0.00123617,0.00051235,-0.00060576,0.00083117,-0.0000
 0160,-0.00184983,0.00290942,0.00033037,0.01393870,0.01346817,-0.000372
 91,0.13486618,-0.12234459,-0.27084233,0.00419388,0.00245052,0.00548799
 ,-0.00009364,0.00084761,0.00131579,-0.00005029,0.00053178,0.00024826,-
 0.00001831,0.00418687,-0.00261532,-0.00018906,-0.01384873,-0.02044008,
 0.00048057,0.13191808,0.28659760,0.00329651,0.00422409,-0.03942806,0.0
 0057043,0.00109734,0.00438622,0.00051190,-0.00006483,0.00759546,-0.000
 00168,-0.00003040,-0.00070589,0.00033296,-0.00013939,0.00633359,-0.000
 44314,-0.00059371,0.00356533,-0.00390362,-0.00449412,0.02685587,-0.011
 83506,0.02839427,0.00071363,-0.13303512,0.12392876,0.00398836,0.012393
 56,-0.01414966,-0.00043966,-0.00142719,-0.00348942,0.00032183,-0.00060
 327,-0.00084204,-0.00000215,-0.00547953,-0.00157802,0.00052731,0.00073
 460,-0.00034083,-0.00020171,0.13999413,-0.00253549,0.00523682,0.000102
 07,0.12282838,-0.26759370,-0.00545283,0.01391722,-0.01963208,-0.000606
 80,-0.00402887,-0.00293102,0.00013162,-0.00075736,0.00016912,0.0000318
 6,-0.00075336,0.00144791,0.00001150,0.00035907,0.00077878,-0.00000008,
 -0.13117691,0.28392174,0.00062964,-0.00111474,0.00432031,0.00398614,-0
 .00549797,-0.04045018,-0.00036359,0.00049869,0.00221103,0.00031990,0.0
 0011053,0.00697327,-0.00000189,0.00003513,-0.00059962,0.00052970,0.000
 04485,0.00801162,-0.00019963,0.00002725,-0.00435807,-0.00479015,0.0058
 6077,0.02756905,-0.00055970,0.00078187,-0.00000249,-0.00159401,0.00347
 180,0.00035809,0.01269244,0.01468126,-0.00037442,-0.12794538,-0.121034
 56,0.00316040,-0.01115688,-0.02874880,0.00051229,-0.00543992,0.0018696
 7,0.00051490,0.00004548,-0.00009472,-0.00005063,0.00058770,0.00090054,
 -0.00000926,0.13411177,0.00073416,0.00012109,-0.00002677,0.00408639,-0
 .00273945,-0.00018745,-0.01349780,-0.01951597,0.00047371,-0.12000691,-
 0.27277833,0.00410559,0.00240687,0.00462394,-0.00009236,0.00057100,0.0
 0153059,-0.00003820,-0.00010729,0.00002247,0.00000754,-0.00088074,-0.0
 0101292,0.00003113,0.12812640,0.28936354,-0.00000321,-0.00002843,-0.00
 067621,0.00036022,-0.00016312,0.00725316,-0.00044947,-0.00063718,0.002
 20286,0.00316391,0.00414854,-0.03959252,0.00059440,0.00113271,0.003776
 17,0.00051082,-0.00008944,0.00749075,-0.00005067,0.00000711,-0.0012330
 5,-0.00001404,-0.00003891,0.00028906,-0.00387474,-0.00434815,0.0271691
 8,-0.00155145,-0.00283645,0.00030088,-0.00053897,-0.00074843,-0.000004
 78,-0.00574893,-0.00157435,0.00050508,-0.01096859,0.02934592,0.0006597
 5,-0.13076627,0.11814349,0.00401424,0.01268340,-0.01189136,-0.00042228
 ,0.00038575,-0.00084076,0.00000660,0.00003631,0.00011614,-0.00004894,0
 .00069932,-0.00040334,-0.00018838,0.13599660,-0.00430956,-0.00299065,0
 .00014487,-0.00075206,0.00015651,0.00003164,-0.00055121,0.00159598,0.0
 0000670,-0.00217665,0.00455486,0.00008798,0.11931877,-0.26322983,-0.00
 530033,0.01478480,-0.02006291,-0.00064284,0.00104412,-0.00097335,-0.00
 004526,0.00010304,0.00001010,-0.00000079,0.00029528,0.00083091,0.00000
 142,-0.12887214,0.27942611,0.00029697,0.00008733,0.00626876,-0.0000041
 9,0.00003164,-0.00061012,0.00050820,0.00004608,0.00718052,0.00057393,-
 0.00115235,0.00378434,0.00402021,-0.00525290,-0.03694515,-0.00035272,0
 .00040688,0.00277750,0.00001166,0.00002893,0.00061495,-0.00004898,-0.0
 0000122,-0.00121302,-0.00018661,0.00002883,-0.00405432,-0.00469718,0.0
 0574981,0.02556526,0.00083520,-0.00078332,0.00020871,-0.01062129,-0.00
 927938,0.00046466,-0.19725002,-0.00175536,0.00531019,-0.01158101,0.008
 86896,0.00055379,0.00074313,0.00123160,0.00022991,0.00768073,-0.001299
 38,-0.00034345,0.00062320,0.00023941,-0.00002443,0.00026310,0.00145820
 ,-0.00010979,0.00025856,-0.00133838,-0.00012366,0.00079911,-0.00044514
 ,-0.00002815,0.52860952,-0.00463760,-0.00436884,0.00015420,-0.02052028
 ,0.00718956,0.00082166,-0.00160789,-0.06829353,0.00004605,0.02028330,0
 .00749989,-0.00078278,0.00482267,-0.00423503,-0.00021873,0.00014081,-0
 .00321496,-0.00001185,-0.00118607,0.00006818,0.00004702,-0.00193963,-0
 .00261521,0.00007608,0.00206474,-0.00270047,-0.00008058,0.00130264,0.0
 0000063,-0.00005165,-0.00098496,0.59396350,0.00019724,0.00000256,0.006
 16988,0.00043633,0.00038090,0.00182023,0.00530891,0.00005121,-0.062264
 58,0.00058597,-0.00033433,0.00189142,0.00024096,-0.00007734,0.00651376
 ,-0.00033821,0.00004493,-0.00091708,-0.00002814,-0.00000920,-0.0000114
 7,-0.00011918,-0.00005728,-0.00262385,-0.00011513,0.00005288,-0.002800
 88,-0.00002328,0.00001717,0.00011729,-0.01507654,0.00123335,0.14604107
 ,-0.00130855,-0.00109688,0.00003480,-0.00413999,0.00399198,0.00021591,
 -0.01876568,-0.02764204,0.00092200,-0.00266556,-0.00180451,0.00011981,
 0.00136027,-0.00023532,-0.00006695,-0.00248410,-0.00061015,0.00010266,
 -0.00055186,-0.00002302,0.00001828,0.00019008,-0.00014758,-0.00000471,
 -0.00153972,-0.00031037,0.00005223,-0.00026045,0.00015191,0.00001051,-
 0.13730444,-0.12009051,0.00326260,0.65028404,-0.00021617,0.00059649,0.
 00001108,0.00045455,0.00128728,-0.00001766,-0.01192654,-0.00181611,0.0
 0044676,0.00029495,-0.00424539,-0.00002404,-0.00019336,0.00078602,0.00
 001097,-0.00163131,0.00016199,0.00006415,-0.00011839,-0.00000925,0.000
 00491,0.00062191,0.00062661,-0.00002294,0.00025307,0.00110912,-0.00000
 698,-0.00037068,0.00010279,0.00001492,-0.07936679,-0.26397508,0.002563
 62,0.11595626,0.35249807,0.00003776,0.00004528,-0.00034340,0.00020541,
 -0.00015722,0.00107064,0.00096376,0.00106383,0.00647899,0.00012485,0.0
 0005881,0.00047891,-0.00006717,0.00001217,-0.00031958,0.00009991,0.000
 02428,0.00015160,0.00001791,0.00000112,-0.00008877,-0.00000274,0.00000
 729,0.00007842,0.00005384,0.00001561,-0.00019647,0.00000910,-0.0000057
 1,-0.00000474,0.00336185,0.00416010,-0.04652390,-0.02399902,-0.0037222
 2,0.03082463,-0.00000877,-0.00055992,-0.00002252,-0.00111172,0.0007107
 4,0.00006199,0.00201912,-0.00350493,0.00010447,0.00058062,-0.00020840,
 -0.00003465,-0.00004731,0.00009179,-0.00000080,0.00016959,0.00002370,-
 0.00000510,-0.00009496,0.00003440,0.00000289,-0.00002135,-0.00010834,0
 .00000957,0.00007318,0.00002355,-0.00000677,-0.00001712,-0.00000126,0.
 00000197,-0.01843076,0.00703918,0.00073897,-0.50346226,-0.01221704,0.0
 1928599,0.51634174,-0.00005143,-0.00027118,0.00000262,-0.00085513,0.00
 046007,0.00003392,0.00000823,-0.00362432,-0.00002237,0.00061091,-0.000
 28179,-0.00002410,-0.00002541,0.00020983,0.00000165,0.00029011,-0.0000
 4192,-0.00001155,-0.00006157,0.00000474,0.00000249,-0.00005914,-0.0000
 6778,0.00000157,-0.00031325,0.00049867,0.00001409,0.00003826,-0.000013
 73,-0.00000164,-0.03478661,0.00070114,0.00136556,0.02539587,-0.0303973
 0,-0.00104577,0.00571978,0.03347593,-0.00002133,0.00002302,-0.00054460
 ,0.00005832,-0.00002771,0.00041061,0.00011376,0.00011666,0.00490464,-0
 .00003195,0.00000807,-0.00026874,-0.00000124,-0.00000280,-0.00008245,-
 0.00000432,-0.00000126,0.00004519,0.00000266,-0.00000128,-0.00002372,0
 .00000973,0.00000343,0.00022966,-0.00000770,0.00000069,-0.00009891,0.0
 0000209,-0.00000007,0.00003330,0.00063711,-0.00027010,-0.00005099,0.01
 937565,0.00042458,-0.01068626,-0.01988083,-0.00016183,0.00882173,0.001
 30628,0.00012784,-0.00007123,-0.00270033,0.00181406,0.00013713,-0.0194
 7167,0.02742607,0.00108869,-0.00399922,-0.00402153,0.00019624,-0.00131
 786,0.00094582,0.00003311,-0.00256870,0.00137885,0.00012090,-0.0001811
 5,-0.00007084,0.00000735,-0.00155277,0.00025345,0.00005171,0.00019689,
 0.00013821,-0.00000388,-0.00067828,0.00012287,0.00002315,-0.14138928,0
 .12295820,0.00407236,0.01604259,-0.00834859,0.00027161,0.00316765,0.00
 284408,-0.00028992,0.65486237,0.00016907,0.00086268,-0.00000323,-0.000
 22419,-0.00422259,-0.00000426,0.01158337,-0.00131055,-0.00047549,-0.00
 059475,0.00124841,0.00002372,0.00016624,0.00070856,-0.00000363,0.00159
 306,-0.00041205,-0.00006480,0.00030473,0.00003726,-0.00001194,-0.00040
 372,0.00098670,0.00001961,-0.00063368,0.00061351,0.00002640,0.00015868
 ,-0.00005609,-0.00000614,0.08221707,-0.26070938,-0.00382645,0.00983619
 ,-0.05982589,-0.00060997,0.00414225,0.00338629,-0.00014226,-0.11056231
 ,0.34865749,-0.00007100,-0.00000127,-0.00049727,0.00013134,-0.00008501
 ,0.00064309,0.00104618,-0.00109723,0.00627383,0.00020435,0.00015877,0.
 00125938,0.00003111,-0.00003340,-0.00054517,0.00012126,-0.00005685,0.0
 0038766,0.00000834,0.00000287,0.00000955,0.00004998,-0.00000650,-0.000
 26135,-0.00000590,-0.00000407,0.00009016,0.00002314,-0.00000472,-0.000
 10095,0.00395395,-0.00542194,-0.04651829,0.00031982,0.00010735,0.02350
 704,-0.00028662,-0.00009099,-0.00442443,-0.02476105,0.00522041,0.03084
 292,-0.00005562,-0.00009376,0.00000175,0.00058511,0.00023428,-0.000035
 59,0.00195757,0.00356397,0.00012946,-0.00112889,-0.00072028,0.00005657
 ,-0.00001140,0.00055443,-0.00001919,0.00018117,-0.00006569,-0.00000839
 ,-0.00001411,0.00000234,0.00000203,0.00006477,-0.00002588,-0.00000617,
 -0.00002514,0.00010947,0.00001085,-0.00010424,-0.00002836,0.00000275,-
 0.01892401,-0.00744720,0.00072017,0.00331059,-0.00413453,-0.00031426,0
 .00091300,0.00134500,0.00003462,-0.50313042,0.00319944,0.01929454,0.51
 645299,0.00000733,0.00020536,0.00000051,-0.00058209,-0.00029244,0.0000
 2287,0.00008120,-0.00352617,-0.00002659,0.00082618,0.00044794,-0.00003
 244,0.00005921,-0.00024657,-0.00000137,-0.00028010,-0.00001132,0.00001
 087,-0.00002171,-0.00000023,0.00000076,0.00029677,0.00050527,-0.000010
 23,0.00006276,-0.00006467,-0.00000333,0.00005761,0.00000785,-0.0000021
 5,0.03452016,0.00115470,-0.00134903,-0.00285168,0.00323835,0.00013222,
 -0.00121794,-0.00410745,0.00003205,-0.03454606,-0.03051854,0.00129278,
 0.00349659,0.03321542,0.00000194,0.00000422,-0.00001281,-0.00003733,-0
 .00000905,-0.00032047,0.00012036,-0.00016449,0.00499988,0.00006130,0.0
 0002835,0.00035347,-0.00002072,-0.00002128,-0.00053781,-0.00000889,0.0
 0000281,-0.00002058,0.00000198,-0.00000019,0.00003753,-0.00000532,0.00
 000258,-0.00008900,0.00001075,-0.00000509,0.00024351,0.00000302,0.0000
 0123,-0.00003208,0.00084241,0.00029039,-0.00003214,-0.00031065,0.00018
 324,-0.00442532,0.00002780,-0.00006774,0.00171694,0.01918222,-0.000181
 27,-0.01064320,-0.01987336,-0.00006318,0.00872926,-0.02928286,0.017349
 24,0.00132409,0.00555205,0.00387707,0.00007141,0.00398190,-0.00031257,
 -0.00020346,0.00518796,-0.00217853,0.00012060,-0.02393348,-0.01733197,
 0.00092355,-0.19716994,0.01745504,0.00483429,0.00007387,-0.00285824,-0
 .00015650,0.00035902,-0.00044838,-0.00001013,0.00064896,0.00047350,-0.
 00001078,-0.00004259,0.00380223,-0.00015986,-0.00937273,-0.00001950,0.
 00032922,0.00319738,0.00214648,-0.00012088,-0.00012803,-0.00028952,0.0
 0000510,0.00326372,-0.00219039,-0.00013545,-0.00014129,0.00029306,0.00
 000817,0.64849651,0.02498213,0.01368096,-0.00095417,0.00811967,-0.0051
 2150,-0.00035075,-0.00096346,-0.00458476,0.00002897,-0.00407034,-0.005
 88226,0.00012236,-0.03548415,-0.00044198,0.00139369,0.04558410,-0.1109
 8823,-0.00190024,0.00107812,-0.00251170,-0.00004034,0.00189742,0.00002
 039,-0.00007506,-0.00152916,0.00014882,0.00005931,-0.00336393,-0.00073
 090,0.00014280,-0.00063420,-0.00034676,0.00002661,0.00011846,0.0000963
 4,-0.00000447,-0.00000849,0.00001688,0.00000039,0.00047645,-0.00020597
 ,-0.00001933,0.00000119,0.00010570,0.00000016,0.16135875,0.86003786,0.
 00134066,-0.00065269,0.00300995,0.00008253,-0.00018664,0.00709135,-0.0
 0020655,0.00000398,-0.00116448,0.00011412,0.00004702,0.00833871,0.0008
 7627,0.00067650,0.00079141,0.00492213,-0.00078519,-0.07599125,-0.00014
 421,0.00011464,-0.00366481,-0.00000344,0.00001721,0.00013657,-0.000016
 00,-0.00001925,0.00034520,-0.00018031,-0.00014094,-0.00435199,0.000328
 58,0.00000272,-0.00101245,-0.00012594,-0.00008447,-0.00000160,0.000005
 66,0.00001139,0.00001536,-0.00012786,0.00008572,-0.00000935,0.00000720
 ,-0.00001134,0.00003988,-0.01768864,-0.00422262,0.18692358,-0.00580214
 ,-0.00254109,0.00031550,0.00000154,0.00205522,-0.00003030,-0.00003485,
 -0.00015597,0.00001099,0.00004808,-0.00066702,-0.00002285,0.00013478,0
 .00238220,-0.00005278,-0.01110048,0.02824420,0.00121095,0.00021103,0.0
 0008036,0.00000035,-0.00053701,-0.00004079,0.00000720,-0.00008982,-0.0
 0002991,0.00000603,-0.00047284,-0.00168016,0.00002169,0.00043280,0.000
 04115,-0.00001784,-0.00019375,-0.00018203,0.00000683,0.00000277,0.0000
 2026,0.00000058,-0.00014177,0.00004188,0.00000503,0.00000459,-0.000028
 21,0.00000074,-0.11720698,0.08912203,0.00258793,0.11484127,0.00028919,
 0.00122930,-0.00001526,-0.00031250,-0.00020480,0.00001439,0.00037366,0
 .00026636,-0.00001491,0.00047241,0.00037575,-0.00001524,-0.00054706,0.
 00073574,0.00002740,0.00001669,-0.00266456,-0.00006316,-0.00045331,0.0
 0016355,0.00001753,0.00011705,0.00001725,-0.00000355,0.00010535,0.0000
 3527,-0.00000421,0.00035332,0.00068693,-0.00001309,-0.00078983,-0.0000
 5404,0.00003094,0.00030961,0.00026050,-0.00001151,-0.00001045,-0.00003
 213,0.00000029,0.00024436,-0.00011953,-0.00000991,-0.00001981,0.000016
 90,0.00000077,0.09953167,-0.20797545,-0.00439802,-0.09078071,0.2570951
 4,0.00032464,0.00009790,0.00234327,-0.00003741,-0.00008043,-0.00089087
 ,0.00001225,0.00000716,0.00024996,-0.00001884,0.00002849,-0.00047978,-
 0.00006167,-0.00008835,-0.00134579,0.00112093,-0.00117622,0.01736634,-
 0.00000159,-0.00000322,0.00021076,0.00000801,0.00000267,-0.00034679,0.
 00000630,0.00000112,0.00006306,0.00002721,0.00006793,0.00018183,-0.000
 01997,-0.00000168,-0.00002121,0.00000815,0.00000795,-0.00000883,0.0000
 0050,-0.00000094,0.00001592,0.00000553,-0.00000189,-0.00001734,0.00000
 076,0.00000110,0.00002501,0.00262232,-0.00398777,-0.05890975,-0.003938
 35,0.00432773,0.02238532,0.00274077,-0.00476653,-0.00014298,0.00036344
 ,-0.00155274,-0.00004411,-0.00218008,-0.00138977,0.00008854,-0.0033912
 9,-0.00118441,0.00005141,-0.00333114,0.00920422,0.00027856,-0.04739523
 ,-0.04930775,0.00242736,-0.00092085,0.00013036,0.00003241,-0.00013198,
 0.00018996,0.00001040,-0.00096372,-0.00009480,0.00002714,0.00054925,-0
 .00080648,0.00000663,0.00462819,-0.00021905,-0.00017441,-0.00170859,-0
 .00102181,0.00006525,0.00005462,0.00016954,-0.00000233,-0.00170807,0.0
 0119706,0.00007098,0.00006534,-0.00017306,-0.00000441,-0.29348347,-0.2
 8668457,0.00822788,0.01990278,-0.00889963,-0.00005875,0.32691003,0.005
 92777,-0.00866653,-0.00025553,-0.00339161,0.00052382,0.00013657,-0.000
 49031,0.00086469,0.00002080,-0.00111737,0.00140400,0.00005410,0.004207
 78,0.00640384,-0.00015624,-0.04504048,0.00187091,0.00172334,-0.0002726
 0,0.00266765,0.00001839,-0.00049911,0.00013202,0.00001968,-0.00025856,
 -0.00008614,0.00001075,0.00138540,0.00068477,-0.00005608,0.00292796,-0
 .00006429,-0.00011607,-0.00094820,-0.00049454,0.00003618,0.00005137,0.
 00008405,-0.00000186,-0.00118093,0.00087967,0.00004904,0.00002880,-0.0
 0013009,-0.00000147,-0.28065795,-0.53531743,0.00954198,-0.02588140,-0.
 04983217,0.00079845,0.34520945,0.57907577,-0.00011054,0.00016320,-0.00
 050336,-0.00005011,0.00006472,-0.00067612,0.00009117,0.00005600,0.0001
 6550,0.00004988,0.00005562,-0.00202582,0.00026485,-0.00034981,0.003088
 81,0.00244087,0.00188816,0.01808242,0.00003197,0.00000295,-0.00009542,
 0.00000851,-0.00000738,0.00012288,0.00002632,0.00000423,-0.00027076,0.
 00001405,0.00003192,0.00078862,-0.00016517,0.00000775,0.00022317,0.000
 06485,0.00003880,0.00000862,-0.00000253,-0.00000638,-0.00001327,0.0000
 6394,-0.00004454,0.00000372,-0.00000375,0.00000652,-0.00003207,0.00824
 694,0.00978046,-0.06158634,-0.00011170,0.00012980,0.01917888,-0.010859
 58,-0.01182201,0.02354053||-0.00000178,-0.00000469,0.00000180,0.000007
 63,-0.00000706,0.00000237,-0.00003336,-0.00000862,-0.00000301,0.000002
 00,0.00001064,0.00000735,-0.00000244,0.00001369,-0.00000910,0.00000702
 ,-0.00000682,0.00000116,0.00000251,0.00000899,0.00000035,-0.00000714,0
 .00000793,-0.00000254,-0.00000310,-0.00001026,-0.00000179,0.00000665,-
 0.00000789,-0.00000047,0.00002651,-0.00000210,0.00002207,0.00001341,-0
 .00000301,-0.00001505,-0.00000398,-0.00000481,0.00000457,0.00001016,-0
 .00000214,-0.00001521,-0.00000572,-0.00000268,0.00000525,-0.00001021,0
 .00002219,0.00000051,-0.00000341,0.00000162,0.00000446,-0.00000476,-0.
 00000497,-0.00000273|||@


 Children are likely to live up to what you believe of them.
 -- Lady Bird Johnson
 Job cpu time:       0 days  0 hours 11 minutes 51.0 seconds.
 File lengths (MBytes):  RWF=    100 Int=      0 D2E=      0 Chk=      5 Scr=      1
 Normal termination of Gaussian 09 at Fri Aug 25 16:26:01 2023.
