 Entering Link 1 = C:\G09W\l1.exe PID=     11352.
  
 Copyright (c) 1988,1990,1992,1993,1995,1998,2003,2009,2013,
            Gaussian, Inc.  All Rights Reserved.
  
 This is part of the Gaussian(R) 09 program.  It is based on
 the Gaussian(R) 03 system (copyright 2003, Gaussian, Inc.),
 the Gaussian(R) 98 system (copyright 1998, Gaussian, Inc.),
 the Gaussian(R) 94 system (copyright 1995, Gaussian, Inc.),
 the Gaussian 92(TM) system (copyright 1992, Gaussian, Inc.),
 the Gaussian 90(TM) system (copyright 1990, Gaussian, Inc.),
 the Gaussian 88(TM) system (copyright 1988, Gaussian, Inc.),
 the Gaussian 86(TM) system (copyright 1986, Carnegie Mellon
 University), and the Gaussian 82(TM) system (copyright 1983,
 Carnegie Mellon University). Gaussian is a federally registered
 trademark of Gaussian, Inc.
  
 This software contains proprietary and confidential information,
 including trade secrets, belonging to Gaussian, Inc.
  
 This software is provided under written license and may be
 used, copied, transmitted, or stored only in accord with that
 written license.
  
 The following legend is applicable only to US Government
 contracts under FAR:
  
                    RESTRICTED RIGHTS LEGEND
  
 Use, reproduction and disclosure by the US Government is
 subject to restrictions as set forth in subparagraphs (a)
 and (c) of the Commercial Computer Software - Restricted
 Rights clause in FAR 52.227-19.
  
 Gaussian, Inc.
 340 Quinnipiac St., Bldg. 40, Wallingford CT 06492
  
  
 ---------------------------------------------------------------
 Warning -- This program may not be used in any manner that
 competes with the business of Gaussian, Inc. or will provide
 assistance to any competitor of Gaussian, Inc.  The licensee
 of this program is prohibited from giving any competitor of
 Gaussian, Inc. access to this program.  By using this program,
 the user acknowledges that Gaussian, Inc. is engaged in the
 business of creating and licensing software in the field of
 computational chemistry and represents and warrants to the
 licensee that it is not a competitor of Gaussian, Inc. and that
 it will not use this program in any manner prohibited above.
 ---------------------------------------------------------------
  

 Cite this work as:
 Gaussian 09, Revision D.01,
 M. J. Frisch, G. W. Trucks, H. B. Schlegel, G. E. Scuseria, 
 M. A. Robb, J. R. Cheeseman, G. Scalmani, V. Barone, B. Mennucci, 
 G. A. Petersson, H. Nakatsuji, M. Caricato, X. Li, H. P. Hratchian, 
 A. F. Izmaylov, J. Bloino, G. Zheng, J. L. Sonnenberg, M. Hada, 
 M. Ehara, K. Toyota, R. Fukuda, J. Hasegawa, M. Ishida, T. Nakajima, 
 Y. Honda, O. Kitao, H. Nakai, T. Vreven, J. A. Montgomery, Jr., 
 J. E. Peralta, F. Ogliaro, M. Bearpark, J. J. Heyd, E. Brothers, 
 K. N. Kudin, V. N. Staroverov, T. Keith, R. Kobayashi, J. Normand, 
 K. Raghavachari, A. Rendell, J. C. Burant, S. S. Iyengar, J. Tomasi, 
 M. Cossi, N. Rega, J. M. Millam, M. Klene, J. E. Knox, J. B. Cross, 
 V. Bakken, C. Adamo, J. Jaramillo, R. Gomperts, R. E. Stratmann, 
 O. Yazyev, A. J. Austin, R. Cammi, C. Pomelli, J. W. Ochterski, 
 R. L. Martin, K. Morokuma, V. G. Zakrzewski, G. A. Voth, 
 P. Salvador, J. J. Dannenberg, S. Dapprich, A. D. Daniels, 
 O. Farkas, J. B. Foresman, J. V. Ortiz, J. Cioslowski, 
 and D. J. Fox, Gaussian, Inc., Wallingford CT, 2013.
 
 ******************************************
 Gaussian 09:  EM64W-G09RevD.01 13-Apr-2013
                13-Sep-2023 
 ******************************************
 %nprocshared=2
 Will use up to    2 processors via shared memory.
 %mem=2GB
 %chk=E:\PROJECT- VIT group\ML\Substrates\molecule_12.chk
 -----------------------------------------------------
 # opt freq b3lyp/6-31g nosymm empiricaldispersion=gd3
 -----------------------------------------------------
 1/14=-1,18=20,19=15,26=3,38=1/1,3;
 2/9=110,12=2,15=1,17=6,18=5,40=1/2;
 3/5=1,6=6,11=2,16=1,25=1,30=1,71=1,74=-5,124=31/1,2,3;
 4//1;
 5/5=2,38=5/2;
 6/7=2,8=2,9=2,10=2,28=1/1;
 7/30=1/1,2,3,16;
 1/14=-1,18=20,19=15,26=3/3(2);
 2/9=110,15=1/2;
 99//99;
 2/9=110,15=1/2;
 3/5=1,6=6,11=2,16=1,25=1,30=1,71=1,74=-5,124=31/1,2,3;
 4/5=5,16=3,69=1/1;
 5/5=2,38=5/2;
 7/30=1/1,2,3,16;
 1/14=-1,18=20,19=15,26=3/3(-5);
 2/9=110,15=1/2;
 6/7=2,8=2,9=2,10=2,19=2,28=1/1;
 99/9=1/99;
 ----------
 molecule_9
 ----------
 Symbolic Z-matrix:
 Charge =  0 Multiplicity = 1
 C                    -0.26413  -0.70775   0. 
 C                     1.13103  -0.70775   0. 
 C                     1.82857   0.5       0. 
 C                     1.13092   1.70851  -0.0012 
 C                    -0.96151   0.50022  -0.00068 
 H                    -0.81389  -1.66007   0.00045 
 H                     1.68054  -1.66026   0.00132 
 H                     1.68112   2.66065  -0.00126 
 B                     3.47857   0.50012   0.00095 
 O                     4.24934   0.49944  -1.33228 
 H                     5.19316   0.50175  -1.1568 
 O                     4.2478    0.50091   1.33507 
 H                     5.19183   0.4995    1.16067 
 H                    -2.03151   0.50025  -0.00044 
 N                    -0.26391   1.70843  -0.00168 
 

 GradGradGradGradGradGradGradGradGradGradGradGradGradGradGradGradGradGrad
 Berny optimization.
 Initialization pass.
                           ----------------------------
                           !    Initial Parameters    !
                           ! (Angstroms and Degrees)  !
 --------------------------                            --------------------------
 ! Name  Definition              Value          Derivative Info.                !
 --------------------------------------------------------------------------------
 ! R1    R(1,2)                  1.3952         estimate D2E/DX2                !
 ! R2    R(1,5)                  1.3948         estimate D2E/DX2                !
 ! R3    R(1,6)                  1.0996         estimate D2E/DX2                !
 ! R4    R(2,3)                  1.3947         estimate D2E/DX2                !
 ! R5    R(2,7)                  1.0997         estimate D2E/DX2                !
 ! R6    R(3,4)                  1.3954         estimate D2E/DX2                !
 ! R7    R(3,9)                  1.65           estimate D2E/DX2                !
 ! R8    R(4,8)                  1.0997         estimate D2E/DX2                !
 ! R9    R(4,15)                 1.3948         estimate D2E/DX2                !
 ! R10   R(5,14)                 1.07           estimate D2E/DX2                !
 ! R11   R(5,15)                 1.3951         estimate D2E/DX2                !
 ! R12   R(9,10)                 1.54           estimate D2E/DX2                !
 ! R13   R(9,12)                 1.54           estimate D2E/DX2                !
 ! R14   R(10,11)                0.96           estimate D2E/DX2                !
 ! R15   R(12,13)                0.96           estimate D2E/DX2                !
 ! A1    A(2,1,5)              119.9985         estimate D2E/DX2                !
 ! A2    A(2,1,6)              119.9972         estimate D2E/DX2                !
 ! A3    A(5,1,6)              120.0043         estimate D2E/DX2                !
 ! A4    A(1,2,3)              120.0086         estimate D2E/DX2                !
 ! A5    A(1,2,7)              119.9808         estimate D2E/DX2                !
 ! A6    A(3,2,7)              120.0106         estimate D2E/DX2                !
 ! A7    A(2,3,4)              119.9942         estimate D2E/DX2                !
 ! A8    A(2,3,9)              120.0128         estimate D2E/DX2                !
 ! A9    A(4,3,9)              119.993          estimate D2E/DX2                !
 ! A10   A(3,4,8)              119.9811         estimate D2E/DX2                !
 ! A11   A(3,4,15)             119.994          estimate D2E/DX2                !
 ! A12   A(8,4,15)             120.0249         estimate D2E/DX2                !
 ! A13   A(1,5,14)             120.0            estimate D2E/DX2                !
 ! A14   A(1,5,15)             120.0            estimate D2E/DX2                !
 ! A15   A(14,5,15)            120.0            estimate D2E/DX2                !
 ! A16   A(3,9,10)             120.0            estimate D2E/DX2                !
 ! A17   A(3,9,12)             120.0            estimate D2E/DX2                !
 ! A18   A(10,9,12)            120.0            estimate D2E/DX2                !
 ! A19   A(9,10,11)            109.5            estimate D2E/DX2                !
 ! A20   A(9,12,13)            109.5            estimate D2E/DX2                !
 ! A21   A(4,15,5)             120.0047         estimate D2E/DX2                !
 ! D1    D(5,1,2,3)              0.0323         estimate D2E/DX2                !
 ! D2    D(5,1,2,7)            179.9532         estimate D2E/DX2                !
 ! D3    D(6,1,2,3)           -179.9729         estimate D2E/DX2                !
 ! D4    D(6,1,2,7)             -0.052          estimate D2E/DX2                !
 ! D5    D(2,1,5,14)          -179.9851         estimate D2E/DX2                !
 ! D6    D(2,1,5,15)             0.0149         estimate D2E/DX2                !
 ! D7    D(6,1,5,14)             0.0202         estimate D2E/DX2                !
 ! D8    D(6,1,5,15)          -179.9798         estimate D2E/DX2                !
 ! D9    D(1,2,3,4)             -0.0568         estimate D2E/DX2                !
 ! D10   D(1,2,3,9)            179.9619         estimate D2E/DX2                !
 ! D11   D(7,2,3,4)           -179.9777         estimate D2E/DX2                !
 ! D12   D(7,2,3,9)              0.041          estimate D2E/DX2                !
 ! D13   D(2,3,4,8)           -179.9964         estimate D2E/DX2                !
 ! D14   D(2,3,4,15)             0.0341         estimate D2E/DX2                !
 ! D15   D(9,3,4,8)             -0.0151         estimate D2E/DX2                !
 ! D16   D(9,3,4,15)          -179.9846         estimate D2E/DX2                !
 ! D17   D(2,3,9,10)            89.9874         estimate D2E/DX2                !
 ! D18   D(2,3,9,12)           -90.0126         estimate D2E/DX2                !
 ! D19   D(4,3,9,10)           -89.9939         estimate D2E/DX2                !
 ! D20   D(4,3,9,12)            90.0061         estimate D2E/DX2                !
 ! D21   D(3,4,15,5)             0.0131         estimate D2E/DX2                !
 ! D22   D(8,4,15,5)          -179.9563         estimate D2E/DX2                !
 ! D23   D(1,5,15,4)            -0.0376         estimate D2E/DX2                !
 ! D24   D(14,5,15,4)          179.9624         estimate D2E/DX2                !
 ! D25   D(3,9,10,11)          179.8644         estimate D2E/DX2                !
 ! D26   D(12,9,10,11)          -0.1356         estimate D2E/DX2                !
 ! D27   D(3,9,12,13)          179.9122         estimate D2E/DX2                !
 ! D28   D(10,9,12,13)          -0.0878         estimate D2E/DX2                !
 --------------------------------------------------------------------------------
 Trust Radius=3.00D-01 FncErr=1.00D-07 GrdErr=1.00D-06
 Number of steps in this run=     74 maximum allowed number of steps=    100.
 GradGradGradGradGradGradGradGradGradGradGradGradGradGradGradGradGradGrad

                          Input orientation:                          
 ---------------------------------------------------------------------
 Center     Atomic      Atomic             Coordinates (Angstroms)
 Number     Number       Type             X           Y           Z
 ---------------------------------------------------------------------
      1          6           0       -0.264127   -0.707751    0.000000
      2          6           0        1.131033   -0.707751    0.000000
      3          6           0        1.828571    0.500000    0.000000
      4          6           0        1.130917    1.708509   -0.001199
      5          6           0       -0.961509    0.500225   -0.000682
      6          1           0       -0.813886   -1.660068    0.000450
      7          1           0        1.680541   -1.660264    0.001315
      8          1           0        1.681117    2.660652   -0.001258
      9          5           0        3.478571    0.500120    0.000951
     10          8           0        4.249340    0.499439   -1.332283
     11          1           0        5.193161    0.501746   -1.156796
     12          8           0        4.247802    0.500914    1.335074
     13          1           0        5.191827    0.499499    1.160673
     14          1           0       -2.031509    0.500254   -0.000441
     15          7           0       -0.263908    1.708431   -0.001678
 ---------------------------------------------------------------------
                    Distance matrix (angstroms):
                    1          2          3          4          5
     1  C    0.000000
     2  C    1.395160   0.000000
     3  C    2.416205   1.394712   0.000000
     4  C    2.790065   2.416260   1.395427   0.000000
     5  C    1.394829   2.416183   2.790080   2.416236   0.000000
     6  H    1.099610   2.165553   3.412986   3.889675   2.165331
     7  H    2.165414   1.099655   2.165330   3.413316   3.412938
     8  H    3.889745   3.413024   2.165678   1.099680   3.413344
     9  B    3.932778   2.640054   1.650000   2.640395   4.440080
    10  O    4.858360   3.599461   2.763168   3.599750   5.378300
    11  H    5.708156   4.393397   3.557899   4.392438   6.262313
    12  O    4.858065   3.599658   2.763168   3.599845   5.377840
    13  H    5.707192   4.392568   3.557899   4.393477   6.261971
    14  H    2.140774   3.385402   3.860080   3.385383   1.070000
    15  N    2.416183   2.789946   2.416356   1.394825   1.395138
                    6          7          8          9         10
     6  H    0.000000
     7  H    2.494427   0.000000
     8  H    4.989355   4.320917   0.000000
     9  B    4.805372   2.810724   2.810470   0.000000
    10  O    5.663559   3.611305   3.610850   1.540000   0.000000
    11  H    6.488241   4.284157   4.281425   2.068864   0.960000
    12  O    5.663192   3.611153   3.610834   1.540000   2.667358
    13  H    6.486789   4.282267   4.283193   2.068864   2.665167
    14  H    2.479838   4.295015   4.295453   5.510080   6.420503
    15  N    3.413102   3.889601   2.165606   3.932705   4.858145
                   11         12         13         14         15
    11  H    0.000000
    12  O    2.665168   0.000000
    13  H    2.317471   0.960000   0.000000
    14  H    7.316626   6.419762   7.316062   0.000000
    15  N    5.707012   4.858037   5.707680   2.141053   0.000000
 Symmetry turned off by external request.
 Stoichiometry    C5H6BNO2
 Framework group  C1[X(C5H6BNO2)]
 Deg. of freedom    39
 Full point group                 C1      NOp   1
 Rotational constants (GHZ):      3.4450285      0.9356883      0.8903797
 Standard basis: 6-31G (6D, 7F)
    93 basis functions,   222 primitive gaussians,    93 cartesian basis functions
    32 alpha electrons       32 beta electrons
       nuclear repulsion energy       380.8192086963 Hartrees.
 NAtoms=   15 NActive=   15 NUniq=   15 SFac= 1.00D+00 NAtFMM=   60 NAOKFM=F Big=F
 Integral buffers will be    131072 words long.
 Raffenetti 2 integral format.
 Two-electron integral symmetry is turned off.
 Nuclear repulsion after empirical dispersion term =      380.8102466706 Hartrees.
 One-electron integrals computed using PRISM.
 NBasis=    93 RedAO= T EigKep=  1.24D-03  NBF=    93
 NBsUse=    93 1.00D-06 EigRej= -1.00D+00 NBFU=    93
 ExpMin= 1.27D-01 ExpMax= 5.48D+03 ExpMxC= 8.25D+02 IAcc=1 IRadAn=         1 AccDes= 0.00D+00
 Harris functional with IExCor=  402 and IRadAn=       1 diagonalized for initial guess.
 HarFok:  IExCor=  402 AccDes= 0.00D+00 IRadAn=         1 IDoV= 1 UseB2=F ITyADJ=14
 ICtDFT=  3500011 ScaDFX=  1.000000  1.000000  1.000000  1.000000
 FoFCou: FMM=F IPFlag=           0 FMFlag=      100000 FMFlg1=           0
         NFxFlg=           0 DoJE=T BraDBF=F KetDBF=T FulRan=T
         wScrn=  0.000000 ICntrl=     500 IOpCl=  0 I1Cent=   200000004 NGrid=           0
         NMat0=    1 NMatS0=      1 NMatT0=    0 NMatD0=    1 NMtDS0=    0 NMtDT0=    0
 Symmetry not used in FoFCou.
 Keep R1 ints in memory in canonical form, NReq=10515821.
 Requested convergence on RMS density matrix=1.00D-08 within 128 cycles.
 Requested convergence on MAX density matrix=1.00D-06.
 Requested convergence on             energy=1.00D-06.
 No special actions if energy rises.
 Integral accuracy reduced to 1.0D-05 until final iterations.
 Initial convergence to 1.0D-05 achieved.  Increase integral accuracy.
 SCF Done:  E(RB3LYP) =  -424.135000433     A.U. after   15 cycles
            NFock= 15  Conv=0.86D-08     -V/T= 2.0073

 **********************************************************************

            Population analysis using the SCF density.

 **********************************************************************

 Alpha  occ. eigenvalues --  -19.18008 -19.18007 -14.33881 -10.23191 -10.22818
 Alpha  occ. eigenvalues --  -10.21149 -10.20248 -10.20051  -6.86325  -1.03808
 Alpha  occ. eigenvalues --   -1.01241  -0.93082  -0.80416  -0.76979  -0.63714
 Alpha  occ. eigenvalues --   -0.62793  -0.56154  -0.52700  -0.52415  -0.48403
 Alpha  occ. eigenvalues --   -0.45915  -0.42934  -0.42024  -0.40127  -0.39004
 Alpha  occ. eigenvalues --   -0.36841  -0.35293  -0.34447  -0.32355  -0.28201
 Alpha  occ. eigenvalues --   -0.27002  -0.23922
 Alpha virt. eigenvalues --   -0.03127  -0.01764  -0.01580   0.01879   0.09220
 Alpha virt. eigenvalues --    0.09818   0.12550   0.14016   0.14902   0.15959
 Alpha virt. eigenvalues --    0.18002   0.22564   0.25424   0.27651   0.29163
 Alpha virt. eigenvalues --    0.32281   0.34377   0.40260   0.45385   0.46336
 Alpha virt. eigenvalues --    0.49234   0.50378   0.52639   0.53258   0.57144
 Alpha virt. eigenvalues --    0.59060   0.60200   0.62705   0.63744   0.64902
 Alpha virt. eigenvalues --    0.67537   0.68341   0.70004   0.74531   0.82491
 Alpha virt. eigenvalues --    0.83428   0.84049   0.85669   0.86118   0.87430
 Alpha virt. eigenvalues --    0.88917   0.89365   0.90939   0.95516   0.97173
 Alpha virt. eigenvalues --    1.01647   1.02282   1.04652   1.09050   1.10695
 Alpha virt. eigenvalues --    1.14438   1.19420   1.21430   1.24299   1.24487
 Alpha virt. eigenvalues --    1.36859   1.45208   1.49696   1.63345   1.75225
 Alpha virt. eigenvalues --    1.85173
          Condensed to atoms (all electrons):
               1          2          3          4          5          6
     1  C    5.053782   0.507207  -0.048618  -0.038392   0.446470   0.337320
     2  C    0.507207   4.991626   0.495782  -0.038437  -0.052393  -0.035580
     3  C   -0.048618   0.495782   5.207188   0.393741  -0.028687   0.005593
     4  C   -0.038392  -0.038437   0.393741   4.993074  -0.071470   0.000634
     5  C    0.446470  -0.052393  -0.028687  -0.071470   4.898427  -0.025209
     6  H    0.337320  -0.035580   0.005593   0.000634  -0.025209   0.580196
     7  H   -0.036663   0.362623  -0.039880   0.004937   0.004104  -0.004526
     8  H   -0.000295   0.004105  -0.068948   0.382581   0.004186   0.000018
     9  B    0.006960  -0.035563   0.268891  -0.019512  -0.000163  -0.000096
    10  O   -0.000011   0.000176  -0.038944   0.000040   0.000000   0.000000
    11  H    0.000002   0.000019   0.004245   0.000049   0.000000   0.000000
    12  O   -0.000011   0.000177  -0.038927   0.000036   0.000000   0.000000
    13  H    0.000002   0.000019   0.004246   0.000049   0.000000   0.000000
    14  H   -0.065565   0.003767  -0.000374   0.004655   0.380752  -0.000298
    15  N   -0.046813  -0.055613  -0.051126   0.401793   0.417208   0.004668
               7          8          9         10         11         12
     1  C   -0.036663  -0.000295   0.006960  -0.000011   0.000002  -0.000011
     2  C    0.362623   0.004105  -0.035563   0.000176   0.000019   0.000177
     3  C   -0.039880  -0.068948   0.268891  -0.038944   0.004245  -0.038927
     4  C    0.004937   0.382581  -0.019512   0.000040   0.000049   0.000036
     5  C    0.004104   0.004186  -0.000163   0.000000   0.000000   0.000000
     6  H   -0.004526   0.000018  -0.000096   0.000000   0.000000   0.000000
     7  H    0.572525  -0.000135  -0.008966   0.000082  -0.000007   0.000083
     8  H   -0.000135   0.568770  -0.004473  -0.000003   0.000012  -0.000002
     9  B   -0.008966  -0.004473   3.538833   0.318355  -0.017388   0.318356
    10  O    0.000082  -0.000003   0.318355   8.151711   0.224719  -0.034560
    11  H   -0.000007   0.000012  -0.017388   0.224719   0.426193  -0.001792
    12  O    0.000083  -0.000002   0.318356  -0.034560  -0.001792   8.151696
    13  H   -0.000007   0.000012  -0.017390  -0.001792   0.002535   0.224721
    14  H   -0.000162  -0.000025   0.000009   0.000000   0.000000   0.000000
    15  N   -0.000093  -0.042284   0.004832  -0.000004   0.000001  -0.000004
              13         14         15
     1  C    0.000002  -0.065565  -0.046813
     2  C    0.000019   0.003767  -0.055613
     3  C    0.004246  -0.000374  -0.051126
     4  C    0.000049   0.004655   0.401793
     5  C    0.000000   0.380752   0.417208
     6  H    0.000000  -0.000298   0.004668
     7  H   -0.000007  -0.000162  -0.000093
     8  H    0.000012  -0.000025  -0.042284
     9  B   -0.017390   0.000009   0.004832
    10  O   -0.001792   0.000000  -0.000004
    11  H    0.002535   0.000000   0.000001
    12  O    0.224721   0.000000  -0.000004
    13  H    0.426194   0.000000   0.000001
    14  H    0.000000   0.569214  -0.043823
    15  N    0.000001  -0.043823   6.819073
 Mulliken charges:
               1
     1  C   -0.115377
     2  C   -0.147916
     3  C   -0.064182
     4  C   -0.013775
     5  C    0.026776
     6  H    0.137280
     7  H    0.146083
     8  H    0.156482
     9  B    0.647315
    10  O   -0.619768
    11  H    0.361411
    12  O   -0.619773
    13  H    0.361409
    14  H    0.151851
    15  N   -0.407816
 Sum of Mulliken charges =   0.00000
 Mulliken charges with hydrogens summed into heavy atoms:
               1
     1  C    0.021903
     2  C   -0.001833
     3  C   -0.064182
     4  C    0.142706
     5  C    0.178627
     9  B    0.647315
    10  O   -0.258357
    12  O   -0.258364
    15  N   -0.407816
 Electronic spatial extent (au):  <R**2>=           2073.5617
 Charge=              0.0000 electrons
 Dipole moment (field-independent basis, Debye):
    X=              3.1885    Y=             -2.1606    Z=              0.0042  Tot=              3.8516
 Quadrupole moment (field-independent basis, Debye-Ang):
   XX=            -23.0784   YY=            -53.1149   ZZ=            -60.3227
   XY=              4.3802   XZ=              0.0148   YZ=             -0.0089
 Traceless Quadrupole moment (field-independent basis, Debye-Ang):
   XX=             22.4270   YY=             -7.6095   ZZ=            -14.8174
   XY=              4.3802   XZ=              0.0148   YZ=             -0.0089
 Octapole moment (field-independent basis, Debye-Ang**2):
  XXX=            -65.6866  YYY=            -84.7309  ZZZ=             -0.0259  XYY=            -72.0271
  XXY=            -10.8157  XXZ=              0.1085  XZZ=           -107.9940  YZZ=            -28.3816
  YYZ=             -0.0007  XYZ=             -0.0590
 Hexadecapole moment (field-independent basis, Debye-Ang**3):
 XXXX=           -779.3845 YYYY=           -370.4011 ZZZZ=           -198.8087 XXXY=            -33.3120
 XXXZ=              0.4091 YYYX=           -102.7930 YYYZ=              0.0387 ZZZX=             -0.2742
 ZZZY=              0.0102 XXYY=           -385.2763 XXZZ=           -442.7771 YYZZ=            -96.7191
 XXYZ=             -0.2175 YYXZ=             -0.1466 ZZXY=            -55.0051
 N-N= 3.808102466706D+02 E-N=-1.751900557289D+03  KE= 4.210586853387D+02
 Calling FoFJK, ICntrl=      2127 FMM=F ISym2X=0 I1Cent= 0 IOpClX= 0 NMat=1 NMatS=1 NMatT=0.
 -------------------------------------------------------------------
 Center     Atomic                   Forces (Hartrees/Bohr)
 Number     Number              X              Y              Z
 -------------------------------------------------------------------
      1        6          -0.008219967   -0.014892177   -0.000023238
      2        6           0.001246721   -0.013117000    0.000129889
      3        6           0.061062188    0.001184774   -0.000028027
      4        6          -0.040703910   -0.011041366    0.000027974
      5        6           0.047892041    0.023590243   -0.000050749
      6        1           0.004244545    0.007931389    0.000003582
      7        1          -0.005416900    0.008073028   -0.000051235
      8        1          -0.013879094   -0.005213282   -0.000026548
      9        5           0.024876387    0.000069428    0.000013941
     10        8          -0.054140771   -0.000054996    0.069871255
     11        1           0.020710834    0.000099730   -0.003698222
     12        8          -0.054060331   -0.000113814   -0.069932557
     13        1           0.020706426    0.000069717    0.003721460
     14        1          -0.009317191    0.009114611   -0.000016845
     15        7           0.004999022   -0.005700285    0.000059317
 -------------------------------------------------------------------
 Cartesian Forces:  Max     0.069932557 RMS     0.024301281

 GradGradGradGradGradGradGradGradGradGradGradGradGradGradGradGradGradGrad
 Berny optimization.
 FormGI is forming the generalized inverse of G from B-inverse, IUseBI=4.
 Internal  Forces:  Max     0.074020156 RMS     0.017236416
 Search for a local minimum.
 Step number   1 out of a maximum of   74
 All quantities printed in internal units (Hartrees-Bohrs-Radians)
 Mixed Optimization -- RFO/linear search
 Second derivative matrix not updated -- first step.
 ITU=  0
     Eigenvalues ---    0.00230   0.00300   0.00369   0.00369   0.01542
     Eigenvalues ---    0.01844   0.02005   0.02036   0.02118   0.02155
     Eigenvalues ---    0.02155   0.02156   0.16000   0.16000   0.16000
     Eigenvalues ---    0.16000   0.16000   0.16000   0.20635   0.22000
     Eigenvalues ---    0.23189   0.23486   0.25000   0.25000   0.25000
     Eigenvalues ---    0.28519   0.28519   0.33718   0.33720   0.33725
     Eigenvalues ---    0.37230   0.42238   0.42857   0.46412   0.46453
     Eigenvalues ---    0.46466   0.46497   0.55473   0.55473
 RFO step:  Lambda=-5.51126363D-02 EMin= 2.30000000D-03
 Linear search not attempted -- first point.
 Maximum step size (   0.300) exceeded in Quadratic search.
    -- Step size scaled by   0.732
 Iteration  1 RMS(Cart)=  0.05249330 RMS(Int)=  0.00057658
 Iteration  2 RMS(Cart)=  0.00068978 RMS(Int)=  0.00003031
 Iteration  3 RMS(Cart)=  0.00000033 RMS(Int)=  0.00003031
 Variable       Old X    -DE/DX   Delta X   Delta X   Delta X     New X
                                 (Linear)    (Quad)   (Total)
    R1        2.63647  -0.00144   0.00000   0.00027   0.00030   2.63677
    R2        2.63584   0.00489   0.00000   0.00677   0.00674   2.64259
    R3        2.07796  -0.00899   0.00000  -0.01678  -0.01678   2.06118
    R4        2.63562   0.00416   0.00000   0.00828   0.00834   2.64396
    R5        2.07805  -0.00970   0.00000  -0.01811  -0.01811   2.05994
    R6        2.63697   0.00992   0.00000   0.01413   0.01415   2.65112
    R7        3.11805  -0.04191   0.00000  -0.11739  -0.11739   3.00066
    R8        2.07809  -0.01146   0.00000  -0.02139  -0.02139   2.05670
    R9        2.63584  -0.03816   0.00000  -0.05604  -0.05608   2.57976
   R10        2.02201   0.00932   0.00000   0.01597   0.01597   2.03797
   R11        2.63643  -0.03730   0.00000  -0.05502  -0.05508   2.58135
   R12        2.91018  -0.07402   0.00000  -0.15931  -0.15931   2.75087
   R13        2.91018  -0.07402   0.00000  -0.15930  -0.15930   2.75087
   R14        1.81414   0.01969   0.00000   0.02364   0.02364   1.83778
   R15        1.81414   0.01969   0.00000   0.02364   0.02364   1.83778
    A1        2.09437  -0.00554   0.00000  -0.01086  -0.01084   2.08353
    A2        2.09435   0.00307   0.00000   0.00645   0.00644   2.10079
    A3        2.09447   0.00247   0.00000   0.00441   0.00440   2.09887
    A4        2.09455  -0.00938   0.00000  -0.01621  -0.01611   2.07844
    A5        2.09406   0.00401   0.00000   0.00578   0.00573   2.09979
    A6        2.09458   0.00537   0.00000   0.01043   0.01038   2.10496
    A7        2.09429  -0.01099   0.00000  -0.02222  -0.02213   2.07216
    A8        2.09462   0.00575   0.00000   0.01171   0.01167   2.10629
    A9        2.09427   0.00524   0.00000   0.01051   0.01046   2.10474
   A10        2.09407   0.00029   0.00000   0.01026   0.01027   2.10433
   A11        2.09429   0.01897   0.00000   0.04604   0.04604   2.14033
   A12        2.09483  -0.01926   0.00000  -0.05631  -0.05630   2.03853
   A13        2.09439   0.00084   0.00000   0.01166   0.01169   2.10609
   A14        2.09440   0.01676   0.00000   0.03944   0.03936   2.13376
   A15        2.09439  -0.01759   0.00000  -0.05109  -0.05106   2.04334
   A16        2.09440  -0.00043   0.00000  -0.00104  -0.00104   2.09335
   A17        2.09440  -0.00044   0.00000  -0.00105  -0.00105   2.09335
   A18        2.09440   0.00087   0.00000   0.00209   0.00209   2.09648
   A19        1.91114   0.01346   0.00000   0.04584   0.04584   1.95698
   A20        1.91114   0.01346   0.00000   0.04584   0.04584   1.95697
   A21        2.09448  -0.00982   0.00000  -0.03619  -0.03632   2.05816
    D1        0.00056  -0.00001   0.00000  -0.00017  -0.00017   0.00039
    D2        3.14078   0.00003   0.00000   0.00021   0.00021   3.14099
    D3       -3.14112  -0.00002   0.00000  -0.00017  -0.00017  -3.14129
    D4       -0.00091   0.00002   0.00000   0.00021   0.00021  -0.00070
    D5       -3.14133   0.00000   0.00000  -0.00003  -0.00003  -3.14136
    D6        0.00026   0.00000   0.00000  -0.00006  -0.00006   0.00020
    D7        0.00035   0.00000   0.00000  -0.00003  -0.00003   0.00032
    D8       -3.14124   0.00000   0.00000  -0.00005  -0.00006  -3.14130
    D9       -0.00099   0.00003   0.00000   0.00030   0.00029  -0.00070
   D10        3.14093   0.00003   0.00000   0.00022   0.00022   3.14115
   D11       -3.14120   0.00000   0.00000  -0.00008  -0.00008  -3.14129
   D12        0.00072  -0.00001   0.00000  -0.00015  -0.00015   0.00056
   D13       -3.14153   0.00000   0.00000   0.00002   0.00002  -3.14151
   D14        0.00060  -0.00001   0.00000  -0.00015  -0.00016   0.00044
   D15       -0.00026   0.00001   0.00000   0.00010   0.00010  -0.00017
   D16       -3.14132   0.00000   0.00000  -0.00008  -0.00008  -3.14141
   D17        1.57058   0.00003   0.00000   0.00038   0.00038   1.57096
   D18       -1.57102  -0.00002   0.00000  -0.00030  -0.00029  -1.57131
   D19       -1.57069   0.00002   0.00000   0.00032   0.00031  -1.57038
   D20        1.57090  -0.00003   0.00000  -0.00036  -0.00036   1.57054
   D21        0.00023  -0.00001   0.00000  -0.00009  -0.00009   0.00014
   D22       -3.14083  -0.00003   0.00000  -0.00028  -0.00028  -3.14111
   D23       -0.00066   0.00002   0.00000   0.00019   0.00019  -0.00047
   D24        3.14094   0.00002   0.00000   0.00016   0.00016   3.14110
   D25        3.13923  -0.00008   0.00000  -0.00100  -0.00100   3.13822
   D26       -0.00237  -0.00003   0.00000  -0.00032  -0.00032  -0.00269
   D27        3.14006   0.00010   0.00000   0.00131   0.00131   3.14137
   D28       -0.00153   0.00005   0.00000   0.00063   0.00063  -0.00090
         Item               Value     Threshold  Converged?
 Maximum Force            0.074020     0.000450     NO 
 RMS     Force            0.017236     0.000300     NO 
 Maximum Displacement     0.136648     0.001800     NO 
 RMS     Displacement     0.052694     0.001200     NO 
 Predicted change in Energy=-2.806167D-02
 GradGradGradGradGradGradGradGradGradGradGradGradGradGradGradGradGradGrad

                          Input orientation:                          
 ---------------------------------------------------------------------
 Center     Atomic      Atomic             Coordinates (Angstroms)
 Number     Number       Type             X           Y           Z
 ---------------------------------------------------------------------
      1          6           0       -0.231188   -0.710852    0.000011
      2          6           0        1.163942   -0.733950    0.000211
      3          6           0        1.864228    0.477310    0.000124
      4          6           0        1.136646    1.676806   -0.001021
      5          6           0       -0.896919    0.518910   -0.000752
      6          1           0       -0.798085   -1.642688    0.000359
      7          1           0        1.698407   -1.684005    0.001375
      8          1           0        1.650798    2.636064   -0.001201
      9          5           0        3.452007    0.495250    0.000951
     10          8           0        4.179154    0.503191   -1.260101
     11          1           0        5.142466    0.517140   -1.127387
     12          8           0        4.177821    0.504583    1.262763
     13          1           0        5.141313    0.515149    1.131050
     14          1           0       -1.974543    0.561079   -0.000707
     15          7           0       -0.228101    1.709967   -0.001548
 ---------------------------------------------------------------------
                    Distance matrix (angstroms):
                    1          2          3          4          5
     1  C    0.000000
     2  C    1.395321   0.000000
     3  C    2.408837   1.399125   0.000000
     4  C    2.751706   2.410911   1.402914   0.000000
     5  C    1.398397   2.411806   2.761460   2.340110   0.000000
     6  H    1.090729   2.162257   3.403278   3.842165   2.163857
     7  H    2.161102   1.090073   2.167667   3.407438   3.404197
     8  H    3.839755   3.405000   2.169279   1.088360   3.312583
     9  B    3.875643   2.597340   1.587881   2.599417   4.348991
    10  O    4.744776   3.494339   2.635853   3.495641   5.229984
    11  H    5.626291   4.320342   3.466946   4.319736   6.143573
    12  O    4.744595   3.494491   2.635852   3.495711   5.229690
    13  H    5.625486   4.319551   3.466946   4.320693   6.143390
    14  H    2.158031   3.395172   3.839685   3.305200   1.078449
    15  N    2.420822   2.812564   2.428432   1.365150   1.365993
                    6          7          8          9         10
     6  H    0.000000
     7  H    2.496833   0.000000
     8  H    4.929985   4.320332   0.000000
     9  B    4.757527   2.797189   2.797756   0.000000
    10  O    5.564752   3.539669   3.539288   1.455699   0.000000
    11  H    6.420811   4.240364   4.236730   2.032555   0.972511
    12  O    5.564537   3.539564   3.539302   1.455699   2.522864
    13  H    6.419592   4.238637   4.238392   2.032553   2.577498
    14  H    2.498129   4.304761   4.177160   5.426950   6.281514
    15  N    3.400762   3.902626   2.094735   3.875401   4.739637
                   11         12         13         14         15
    11  H    0.000000
    12  O    2.577501   0.000000
    13  H    2.258438   0.972511   0.000000
    14  H    7.205773   6.281014   7.205442   0.000000
    15  N    5.615455   4.739576   5.616135   2.090456   0.000000
 Symmetry turned off by external request.
 Stoichiometry    C5H6BNO2
 Framework group  C1[X(C5H6BNO2)]
 Deg. of freedom    39
 Full point group                 C1      NOp   1
 Rotational constants (GHZ):      3.5968826      0.9860830      0.9254827
 Standard basis: 6-31G (6D, 7F)
    93 basis functions,   222 primitive gaussians,    93 cartesian basis functions
    32 alpha electrons       32 beta electrons
       nuclear repulsion energy       387.9648324778 Hartrees.
 NAtoms=   15 NActive=   15 NUniq=   15 SFac= 1.00D+00 NAtFMM=   60 NAOKFM=F Big=F
 Integral buffers will be    131072 words long.
 Raffenetti 2 integral format.
 Two-electron integral symmetry is turned off.
 Nuclear repulsion after empirical dispersion term =      387.9557993344 Hartrees.
 One-electron integrals computed using PRISM.
 NBasis=    93 RedAO= T EigKep=  1.24D-03  NBF=    93
 NBsUse=    93 1.00D-06 EigRej= -1.00D+00 NBFU=    93
 Initial guess from the checkpoint file:  "E:\PROJECT- VIT group\ML\Substrates\molecule_12.chk"
 B after Tr=    -0.000014   -0.009744    0.000093
         Rot=    1.000000   -0.000004   -0.000006   -0.000209 Ang=  -0.02 deg.
 ExpMin= 1.27D-01 ExpMax= 5.48D+03 ExpMxC= 8.25D+02 IAcc=1 IRadAn=         1 AccDes= 0.00D+00
 Harris functional with IExCor=  402 and IRadAn=       1 diagonalized for initial guess.
 HarFok:  IExCor=  402 AccDes= 0.00D+00 IRadAn=         1 IDoV= 1 UseB2=F ITyADJ=14
 ICtDFT=  3500011 ScaDFX=  1.000000  1.000000  1.000000  1.000000
 FoFCou: FMM=F IPFlag=           0 FMFlag=      100000 FMFlg1=           0
         NFxFlg=           0 DoJE=T BraDBF=F KetDBF=T FulRan=T
         wScrn=  0.000000 ICntrl=     500 IOpCl=  0 I1Cent=   200000004 NGrid=           0
         NMat0=    1 NMatS0=      1 NMatT0=    0 NMatD0=    1 NMtDS0=    0 NMtDT0=    0
 Symmetry not used in FoFCou.
 Keep R1 ints in memory in canonical form, NReq=10515821.
 Requested convergence on RMS density matrix=1.00D-08 within 128 cycles.
 Requested convergence on MAX density matrix=1.00D-06.
 Requested convergence on             energy=1.00D-06.
 No special actions if energy rises.
 Integral accuracy reduced to 1.0D-05 until final iterations.
 Initial convergence to 1.0D-05 achieved.  Increase integral accuracy.
 SCF Done:  E(RB3LYP) =  -424.165277076     A.U. after   13 cycles
            NFock= 13  Conv=0.66D-08     -V/T= 2.0063
 Calling FoFJK, ICntrl=      2127 FMM=F ISym2X=0 I1Cent= 0 IOpClX= 0 NMat=1 NMatS=1 NMatT=0.
 -------------------------------------------------------------------
 Center     Atomic                   Forces (Hartrees/Bohr)
 Number     Number              X              Y              Z
 -------------------------------------------------------------------
      1        6          -0.005579719   -0.006659330   -0.000021665
      2        6          -0.002388703   -0.003520329    0.000090055
      3        6           0.030299047    0.002630970   -0.000032463
      4        6          -0.015833844   -0.004181352    0.000016157
      5        6           0.015617216    0.007566806   -0.000024690
      6        1           0.001186574    0.003666106    0.000005398
      7        1          -0.001823558    0.002922417   -0.000033884
      8        1          -0.003831454   -0.001191856   -0.000015311
      9        5           0.017959741    0.001144885    0.000009686
     10        8          -0.024028967   -0.000446010    0.040882680
     11        1           0.006508323    0.000129918   -0.006805623
     12        8          -0.023985297   -0.000531741   -0.040906991
     13        1           0.006501262    0.000161147    0.006812062
     14        1          -0.004018857    0.002769670   -0.000012641
     15        7           0.003418237   -0.004461301    0.000037230
 -------------------------------------------------------------------
 Cartesian Forces:  Max     0.040906991 RMS     0.012188622

 GradGradGradGradGradGradGradGradGradGradGradGradGradGradGradGradGradGrad
 Berny optimization.
 Using GEDIIS/GDIIS optimizer.
 FormGI is forming the generalized inverse of G from B-inverse, IUseBI=4.
 Internal  Forces:  Max     0.038274104 RMS     0.008242322
 Search for a local minimum.
 Step number   2 out of a maximum of   74
 All quantities printed in internal units (Hartrees-Bohrs-Radians)
 Mixed Optimization -- RFO/linear search
 Update second derivatives using D2CorX and points    1    2
 DE= -3.03D-02 DEPred=-2.81D-02 R= 1.08D+00
 TightC=F SS=  1.41D+00  RLast= 3.00D-01 DXNew= 5.0454D-01 9.0002D-01
 Trust test= 1.08D+00 RLast= 3.00D-01 DXMaxT set to 5.05D-01
 ITU=  1  0
 Use linear search instead of GDIIS.
     Eigenvalues ---    0.00230   0.00300   0.00369   0.00369   0.01529
     Eigenvalues ---    0.01847   0.02012   0.02042   0.02116   0.02155
     Eigenvalues ---    0.02155   0.02156   0.14127   0.16000   0.16000
     Eigenvalues ---    0.16000   0.16000   0.16250   0.20780   0.21936
     Eigenvalues ---    0.22625   0.23933   0.24254   0.25000   0.25000
     Eigenvalues ---    0.27318   0.28519   0.33713   0.33722   0.33946
     Eigenvalues ---    0.37224   0.42062   0.42814   0.46411   0.46461
     Eigenvalues ---    0.46486   0.48040   0.55473   0.56143
 RFO step:  Lambda=-4.45171506D-03 EMin= 2.30000000D-03
 Quartic linear search produced a step of  0.65856.
 Iteration  1 RMS(Cart)=  0.04092374 RMS(Int)=  0.00274907
 Iteration  2 RMS(Cart)=  0.00231822 RMS(Int)=  0.00012033
 Iteration  3 RMS(Cart)=  0.00000571 RMS(Int)=  0.00012021
 Iteration  4 RMS(Cart)=  0.00000000 RMS(Int)=  0.00012021
 Variable       Old X    -DE/DX   Delta X   Delta X   Delta X     New X
                                 (Linear)    (Quad)   (Total)
    R1        2.63677   0.00200   0.00020   0.00844   0.00864   2.64542
    R2        2.64259  -0.00010   0.00444  -0.00713  -0.00276   2.63983
    R3        2.06118  -0.00375  -0.01105  -0.00036  -0.01141   2.04977
    R4        2.64396   0.00522   0.00549   0.01206   0.01761   2.66157
    R5        2.05994  -0.00344  -0.01193   0.00254  -0.00939   2.05055
    R6        2.65112   0.00307   0.00932  -0.00288   0.00650   2.65762
    R7        3.00066  -0.01704  -0.07731   0.01166  -0.06565   2.93501
    R8        2.05670  -0.00286  -0.01409   0.00884  -0.00525   2.05146
    R9        2.57976  -0.01253  -0.03693   0.00924  -0.02769   2.55207
   R10        2.03797   0.00412   0.01051   0.00161   0.01212   2.05009
   R11        2.58135  -0.01252  -0.03627   0.00811  -0.02823   2.55313
   R12        2.75087  -0.03827  -0.10491  -0.04153  -0.14644   2.60443
   R13        2.75087  -0.03827  -0.10491  -0.04153  -0.14644   2.60444
   R14        1.83778   0.00552   0.01557  -0.00611   0.00946   1.84724
   R15        1.83778   0.00552   0.01557  -0.00611   0.00946   1.84724
    A1        2.08353  -0.00287  -0.00714  -0.00491  -0.01211   2.07142
    A2        2.10079   0.00235   0.00424   0.01031   0.01459   2.11538
    A3        2.09887   0.00051   0.00290  -0.00541  -0.00248   2.09639
    A4        2.07844  -0.00032  -0.01061   0.02441   0.01387   2.09231
    A5        2.09979   0.00000   0.00377  -0.01065  -0.00691   2.09288
    A6        2.10496   0.00032   0.00684  -0.01377  -0.00696   2.09800
    A7        2.07216  -0.00722  -0.01458  -0.01769  -0.03214   2.04002
    A8        2.10629   0.00450   0.00769   0.01397   0.02159   2.12788
    A9        2.10474   0.00271   0.00689   0.00372   0.01055   2.11528
   A10        2.10433  -0.00036   0.00676  -0.01098  -0.00425   2.10008
   A11        2.14033   0.00652   0.03032  -0.01101   0.01937   2.15970
   A12        2.03853  -0.00615  -0.03708   0.02199  -0.01512   2.02340
   A13        2.10609   0.00058   0.00770  -0.00559   0.00216   2.10825
   A14        2.13376   0.00416   0.02592  -0.02122   0.00459   2.13835
   A15        2.04334  -0.00474  -0.03362   0.02681  -0.00675   2.03659
   A16        2.09335  -0.00298  -0.00069  -0.01820  -0.01908   2.07428
   A17        2.09335  -0.00298  -0.00069  -0.01820  -0.01907   2.07428
   A18        2.09648   0.00597   0.00138   0.03642   0.03760   2.13408
   A19        1.95698   0.01402   0.03019   0.07838   0.10857   2.06554
   A20        1.95697   0.01402   0.03019   0.07838   0.10857   2.06554
   A21        2.05816  -0.00028  -0.02392   0.03041   0.00641   2.06457
    D1        0.00039  -0.00001  -0.00011  -0.00004  -0.00016   0.00023
    D2        3.14099   0.00002   0.00014   0.00012   0.00026   3.14124
    D3       -3.14129  -0.00001  -0.00011  -0.00004  -0.00016  -3.14145
    D4       -0.00070   0.00002   0.00014   0.00012   0.00026  -0.00044
    D5       -3.14136   0.00000  -0.00002  -0.00009  -0.00011  -3.14147
    D6        0.00020   0.00000  -0.00004  -0.00004  -0.00008   0.00012
    D7        0.00032   0.00000  -0.00002  -0.00009  -0.00011   0.00021
    D8       -3.14130   0.00000  -0.00004  -0.00004  -0.00009  -3.14138
    D9       -0.00070   0.00002   0.00019   0.00008   0.00027  -0.00042
   D10        3.14115   0.00002   0.00015   0.00003   0.00018   3.14133
   D11       -3.14129  -0.00001  -0.00005  -0.00009  -0.00014  -3.14143
   D12        0.00056  -0.00001  -0.00010  -0.00014  -0.00024   0.00032
   D13       -3.14151   0.00000   0.00002  -0.00009  -0.00007  -3.14158
   D14        0.00044  -0.00001  -0.00010  -0.00005  -0.00015   0.00029
   D15       -0.00017   0.00001   0.00006  -0.00004   0.00003  -0.00014
   D16       -3.14141  -0.00001  -0.00005   0.00001  -0.00005  -3.14145
   D17        1.57096  -0.00006   0.00025  -0.01815  -0.01758   1.55338
   D18       -1.57131   0.00007  -0.00019   0.01841   0.01791  -1.55341
   D19       -1.57038  -0.00006   0.00021  -0.01820  -0.01768  -1.58805
   D20        1.57054   0.00006  -0.00024   0.01836   0.01781   1.58835
   D21        0.00014  -0.00001  -0.00006  -0.00004  -0.00010   0.00004
   D22       -3.14111  -0.00002  -0.00018   0.00001  -0.00017  -3.14128
   D23       -0.00047   0.00001   0.00012   0.00009   0.00021  -0.00026
   D24        3.14110   0.00001   0.00011   0.00013   0.00024   3.14134
   D25        3.13822   0.00002  -0.00066   0.01826   0.01789  -3.12707
   D26       -0.00269  -0.00010  -0.00021  -0.01834  -0.01885  -0.02154
   D27        3.14137   0.00001   0.00086  -0.01665  -0.01608   3.12528
   D28       -0.00090   0.00013   0.00041   0.01995   0.02066   0.01975
         Item               Value     Threshold  Converged?
 Maximum Force            0.038274     0.000450     NO 
 RMS     Force            0.008242     0.000300     NO 
 Maximum Displacement     0.130697     0.001800     NO 
 RMS     Displacement     0.041868     0.001200     NO 
 Predicted change in Energy=-1.068828D-02
 GradGradGradGradGradGradGradGradGradGradGradGradGradGradGradGradGradGrad

                          Input orientation:                          
 ---------------------------------------------------------------------
 Center     Atomic      Atomic             Coordinates (Angstroms)
 Number     Number       Type             X           Y           Z
 ---------------------------------------------------------------------
      1          6           0       -0.214583   -0.713672   -0.000012
      2          6           0        1.185168   -0.733634    0.000346
      3          6           0        1.904187    0.477452    0.000215
      4          6           0        1.150253    1.664638   -0.000812
      5          6           0       -0.867534    0.521274   -0.000783
      6          1           0       -0.789691   -1.633350    0.000213
      7          1           0        1.712830   -1.681805    0.001275
      8          1           0        1.647420    2.629686   -0.000978
      9          5           0        3.456974    0.510550    0.000950
     10          8           0        4.122804    0.503220   -1.205727
     11          1           0        5.100241    0.511713   -1.196548
     12          8           0        4.121643    0.504210    1.208274
     13          1           0        5.099100    0.511158    1.200014
     14          1           0       -1.950982    0.576674   -0.000970
     15          7           0       -0.199885    1.695838   -0.001330
 ---------------------------------------------------------------------
                    Distance matrix (angstroms):
                    1          2          3          4          5
     1  C    0.000000
     2  C    1.399894   0.000000
     3  C    2.430630   1.408445   0.000000
     4  C    2.742104   2.398526   1.406353   0.000000
     5  C    1.396939   2.405905   2.772068   2.319212   0.000000
     6  H    1.084692   2.170152   3.422348   3.826239   2.156030
     7  H    2.156896   1.085106   2.167719   3.393401   3.392910
     8  H    3.826891   3.394937   2.167497   1.085584   3.281828
     9  B    3.870278   2.590192   1.553139   2.579318   4.324521
    10  O    4.663422   3.407950   2.525316   3.411271   5.133779
    11  H    5.583962   4.279164   3.412943   4.285024   6.086402
    12  O    4.663266   3.407966   2.525318   3.411398   5.133614
    13  H    5.583503   4.278735   3.412935   4.285545   6.086275
    14  H    2.163347   3.398873   3.856446   3.286537   1.084863
    15  N    2.409555   2.796552   2.431375   1.350498   1.351057
                    6          7          8          9         10
     6  H    0.000000
     7  H    2.502990   0.000000
     8  H    4.910498   4.311987   0.000000
     9  B    4.757150   2.801510   2.786615   0.000000
    10  O    5.491069   3.469750   3.478621   1.378206   0.000000
    11  H    6.381602   4.209615   4.223408   2.033306   0.977517
    12  O    5.490881   3.469566   3.478752   1.378208   2.414001
    13  H    6.380933   4.208669   4.224292   2.033307   2.596306
    14  H    2.496558   4.303980   4.142868   5.408360   6.192553
    15  N    3.381030   3.881617   2.069929   3.844155   4.643118
                   11         12         13         14         15
    11  H    0.000000
    12  O    2.596321   0.000000
    13  H    2.396563   0.977517   0.000000
    14  H    7.152159   6.192277   7.151945   0.000000
    15  N    5.560759   4.643137   5.561109   2.078189   0.000000
 Symmetry turned off by external request.
 Stoichiometry    C5H6BNO2
 Framework group  C1[X(C5H6BNO2)]
 Deg. of freedom    39
 Full point group                 C1      NOp   1
 Rotational constants (GHZ):      3.7239962      1.0215172      0.9509521
 Standard basis: 6-31G (6D, 7F)
    93 basis functions,   222 primitive gaussians,    93 cartesian basis functions
    32 alpha electrons       32 beta electrons
       nuclear repulsion energy       393.3261651863 Hartrees.
 NAtoms=   15 NActive=   15 NUniq=   15 SFac= 1.00D+00 NAtFMM=   60 NAOKFM=F Big=F
 Integral buffers will be    131072 words long.
 Raffenetti 2 integral format.
 Two-electron integral symmetry is turned off.
 Nuclear repulsion after empirical dispersion term =      393.3171279860 Hartrees.
 One-electron integrals computed using PRISM.
 NBasis=    93 RedAO= T EigKep=  1.24D-03  NBF=    93
 NBsUse=    93 1.00D-06 EigRej= -1.00D+00 NBFU=    93
 Initial guess from the checkpoint file:  "E:\PROJECT- VIT group\ML\Substrates\molecule_12.chk"
 B after Tr=     0.000928   -0.005346    0.000068
         Rot=    1.000000   -0.000033   -0.000008   -0.000422 Ang=  -0.05 deg.
 ExpMin= 1.27D-01 ExpMax= 5.48D+03 ExpMxC= 8.25D+02 IAcc=1 IRadAn=         1 AccDes= 0.00D+00
 Harris functional with IExCor=  402 and IRadAn=       1 diagonalized for initial guess.
 HarFok:  IExCor=  402 AccDes= 0.00D+00 IRadAn=         1 IDoV= 1 UseB2=F ITyADJ=14
 ICtDFT=  3500011 ScaDFX=  1.000000  1.000000  1.000000  1.000000
 FoFCou: FMM=F IPFlag=           0 FMFlag=      100000 FMFlg1=           0
         NFxFlg=           0 DoJE=T BraDBF=F KetDBF=T FulRan=T
         wScrn=  0.000000 ICntrl=     500 IOpCl=  0 I1Cent=   200000004 NGrid=           0
         NMat0=    1 NMatS0=      1 NMatT0=    0 NMatD0=    1 NMtDS0=    0 NMtDT0=    0
 Symmetry not used in FoFCou.
 Keep R1 ints in memory in canonical form, NReq=10515821.
 Requested convergence on RMS density matrix=1.00D-08 within 128 cycles.
 Requested convergence on MAX density matrix=1.00D-06.
 Requested convergence on             energy=1.00D-06.
 No special actions if energy rises.
 Integral accuracy reduced to 1.0D-05 until final iterations.
 Initial convergence to 1.0D-05 achieved.  Increase integral accuracy.
 SCF Done:  E(RB3LYP) =  -424.173839943     A.U. after   14 cycles
            NFock= 14  Conv=0.73D-08     -V/T= 2.0055
 Calling FoFJK, ICntrl=      2127 FMM=F ISym2X=0 I1Cent= 0 IOpClX= 0 NMat=1 NMatS=1 NMatT=0.
 -------------------------------------------------------------------
 Center     Atomic                   Forces (Hartrees/Bohr)
 Number     Number              X              Y              Z
 -------------------------------------------------------------------
      1        6           0.001682368   -0.001020027   -0.000015770
      2        6          -0.001208759    0.000988002    0.000052920
      3        6          -0.002173352   -0.000544930   -0.000031045
      4        6          -0.001440626   -0.002262923    0.000019478
      5        6           0.001759946   -0.000415286   -0.000012332
      6        1           0.000434626   -0.000320583    0.000005875
      7        1           0.000176483   -0.000384218   -0.000017264
      8        1          -0.001086026    0.000502584   -0.000011342
      9        5          -0.004157015   -0.003358958    0.000000502
     10        8           0.006357380    0.000883092   -0.005395878
     11        1          -0.002513076    0.000121789   -0.003083274
     12        8           0.006352570    0.000852011    0.005401092
     13        1          -0.002516888    0.000153825    0.003080159
     14        1          -0.000157467    0.001219833   -0.000006197
     15        7          -0.001510164    0.003585790    0.000013076
 -------------------------------------------------------------------
 Cartesian Forces:  Max     0.006357380 RMS     0.002314995

 GradGradGradGradGradGradGradGradGradGradGradGradGradGradGradGradGradGrad
 Berny optimization.
 Using GEDIIS/GDIIS optimizer.
 FormGI is forming the generalized inverse of G from B-inverse, IUseBI=4.
 Internal  Forces:  Max     0.009275714 RMS     0.002291346
 Search for a local minimum.
 Step number   3 out of a maximum of   74
 All quantities printed in internal units (Hartrees-Bohrs-Radians)
 Mixed Optimization -- RFO/linear search
 Update second derivatives using D2CorX and points    1    2    3
 DE= -8.56D-03 DEPred=-1.07D-02 R= 8.01D-01
 TightC=F SS=  1.41D+00  RLast= 2.85D-01 DXNew= 8.4853D-01 8.5436D-01
 Trust test= 8.01D-01 RLast= 2.85D-01 DXMaxT set to 8.49D-01
 ITU=  1  1  0
 Use linear search instead of GDIIS.
     Eigenvalues ---    0.00230   0.00308   0.00369   0.00369   0.01508
     Eigenvalues ---    0.01847   0.02014   0.02043   0.02114   0.02155
     Eigenvalues ---    0.02155   0.02156   0.13528   0.16000   0.16000
     Eigenvalues ---    0.16000   0.16007   0.16274   0.21352   0.21989
     Eigenvalues ---    0.23016   0.24030   0.24644   0.24995   0.25026
     Eigenvalues ---    0.28519   0.33574   0.33717   0.33725   0.36842
     Eigenvalues ---    0.37347   0.42078   0.43381   0.46432   0.46456
     Eigenvalues ---    0.46508   0.47945   0.55473   0.57187
 RFO step:  Lambda=-1.59964697D-03 EMin= 2.29999998D-03
 Quartic linear search produced a step of -0.06763.
 Iteration  1 RMS(Cart)=  0.06614487 RMS(Int)=  0.00377654
 Iteration  2 RMS(Cart)=  0.00522190 RMS(Int)=  0.00184153
 Iteration  3 RMS(Cart)=  0.00000973 RMS(Int)=  0.00184151
 Iteration  4 RMS(Cart)=  0.00000003 RMS(Int)=  0.00184151
 Variable       Old X    -DE/DX   Delta X   Delta X   Delta X     New X
                                 (Linear)    (Quad)   (Total)
    R1        2.64542  -0.00160  -0.00058  -0.00233  -0.00291   2.64250
    R2        2.63983   0.00176   0.00019   0.00361   0.00380   2.64363
    R3        2.04977   0.00004   0.00077  -0.00204  -0.00126   2.04851
    R4        2.66157  -0.00114  -0.00119  -0.00010  -0.00129   2.66029
    R5        2.05055   0.00042   0.00063  -0.00089  -0.00025   2.05030
    R6        2.65762   0.00180  -0.00044   0.00500   0.00456   2.66218
    R7        2.93501   0.00349   0.00444   0.00043   0.00487   2.93987
    R8        2.05146  -0.00005   0.00035  -0.00198  -0.00162   2.04983
    R9        2.55207  -0.00054   0.00187  -0.00697  -0.00509   2.54698
   R10        2.05009   0.00022  -0.00082   0.00268   0.00186   2.05195
   R11        2.55313  -0.00025   0.00191  -0.00638  -0.00447   2.54866
   R12        2.60443   0.00928   0.00990   0.00514   0.01505   2.61948
   R13        2.60444   0.00927   0.00990   0.00514   0.01505   2.61948
   R14        1.84724  -0.00254  -0.00064  -0.00199  -0.00263   1.84461
   R15        1.84724  -0.00254  -0.00064  -0.00199  -0.00263   1.84461
    A1        2.07142   0.00018   0.00082  -0.00145  -0.00064   2.07079
    A2        2.11538  -0.00064  -0.00099  -0.00144  -0.00243   2.11295
    A3        2.09639   0.00046   0.00017   0.00290   0.00306   2.09945
    A4        2.09231  -0.00018  -0.00094  -0.00070  -0.00164   2.09067
    A5        2.09288   0.00006   0.00047  -0.00002   0.00044   2.09332
    A6        2.09800   0.00012   0.00047   0.00072   0.00120   2.09919
    A7        2.04002  -0.00054   0.00217  -0.00690  -0.00473   2.03529
    A8        2.12788  -0.00022  -0.00146   0.00223   0.00078   2.12866
    A9        2.11528   0.00076  -0.00071   0.00466   0.00395   2.11924
   A10        2.10008   0.00024   0.00029   0.00368   0.00397   2.10405
   A11        2.15970   0.00196  -0.00131   0.01301   0.01170   2.17140
   A12        2.02340  -0.00221   0.00102  -0.01669  -0.01566   2.00774
   A13        2.10825   0.00061  -0.00015   0.00592   0.00577   2.11402
   A14        2.13835   0.00127  -0.00031   0.00820   0.00789   2.14624
   A15        2.03659  -0.00187   0.00046  -0.01412  -0.01366   2.02292
   A16        2.07428  -0.00249   0.00129  -0.00869  -0.01555   2.05873
   A17        2.07428  -0.00249   0.00129  -0.00869  -0.01554   2.05873
   A18        2.13408   0.00502  -0.00254   0.02469   0.01356   2.14764
   A19        2.06554   0.00565  -0.00734   0.04726   0.03992   2.10546
   A20        2.06554   0.00565  -0.00734   0.04725   0.03991   2.10545
   A21        2.06457  -0.00269  -0.00043  -0.01215  -0.01258   2.05198
    D1        0.00023  -0.00001   0.00001  -0.00041  -0.00040  -0.00017
    D2        3.14124   0.00001  -0.00002   0.00048   0.00046  -3.14149
    D3       -3.14145  -0.00001   0.00001  -0.00038  -0.00037   3.14137
    D4       -0.00044   0.00001  -0.00002   0.00051   0.00049   0.00005
    D5       -3.14147   0.00000   0.00001  -0.00010  -0.00009  -3.14156
    D6        0.00012   0.00000   0.00001  -0.00020  -0.00020  -0.00008
    D7        0.00021   0.00000   0.00001  -0.00013  -0.00012   0.00009
    D8       -3.14138   0.00000   0.00001  -0.00023  -0.00023   3.14157
    D9       -0.00042   0.00001  -0.00002   0.00070   0.00068   0.00026
   D10        3.14133   0.00001  -0.00001   0.00048   0.00047  -3.14139
   D11       -3.14143   0.00000   0.00001  -0.00019  -0.00018   3.14157
   D12        0.00032  -0.00001   0.00002  -0.00041  -0.00040  -0.00008
   D13       -3.14158   0.00000   0.00000   0.00008   0.00008  -3.14149
   D14        0.00029  -0.00001   0.00001  -0.00042  -0.00041  -0.00012
   D15       -0.00014   0.00001   0.00000   0.00029   0.00029   0.00015
   D16       -3.14145  -0.00001   0.00000  -0.00020  -0.00020   3.14153
   D17        1.55338   0.00069   0.00119   0.11658   0.11630   1.66967
   D18       -1.55341  -0.00068  -0.00121  -0.11559  -0.11532  -1.66873
   D19       -1.58805   0.00068   0.00120   0.11635   0.11607  -1.47198
   D20        1.58835  -0.00069  -0.00120  -0.11581  -0.11555   1.47280
   D21        0.00004   0.00000   0.00001  -0.00017  -0.00016  -0.00012
   D22       -3.14128  -0.00001   0.00001  -0.00065  -0.00063   3.14127
   D23       -0.00026   0.00001  -0.00001   0.00049   0.00047   0.00022
   D24        3.14134   0.00001  -0.00002   0.00039   0.00037  -3.14148
   D25       -3.12707  -0.00077  -0.00121  -0.14576  -0.14764   3.00847
   D26       -0.02154   0.00048   0.00128   0.09403   0.09598   0.07443
   D27        3.12528   0.00079   0.00109   0.15042   0.15218  -3.00572
   D28        0.01975  -0.00047  -0.00140  -0.08937  -0.09144  -0.07169
         Item               Value     Threshold  Converged?
 Maximum Force            0.009276     0.000450     NO 
 RMS     Force            0.002291     0.000300     NO 
 Maximum Displacement     0.232207     0.001800     NO 
 RMS     Displacement     0.066362     0.001200     NO 
 Predicted change in Energy=-9.580209D-04
 GradGradGradGradGradGradGradGradGradGradGradGradGradGradGradGradGradGrad

                          Input orientation:                          
 ---------------------------------------------------------------------
 Center     Atomic      Atomic             Coordinates (Angstroms)
 Number     Number       Type             X           Y           Z
 ---------------------------------------------------------------------
      1          6           0       -0.236511   -0.715515   -0.000102
      2          6           0        1.160510   -0.776496    0.000665
      3          6           0        1.912460    0.413617    0.000403
      4          6           0        1.184778    1.619891   -0.000320
      5          6           0       -0.853013    0.540263   -0.000911
      6          1           0       -0.835809   -1.618814   -0.000129
      7          1           0        1.660474   -1.739408    0.001198
      8          1           0        1.699810    2.574547   -0.000648
      9          5           0        3.468149    0.404850    0.000961
     10          8           0        4.119093    0.521513   -1.217286
     11          1           0        5.088240    0.631814   -1.254826
     12          8           0        4.118222    0.521446    1.219681
     13          1           0        5.087081    0.634037    1.257831
     14          1           0       -1.934764    0.634461   -0.001496
     15          7           0       -0.160775    1.697748   -0.000897
 ---------------------------------------------------------------------
                    Distance matrix (angstroms):
                    1          2          3          4          5
     1  C    0.000000
     2  C    1.398352   0.000000
     3  C    2.427553   1.407763   0.000000
     4  C    2.733896   2.396510   1.408765   0.000000
     5  C    1.398947   2.405853   2.768371   2.306120   0.000000
     6  H    1.084023   2.166747   3.418151   3.817327   2.159145
     7  H    2.155670   1.084972   2.167721   3.392813   3.393305
     8  H    3.817571   3.394162   2.171369   1.084724   3.264233
     9  B    3.870365   2.592446   1.555714   2.586524   4.323283
    10  O    4.688610   3.452744   2.522625   3.361197   5.118765
    11  H    5.634057   4.357368   3.421811   4.217475   6.072822
    12  O    4.688459   3.452349   2.522628   3.361558   5.118923
    13  H    5.634210   4.357526   3.421685   4.216968   6.072721
    14  H    2.169447   3.401695   3.853558   3.271486   1.085845
    15  N    2.414452   2.804939   2.438708   1.347804   1.348690
                    6          7          8          9         10
     6  H    0.000000
     7  H    2.499195   0.000000
     8  H    4.900372   4.314136   0.000000
     9  B    4.755973   2.804556   2.799038   0.000000
    10  O    5.532949   3.555457   3.398248   1.386169   0.000000
    11  H    6.460182   4.353145   4.102272   2.062331   0.976126
    12  O    5.532728   3.554812   3.398992   1.386170   2.436967
    13  H    6.460529   4.353620   4.101580   2.062326   2.660050
    14  H    2.506980   4.308248   4.119959   5.407791   6.175766
    15  N    3.384562   3.889858   2.056830   3.852360   4.602217
                   11         12         13         14         15
    11  H    0.000000
    12  O    2.660131   0.000000
    13  H    2.512658   0.976125   0.000000
    14  H    7.133963   6.175977   7.133878   0.000000
    15  N    5.500973   4.602533   5.500534   2.068241   0.000000
 Symmetry turned off by external request.
 Stoichiometry    C5H6BNO2
 Framework group  C1[X(C5H6BNO2)]
 Deg. of freedom    39
 Full point group                 C1      NOp   1
 Rotational constants (GHZ):      3.6830137      1.0237317      0.9543937
 Standard basis: 6-31G (6D, 7F)
    93 basis functions,   222 primitive gaussians,    93 cartesian basis functions
    32 alpha electrons       32 beta electrons
       nuclear repulsion energy       393.0638374851 Hartrees.
 NAtoms=   15 NActive=   15 NUniq=   15 SFac= 1.00D+00 NAtFMM=   60 NAOKFM=F Big=F
 Integral buffers will be    131072 words long.
 Raffenetti 2 integral format.
 Two-electron integral symmetry is turned off.
 Nuclear repulsion after empirical dispersion term =      393.0548197496 Hartrees.
 One-electron integrals computed using PRISM.
 NBasis=    93 RedAO= T EigKep=  1.25D-03  NBF=    93
 NBsUse=    93 1.00D-06 EigRej= -1.00D+00 NBFU=    93
 Initial guess from the checkpoint file:  "E:\PROJECT- VIT group\ML\Substrates\molecule_12.chk"
 B after Tr=     0.005393   -0.013774    0.000124
         Rot=    0.999999   -0.000088   -0.000018    0.001646 Ang=  -0.19 deg.
 ExpMin= 1.27D-01 ExpMax= 5.48D+03 ExpMxC= 8.25D+02 IAcc=1 IRadAn=         1 AccDes= 0.00D+00
 Harris functional with IExCor=  402 and IRadAn=       1 diagonalized for initial guess.
 HarFok:  IExCor=  402 AccDes= 0.00D+00 IRadAn=         1 IDoV= 1 UseB2=F ITyADJ=14
 ICtDFT=  3500011 ScaDFX=  1.000000  1.000000  1.000000  1.000000
 FoFCou: FMM=F IPFlag=           0 FMFlag=      100000 FMFlg1=           0
         NFxFlg=           0 DoJE=T BraDBF=F KetDBF=T FulRan=T
         wScrn=  0.000000 ICntrl=     500 IOpCl=  0 I1Cent=   200000004 NGrid=           0
         NMat0=    1 NMatS0=      1 NMatT0=    0 NMatD0=    1 NMtDS0=    0 NMtDT0=    0
 Symmetry not used in FoFCou.
 Keep R1 ints in memory in canonical form, NReq=10515821.
 Requested convergence on RMS density matrix=1.00D-08 within 128 cycles.
 Requested convergence on MAX density matrix=1.00D-06.
 Requested convergence on             energy=1.00D-06.
 No special actions if energy rises.
 Integral accuracy reduced to 1.0D-05 until final iterations.
 Initial convergence to 1.0D-05 achieved.  Increase integral accuracy.
 SCF Done:  E(RB3LYP) =  -424.172789930     A.U. after   14 cycles
            NFock= 14  Conv=0.45D-08     -V/T= 2.0055
 Calling FoFJK, ICntrl=      2127 FMM=F ISym2X=0 I1Cent= 0 IOpClX= 0 NMat=1 NMatS=1 NMatT=0.
 -------------------------------------------------------------------
 Center     Atomic                   Forces (Hartrees/Bohr)
 Number     Number              X              Y              Z
 -------------------------------------------------------------------
      1        6          -0.000278672    0.000682626   -0.000000635
      2        6          -0.001721290    0.001514985   -0.000024867
      3        6          -0.003475923   -0.008931100    0.000013120
      4        6           0.005152345    0.001515382   -0.000013220
      5        6          -0.003543488   -0.003231940    0.000018096
      6        1          -0.000359782   -0.000313560    0.000002711
      7        1           0.000142988   -0.000525494    0.000006488
      8        1           0.001016889    0.000258684    0.000010098
      9        5           0.001785861    0.020599914    0.000001409
     10        8           0.002754043   -0.004584206   -0.000961888
     11        1          -0.002286487   -0.001269807    0.000015539
     12        8           0.002748783   -0.004542090    0.000964216
     13        1          -0.002279945   -0.001313312   -0.000016768
     14        1           0.000260180   -0.000535068   -0.000000573
     15        7           0.000084498    0.000674987   -0.000013726
 -------------------------------------------------------------------
 Cartesian Forces:  Max     0.020599914 RMS     0.003806099

 GradGradGradGradGradGradGradGradGradGradGradGradGradGradGradGradGradGrad
 Berny optimization.
 Using GEDIIS/GDIIS optimizer.
 FormGI is forming the generalized inverse of G from B-inverse, IUseBI=4.
 Internal  Forces:  Max     0.004689766 RMS     0.001824025
 Search for a local minimum.
 Step number   4 out of a maximum of   74
 All quantities printed in internal units (Hartrees-Bohrs-Radians)
 Mixed Optimization -- RFO/linear search
 Update second derivatives using D2CorX and points    1    2    4    3
 DE=  1.05D-03 DEPred=-9.58D-04 R=-1.10D+00
 Trust test=-1.10D+00 RLast= 3.49D-01 DXMaxT set to 4.24D-01
 ITU= -1  1  1  0
 Use linear search instead of GDIIS.
 Energy rises -- skip Quadratic/GDIIS search.
 Quartic linear search produced a step of -0.69117.
 Iteration  1 RMS(Cart)=  0.04604055 RMS(Int)=  0.00167582
 Iteration  2 RMS(Cart)=  0.00254201 RMS(Int)=  0.00039292
 Iteration  3 RMS(Cart)=  0.00000149 RMS(Int)=  0.00039291
 Iteration  4 RMS(Cart)=  0.00000000 RMS(Int)=  0.00039291
 Variable       Old X    -DE/DX   Delta X   Delta X   Delta X     New X
                                 (Linear)    (Quad)   (Total)
    R1        2.64250   0.00056   0.00201   0.00000   0.00201   2.64452
    R2        2.64363  -0.00117  -0.00262   0.00000  -0.00262   2.64100
    R3        2.04851   0.00046   0.00087   0.00000   0.00087   2.04938
    R4        2.66029   0.00110   0.00089   0.00000   0.00089   2.66118
    R5        2.05030   0.00053   0.00018   0.00000   0.00018   2.05048
    R6        2.66218  -0.00154  -0.00315   0.00000  -0.00315   2.65903
    R7        2.93987   0.00267  -0.00336   0.00000  -0.00336   2.93651
    R8        2.04983   0.00071   0.00112   0.00000   0.00112   2.05096
    R9        2.54698   0.00313   0.00352   0.00000   0.00352   2.55050
   R10        2.05195  -0.00031  -0.00128   0.00000  -0.00128   2.05067
   R11        2.54866   0.00383   0.00309   0.00000   0.00309   2.55175
   R12        2.61948   0.00056  -0.01040   0.00000  -0.01040   2.60908
   R13        2.61948   0.00056  -0.01040   0.00000  -0.01040   2.60908
   R14        1.84461  -0.00241   0.00182   0.00000   0.00182   1.84643
   R15        1.84461  -0.00242   0.00182   0.00000   0.00182   1.84643
    A1        2.07079  -0.00015   0.00044   0.00000   0.00044   2.07123
    A2        2.11295   0.00020   0.00168   0.00000   0.00168   2.11463
    A3        2.09945  -0.00006  -0.00212   0.00000  -0.00212   2.09733
    A4        2.09067   0.00135   0.00113   0.00000   0.00113   2.09180
    A5        2.09332  -0.00079  -0.00031   0.00000  -0.00031   2.09302
    A6        2.09919  -0.00055  -0.00083   0.00000  -0.00083   2.09836
    A7        2.03529   0.00052   0.00327   0.00000   0.00327   2.03856
    A8        2.12866   0.00363  -0.00054   0.00000  -0.00054   2.12812
    A9        2.11924  -0.00415  -0.00273   0.00000  -0.00273   2.11651
   A10        2.10405   0.00013  -0.00274   0.00000  -0.00274   2.10131
   A11        2.17140  -0.00185  -0.00808   0.00000  -0.00809   2.16331
   A12        2.00774   0.00172   0.01083   0.00000   0.01083   2.01857
   A13        2.11402   0.00015  -0.00399   0.00000  -0.00399   2.11003
   A14        2.14624  -0.00135  -0.00545   0.00000  -0.00545   2.14079
   A15        2.02292   0.00120   0.00944   0.00000   0.00944   2.03237
   A16        2.05873   0.00031   0.01074   0.00000   0.01252   2.07125
   A17        2.05873   0.00032   0.01074   0.00000   0.01251   2.07125
   A18        2.14764   0.00073  -0.00937   0.00000  -0.00759   2.14006
   A19        2.10546   0.00008  -0.02759   0.00000  -0.02759   2.07787
   A20        2.10545   0.00008  -0.02758   0.00000  -0.02758   2.07787
   A21        2.05198   0.00148   0.00870   0.00000   0.00870   2.06068
    D1       -0.00017   0.00000   0.00028   0.00000   0.00028   0.00011
    D2       -3.14149   0.00000  -0.00032   0.00000  -0.00032   3.14138
    D3        3.14137   0.00001   0.00026   0.00000   0.00026  -3.14156
    D4        0.00005   0.00000  -0.00034   0.00000  -0.00034  -0.00029
    D5       -3.14156   0.00000   0.00006   0.00000   0.00006  -3.14150
    D6       -0.00008   0.00000   0.00014   0.00000   0.00014   0.00006
    D7        0.00009   0.00000   0.00008   0.00000   0.00008   0.00017
    D8        3.14157   0.00000   0.00016   0.00000   0.00016  -3.14145
    D9        0.00026  -0.00001  -0.00047   0.00000  -0.00047  -0.00021
   D10       -3.14139  -0.00001  -0.00032   0.00000  -0.00032   3.14147
   D11        3.14157   0.00000   0.00013   0.00000   0.00013  -3.14148
   D12       -0.00008   0.00000   0.00027   0.00000   0.00028   0.00020
   D13       -3.14149   0.00000  -0.00006   0.00000  -0.00006  -3.14155
   D14       -0.00012   0.00000   0.00028   0.00000   0.00028   0.00017
   D15        0.00015   0.00000  -0.00020   0.00000  -0.00020  -0.00005
   D16        3.14153   0.00000   0.00014   0.00000   0.00014  -3.14152
   D17        1.66967  -0.00368  -0.08038   0.00000  -0.08014   1.58954
   D18       -1.66873   0.00369   0.07971   0.00000   0.07946  -1.58927
   D19       -1.47198  -0.00368  -0.08023   0.00000  -0.07998  -1.55196
   D20        1.47280   0.00369   0.07986   0.00000   0.07962   1.55242
   D21       -0.00012   0.00000   0.00011   0.00000   0.00011  -0.00001
   D22        3.14127   0.00001   0.00044   0.00000   0.00044  -3.14148
   D23        0.00022  -0.00001  -0.00033   0.00000  -0.00033  -0.00011
   D24       -3.14148   0.00000  -0.00026   0.00000  -0.00026   3.14145
   D25        3.00847   0.00466   0.10204   0.00000   0.10225   3.11072
   D26        0.07443  -0.00306  -0.06634   0.00000  -0.06654   0.00789
   D27       -3.00572  -0.00469  -0.10518   0.00000  -0.10539  -3.11111
   D28       -0.07169   0.00303   0.06320   0.00000   0.06341  -0.00828
         Item               Value     Threshold  Converged?
 Maximum Force            0.004690     0.000450     NO 
 RMS     Force            0.001824     0.000300     NO 
 Maximum Displacement     0.161321     0.001800     NO 
 RMS     Displacement     0.046017     0.001200     NO 
 Predicted change in Energy=-2.568897D-04
 GradGradGradGradGradGradGradGradGradGradGradGradGradGradGradGradGradGrad

                          Input orientation:                          
 ---------------------------------------------------------------------
 Center     Atomic      Atomic             Coordinates (Angstroms)
 Number     Number       Type             X           Y           Z
 ---------------------------------------------------------------------
      1          6           0       -0.221971   -0.714336   -0.000044
      2          6           0        1.177068   -0.746861    0.000444
      3          6           0        1.906220    0.457905    0.000276
      4          6           0        1.160241    1.650984   -0.000657
      5          6           0       -0.863844    0.527102   -0.000827
      6          1           0       -0.804521   -1.629074    0.000100
      7          1           0        1.696302   -1.699626    0.001250
      8          1           0        1.662865    2.612902   -0.000870
      9          5           0        3.460021    0.478222    0.000961
     10          8           0        4.122680    0.509086   -1.209893
     11          1           0        5.098962    0.548333   -1.215645
     12          8           0        4.121606    0.509749    1.212387
     13          1           0        5.097896    0.548669    1.218981
     14          1           0       -1.946923    0.594393   -0.001140
     15          7           0       -0.188657    1.696505   -0.001197
 ---------------------------------------------------------------------
                    Distance matrix (angstroms):
                    1          2          3          4          5
     1  C    0.000000
     2  C    1.399418   0.000000
     3  C    2.429681   1.408234   0.000000
     4  C    2.739572   2.397904   1.407098   0.000000
     5  C    1.397559   2.405890   2.770929   2.315174   0.000000
     6  H    1.084486   2.169100   3.421052   3.823489   2.156992
     7  H    2.156518   1.085065   2.167720   3.393222   3.393033
     8  H    3.824019   3.394702   2.168693   1.085319   3.276404
     9  B    3.870306   2.590888   1.553934   2.581543   4.324142
    10  O    4.672953   3.423294   2.525831   3.397386   5.131042
    11  H    5.602173   4.305537   3.417637   4.266797   6.085334
    12  O    4.672798   3.423182   2.525834   3.397584   5.130975
    13  H    5.601981   4.305359   3.417641   4.267053   6.085289
    14  H    2.165232   3.399748   3.855559   3.281897   1.085166
    15  N    2.411072   2.799151   2.433648   1.349666   1.350326
                    6          7          8          9         10
     6  H    0.000000
     7  H    2.501818   0.000000
     8  H    4.907377   4.312658   0.000000
     9  B    4.756786   2.802451   2.790453   0.000000
    10  O    5.505735   3.497512   3.455208   1.380665   0.000000
    11  H    6.408607   4.255849   4.188661   2.042345   0.977087
    12  O    5.505536   3.497183   3.455524   1.380667   2.422280
    13  H    6.408335   4.255413   4.189096   2.042344   2.617640
    14  H    2.499778   4.305301   4.135813   5.408192   6.189381
    15  N    3.382124   3.884171   2.065894   3.846697   4.632336
                   11         12         13         14         15
    11  H    0.000000
    12  O    2.617642   0.000000
    13  H    2.434626   0.977087   0.000000
    14  H    7.149939   6.189253   7.149843   0.000000
    15  N    5.545457   4.632445   5.545630   2.075126   0.000000
 Symmetry turned off by external request.
 Stoichiometry    C5H6BNO2
 Framework group  C1[X(C5H6BNO2)]
 Deg. of freedom    39
 Full point group                 C1      NOp   1
 Rotational constants (GHZ):      3.7109275      1.0214622      0.9515272
 Standard basis: 6-31G (6D, 7F)
    93 basis functions,   222 primitive gaussians,    93 cartesian basis functions
    32 alpha electrons       32 beta electrons
       nuclear repulsion energy       393.1870119303 Hartrees.
 NAtoms=   15 NActive=   15 NUniq=   15 SFac= 1.00D+00 NAtFMM=   60 NAOKFM=F Big=F
 Integral buffers will be    131072 words long.
 Raffenetti 2 integral format.
 Two-electron integral symmetry is turned off.
 Nuclear repulsion after empirical dispersion term =      393.1779835273 Hartrees.
 One-electron integrals computed using PRISM.
 NBasis=    93 RedAO= T EigKep=  1.24D-03  NBF=    93
 NBsUse=    93 1.00D-06 EigRej= -1.00D+00 NBFU=    93
 Lowest energy guess from the checkpoint file:  "E:\PROJECT- VIT group\ML\Substrates\molecule_12.chk"
 B after Tr=     0.001469   -0.004230    0.000036
         Rot=    1.000000   -0.000028   -0.000006    0.000486 Ang=  -0.06 deg.
 B after Tr=    -0.003961    0.009551   -0.000090
         Rot=    0.999999    0.000060    0.000013   -0.001157 Ang=   0.13 deg.
 Keep R1 ints in memory in canonical form, NReq=10515821.
 Requested convergence on RMS density matrix=1.00D-08 within 128 cycles.
 Requested convergence on MAX density matrix=1.00D-06.
 Requested convergence on             energy=1.00D-06.
 No special actions if energy rises.
 Integral accuracy reduced to 1.0D-05 until final iterations.
 Initial convergence to 1.0D-05 achieved.  Increase integral accuracy.
 SCF Done:  E(RB3LYP) =  -424.174103447     A.U. after   10 cycles
            NFock= 10  Conv=0.77D-08     -V/T= 2.0055
 Calling FoFJK, ICntrl=      2127 FMM=F ISym2X=0 I1Cent= 0 IOpClX= 0 NMat=1 NMatS=1 NMatT=0.
 -------------------------------------------------------------------
 Center     Atomic                   Forces (Hartrees/Bohr)
 Number     Number              X              Y              Z
 -------------------------------------------------------------------
      1        6           0.001068506   -0.000508458   -0.000011148
      2        6          -0.001375677    0.001142889    0.000028742
      3        6          -0.002374319   -0.003119587   -0.000016070
      4        6           0.000565832   -0.001061022    0.000009064
      5        6           0.000152548   -0.001310202   -0.000002543
      6        1           0.000190123   -0.000321847    0.000004955
      7        1           0.000166305   -0.000429775   -0.000009877
      8        1          -0.000444604    0.000438146   -0.000004615
      9        5          -0.002059761    0.003794270   -0.000001147
     10        8           0.005096331   -0.000717393   -0.003774901
     11        1          -0.002533106   -0.000282501   -0.002063589
     12        8           0.005093527   -0.000724352    0.003779535
     13        1          -0.002535302   -0.000275397    0.002061373
     14        1          -0.000012141    0.000684012   -0.000004402
     15        7          -0.000998263    0.002691215    0.000004623
[...]
 ! R14   R(10,11)                0.9712         -DE/DX =    0.0                 !
 ! R15   R(12,13)                0.9714         -DE/DX =    0.0                 !
 ! A1    A(2,1,5)              118.5785         -DE/DX =    0.0                 !
 ! A2    A(2,1,6)              121.2111         -DE/DX =    0.0                 !
 ! A3    A(5,1,6)              120.2104         -DE/DX =    0.0                 !
 ! A4    A(1,2,3)              119.6541         -DE/DX =    0.0                 !
 ! A5    A(1,2,7)              121.0189         -DE/DX =    0.0                 !
 ! A6    A(3,2,7)              119.327          -DE/DX =    0.0                 !
 ! A7    A(2,3,4)              117.1762         -DE/DX =    0.0                 !
 ! A8    A(2,3,9)              121.5727         -DE/DX =    0.0                 !
 ! A9    A(4,3,9)              121.2511         -DE/DX =    0.0                 !
 ! A10   A(3,4,8)              119.924          -DE/DX =    0.0                 !
 ! A11   A(3,4,15)             123.9337         -DE/DX =    0.0                 !
 ! A12   A(8,4,15)             116.1422         -DE/DX =    0.0                 !
 ! A13   A(1,5,14)             120.9343         -DE/DX =    0.0                 !
 ! A14   A(1,5,15)             123.1394         -DE/DX =    0.0                 !
 ! A15   A(14,5,15)            115.9263         -DE/DX =    0.0                 !
 ! A16   A(3,9,10)             118.3012         -DE/DX =    0.0                 !
 ! A17   A(3,9,12)             117.9249         -DE/DX =    0.0                 !
 ! A18   A(10,9,12)            123.7739         -DE/DX =    0.0                 !
 ! A19   A(9,10,11)            121.3242         -DE/DX =    0.0                 !
 ! A20   A(9,12,13)            121.0761         -DE/DX =    0.0                 !
 ! A21   A(4,15,5)             117.5182         -DE/DX =    0.0                 !
 ! D1    D(5,1,2,3)              0.007          -DE/DX =    0.0                 !
 ! D2    D(5,1,2,7)           -179.996          -DE/DX =    0.0                 !
 ! D3    D(6,1,2,3)           -179.9966         -DE/DX =    0.0                 !
 ! D4    D(6,1,2,7)              0.0004         -DE/DX =    0.0                 !
 ! D5    D(2,1,5,14)           179.999          -DE/DX =    0.0                 !
 ! D6    D(2,1,5,15)            -0.0045         -DE/DX =    0.0                 !
 ! D7    D(6,1,5,14)             0.0025         -DE/DX =    0.0                 !
 ! D8    D(6,1,5,15)           179.9991         -DE/DX =    0.0                 !
 ! D9    D(1,2,3,4)             -0.0016         -DE/DX =    0.0                 !
 ! D10   D(1,2,3,9)            179.9865         -DE/DX =    0.0                 !
 ! D11   D(7,2,3,4)           -179.9987         -DE/DX =    0.0                 !
 ! D12   D(7,2,3,9)             -0.0106         -DE/DX =    0.0                 !
 ! D13   D(2,3,4,8)            180.0021         -DE/DX =    0.0                 !
 ! D14   D(2,3,4,15)            -0.0071         -DE/DX =    0.0                 !
 ! D15   D(9,3,4,8)              0.014          -DE/DX =    0.0                 !
 ! D16   D(9,3,4,15)           180.0048         -DE/DX =    0.0                 !
 ! D17   D(2,3,9,10)          -179.9328         -DE/DX =    0.0                 !
 ! D18   D(2,3,9,12)             0.068          -DE/DX =    0.0                 !
 ! D19   D(4,3,9,10)             0.0548         -DE/DX =    0.0                 !
 ! D20   D(4,3,9,12)          -179.9445         -DE/DX =    0.0                 !
 ! D21   D(3,4,15,5)             0.0097         -DE/DX =    0.0                 !
 ! D22   D(8,4,15,5)          -179.9992         -DE/DX =    0.0                 !
 ! D23   D(1,5,15,4)            -0.0037         -DE/DX =    0.0                 !
 ! D24   D(14,5,15,4)          179.993          -DE/DX =    0.0                 !
 ! D25   D(3,9,10,11)          179.946          -DE/DX =    0.0                 !
 ! D26   D(12,9,10,11)          -0.0547         -DE/DX =    0.0                 !
 ! D27   D(3,9,12,13)          179.9649         -DE/DX =    0.0                 !
 ! D28   D(10,9,12,13)          -0.0343         -DE/DX =    0.0                 !
 --------------------------------------------------------------------------------
 GradGradGradGradGradGradGradGradGradGradGradGradGradGradGradGradGradGrad

 1|1|UNPC-LAPTOP-H4OM2LBP|Freq|RB3LYP|6-31G|C5H6B1N1O2|SREEKALA P NAIR|
 13-Sep-2023|0||#N Geom=AllCheck Guess=TCheck SCRF=Check GenChk RB3LYP/
 6-31G Freq||molecule_9||0,1|C,-0.2141489009,-0.6445408958,0.3643219618
 |C,1.1822686524,-0.6570236396,0.4140656706|C,1.9058865437,0.4636012196
 ,-0.0388727644|C,1.1618421186,1.5557180031,-0.5264497497|C,-0.85600348
 51,0.4926678554,-0.1392795766|H,-0.7964301619,-1.4934660848,0.70641737
 27|H,1.7203541606,-1.5177371066,0.7968171063|H,1.6736198939,2.44137520
 66,-0.88636963|B,3.4547200196,0.4976427204,-0.0037002239|O,4.098277396
 8,1.6367114846,-0.4654831984|H,5.0670829328,1.7054776388,-0.462738177|
 O,4.1189182177,-0.6180765762,0.4900473987|H,5.089037199,-0.6461321063,
 0.5324343592|H,-1.9389082575,0.5434194963,-0.1953240444|N,-0.188571259
 8,1.5843161644,-0.5817604448||Version=EM64W-G09RevD.01|HF=-424.1853748
 |RMSD=1.298e-009|RMSF=7.230e-006|ZeroPoint=0.1132316|Thermal=0.1209169
 |Dipole=1.6439318,-0.7349403,0.3651513|DipoleDeriv=-0.2666409,0.156458
 1,-0.0720868,0.2445284,-0.0038089,-0.0292697,-0.1094125,-0.0320654,-0.
 0808686,0.2166669,-0.0908774,0.0483041,0.0771573,0.1224849,-0.0864751,
 -0.0230568,-0.0918463,-0.0486802,-0.6995539,0.0020921,-0.020248,-0.070
 3514,-0.3369858,0.0998586,0.010727,0.1021958,-0.1393789,0.2565322,0.08
 71402,-0.0288483,0.0186643,0.3136212,-0.1314547,-0.00001,-0.1292927,0.
 0576985,0.4403839,0.001698,0.0131318,-0.0916671,0.1599776,-0.068392,0.
 0527774,-0.0653991,0.0354452,0.0038613,-0.0820951,0.0309348,-0.0964833
 ,-0.0313232,0.0643969,0.0370151,0.0648427,0.1011172,0.0792507,0.054608
 8,-0.0243238,0.051937,-0.0059096,0.052611,-0.0231743,0.0526808,0.09089
 48,0.0590025,-0.0639464,0.0258613,-0.0645975,-0.0196883,0.0490191,0.02
 61872,0.0490662,0.0805062,1.9988486,0.033855,0.0328852,0.0193145,1.311
 2071,-0.333344,0.0390301,-0.3333443,0.6637737,-0.7708982,-0.3123612,0.
 1275504,-0.4807311,-0.988647,0.1420536,0.1990282,0.1477459,-0.6722259,
 0.0753834,0.0218901,-0.0205448,0.1180721,0.3922913,0.0163411,-0.061392
 3,0.0131386,0.4139999,-0.7793903,0.2938711,-0.1296962,0.4779378,-0.951
 9052,0.1564342,-0.2079019,0.1508584,-0.6883384,0.0685746,-0.0354407,0.
 0038733,-0.1297077,0.3815845,0.0125203,0.0438342,0.0155112,0.4155996,-
 0.1468296,-0.0039871,-0.0061292,-0.0108022,0.0754666,0.0093872,-0.0032
 029,0.0096074,0.0941706,-0.5351911,-0.0629056,0.0193362,-0.0632711,-0.
 418365,0.0463135,0.0195516,0.0463006,-0.3237135|Polar=102.7345844,3.68
 95942,69.1494793,0.8594299,-17.8784645,34.3753226|PG=C01 [X(C5H6B1N1O2
 )]|NImag=0||0.70418816,0.04926345,0.64271381,-0.00287540,-0.21327344,0
 .22775536,-0.34698643,-0.02663861,0.00245543,0.70395159,0.02964196,-0.
 12473584,0.02479031,-0.03814317,0.63685285,-0.02140716,0.02298988,-0.0
 7915300,0.03361570,-0.20563221,0.24420260,-0.02882526,-0.03107018,0.01
 191824,-0.17759909,-0.10004688,0.03913864,0.65641996,-0.06111286,0.029
 29912,-0.00949454,-0.05835789,-0.24229836,0.07088246,0.01091155,0.5763
 7911,0.02466395,-0.00851153,0.01596023,0.02143880,0.06955639,-0.099934
 73,0.01182193,-0.18419387,0.22047241,-0.05378931,0.03649074,-0.0168744
 2,0.07132597,0.01811491,-0.00573699,-0.17285229,0.04345106,-0.02152410
 ,0.67220401,0.02217747,-0.01676913,0.00332922,-0.01576197,-0.05193657,
 0.02524961,0.08786857,-0.23421769,0.06913059,0.06668074,0.65279383,-0.
 01077605,0.00378201,-0.01253764,0.00870048,0.02634709,-0.00220810,-0.0
 4036801,0.06769621,-0.10817795,-0.01230663,-0.20260995,0.25654833,-0.1
 8466452,0.10376020,-0.04765071,-0.02464690,0.03581270,-0.01625834,0.00
 147926,-0.00646241,0.00315437,-0.06225087,-0.04412615,0.01661358,0.777
 20698,0.04230458,-0.24773118,0.07541927,0.07523167,0.03174446,-0.00749
 777,0.00759178,-0.05999845,0.02104873,-0.08193691,0.01422568,-0.006632
 43,-0.00683813,0.56565773,-0.02155931,0.07738109,-0.10706945,-0.033011
 27,-0.00875347,0.01110534,-0.00284281,0.02061729,-0.01983618,0.0327121
 0,-0.00543548,0.00809929,0.02241499,-0.17095008,0.23726603,-0.14154652
 ,-0.11903511,0.04730478,-0.01221543,-0.02793806,0.01137611,-0.00526444
 ,0.00138418,-0.00102408,-0.00121126,0.00105029,-0.00047772,0.01193057,
 0.01449116,-0.00581827,0.14722656,-0.11911516,-0.23193370,0.07834603,0
 .00404271,0.00469012,-0.00048999,0.00074652,0.00289011,0.00238841,0.00
 189730,0.00033531,-0.00016978,-0.01896851,-0.01481207,0.00627873,0.127
 91422,0.24095409,0.04733416,0.07833093,-0.07039653,-0.00220287,-0.0015
 0664,0.00380771,-0.00075509,0.00240785,0.00740808,-0.00083856,-0.00019
 767,-0.00014927,0.00839482,0.00736023,-0.00146256,-0.05051833,-0.08698
 074,0.06199390,-0.01074287,0.02717191,-0.01208841,-0.13093254,0.112844
 55,-0.05066417,0.01188284,-0.01504854,0.00663565,-0.00169496,-0.003668
 63,0.00121827,-0.00556808,-0.00168247,0.00024395,0.00082200,-0.0003871
 1,0.00032868,0.13644224,-0.00396706,0.00503879,0.00043426,0.11134890,-
 0.23757763,0.08530914,0.01375443,-0.01640191,0.00918520,-0.00425382,-0
 .00071898,0.00398216,-0.00120779,0.00293146,0.00263946,0.00056935,0.00
 006952,-0.00181645,-0.11818154,0.24893417,0.00113977,0.00142399,0.0057
 8929,-0.05002314,0.08534391,-0.08298170,-0.00560901,0.00825490,0.00048
 111,0.00146664,0.00399928,0.00732164,0.00004266,0.00262662,0.00812181,
 -0.00008044,-0.00184743,-0.00346689,0.05361197,-0.09723519,0.07199346,
 -0.00049256,-0.00013483,0.00006497,-0.00204585,0.00303786,-0.00158922,
 0.01074234,0.01554747,-0.00648480,-0.11090460,-0.10521919,0.04261157,-
 0.00390382,-0.00006419,-0.00044362,0.00017301,-0.00020476,0.00016012,0
 .00052376,0.00083380,-0.00033252,0.13308883,0.00060321,0.00034852,-0.0
 0043303,0.00342025,-0.00092655,0.00362064,-0.01246645,-0.01480842,0.00
 878178,-0.10532289,-0.25454681,0.08540579,0.00221963,0.00383719,0.0030
 3857,-0.00007220,-0.00037774,-0.00074183,-0.00074577,-0.00087679,0.000
 28466,0.11353787,0.26239633,-0.00024925,-0.00045677,-0.00053149,-0.001
 75131,0.00360709,0.00574946,0.00542338,0.00965012,0.00282948,0.0426654
 3,0.08540483,-0.08056407,-0.00141393,0.00296848,0.00952132,0.00010371,
 -0.00074601,-0.00179846,0.00033838,0.00033509,-0.00028328,-0.04490087,
 -0.09568440,0.06794233,0.00369043,-0.00272078,0.00104426,-0.01593841,-
 0.00921073,0.00334123,-0.21885826,-0.00345361,-0.00360867,-0.01646044,
 0.00892072,-0.00432077,0.00064446,-0.00034779,0.00016721,0.00080874,0.
 00072555,-0.00029722,0.00037437,0.00116894,-0.00038575,0.00009915,-0.0
 0087164,0.00043946,0.55509565,-0.00403856,-0.00240789,0.00392890,-0.02
 198266,0.00512578,-0.00206358,-0.00236002,-0.06928392,0.00343955,0.021
 33848,0.00894408,-0.00301259,-0.00064166,-0.00361755,0.00151678,-0.001
 13821,0.00009817,0.00012274,-0.00201306,-0.00285645,-0.00012710,0.0019
 0431,-0.00300428,0.00053136,0.00721932,0.50302221,0.00160709,0.0039689
 6,0.00550881,0.00876864,-0.00165460,0.00289621,-0.00406436,0.00341446,
 -0.06256502,-0.00959490,-0.00340262,0.00138969,0.00029284,0.00152916,-
 0.00063794,0.00049422,0.00018162,0.00041023,0.00097020,-0.00001906,-0.
 00295613,-0.00074881,0.00043190,-0.00212694,0.01040438,-0.15547288,0.2
 0148810,-0.00177117,-0.00026087,0.00007002,-0.00287142,0.00353877,-0.0
 0163232,-0.01757765,-0.02548106,0.01006077,-0.00129695,-0.00197317,0.0
 0076781,-0.00015766,-0.00092561,0.00039299,-0.00058966,-0.00015832,0.0
 0005217,0.00020592,-0.00008902,0.00004141,-0.00093373,-0.00048452,0.00
 017917,-0.13657791,-0.12250873,0.04879701,0.63034313,-0.00071640,0.000
 79641,-0.00053458,0.00069721,0.00196648,-0.00032518,-0.01014326,-0.002
 11953,0.00295938,0.00071807,-0.00543329,0.00266278,0.00002052,-0.00002
 376,-0.00004718,-0.00020093,-0.00010987,-0.00000901,0.00073757,0.00063
 221,-0.00022433,0.00013101,0.00085403,-0.00050826,-0.07322592,-0.21603
 512,0.07120051,0.15801436,0.28433057,0.00025979,-0.00052222,-0.0001822
 1,-0.00042792,-0.00022902,0.00123826,0.00355498,0.00248604,0.00475251,
 -0.00037161,0.00257126,-0.00032424,-0.00000904,-0.00007784,-0.00010344
 ,0.00006956,-0.00000787,-0.00011064,-0.00030734,-0.00024755,0.00014928
 ,-0.00005662,-0.00055429,-0.00019554,0.02789839,0.06957169,-0.07095061
 ,-0.04718024,-0.10298465,0.07120497,-0.00003368,-0.00054785,0.00024904
 ,-0.00128751,0.00072137,-0.00036035,0.00242084,-0.00394807,0.00158819,
 0.00086256,0.00016214,-0.00002602,0.00011802,-0.00005754,0.00002578,-0
 .00012601,0.00001724,-0.00000986,-0.00000462,-0.00009972,0.00003437,0.
 00019038,-0.00019424,0.00008836,-0.01977219,0.01356387,-0.00639400,-0.
 48391544,-0.06135253,0.01041782,0.49743444,0.00012257,-0.00037163,-0.0
 0005965,-0.00069012,0.00026232,0.00002281,0.00086998,-0.00176299,0.002
 87024,0.00029670,-0.00006898,-0.00013649,0.00005956,0.00008827,-0.0000
 0651,-0.00002620,0.00001826,-0.00002599,-0.00008825,-0.00002798,0.0001
 0946,-0.00024690,0.00042543,-0.00019402,-0.03531456,-0.00581710,0.0014
 0710,-0.01931528,-0.02526807,0.00564900,0.05027884,0.03239859,-0.00003
 608,-0.00008250,-0.00048942,0.00023838,0.00006836,0.00034573,-0.000450
 50,0.00271881,0.00378897,-0.00008352,-0.00013909,-0.00035832,-0.000023
 17,-0.00000987,0.00007183,0.00000834,-0.00002458,-0.00003031,0.0000298
 5,0.00010921,0.00019165,0.00010943,-0.00019214,0.00007246,0.01433704,0
 .00302887,-0.00057016,-0.00740903,0.00426070,-0.01252655,-0.00521170,-
 0.00859430,0.01172262,0.00030902,0.00077069,-0.00029978,-0.00154659,0.
 00207144,-0.00094494,-0.01905112,0.02473404,-0.01128295,-0.00238963,-0
 .00451124,0.00180180,0.00020473,0.00112056,-0.00046654,-0.00024564,-0.
 00022206,0.00008859,-0.00091145,0.00041681,-0.00017612,0.00021482,0.00
 016125,-0.00005736,-0.13884804,0.11973455,-0.05373818,0.01192177,-0.01
 114314,0.00442381,0.00360603,0.00217916,-0.00068751,0.63438977,0.00069
 527,0.00041783,-0.00041840,-0.00136205,-0.00460793,0.00223501,0.009449
 75,-0.00083505,0.00319752,-0.00139766,0.00168642,-0.00024057,-0.000235
 87,-0.00032317,0.00008545,0.00035822,0.00014951,-0.00007648,-0.0001027
 9,0.00082206,-0.00050399,-0.00066052,0.00062400,-0.00033569,0.07061218
 ,-0.20661275,0.07170398,0.01207301,-0.04307545,0.02765269,0.00286591,0
 .00289452,-0.00284542,-0.13533630,0.27137908,-0.00026509,-0.00041608,-
 0.00045168,0.00049613,0.00234259,-0.00022210,-0.00480239,0.00371470,0.
 00434682,0.00047756,-0.00033719,0.00138765,0.00010984,0.00012905,-0.00
 015591,-0.00015804,-0.00009496,-0.00002249,0.00002790,-0.00052579,-0.0
 0025104,0.00029045,-0.00030696,0.00002729,-0.03293660,0.07326218,-0.07
 465190,-0.00541366,0.02690197,0.00974179,-0.00096167,-0.00284053,-0.00
 283546,0.07635695,-0.10672370,0.07711756,0.00007167,-0.00005558,0.0000
 2999,0.00074500,0.00001923,0.00002774,0.00193508,0.00414422,-0.0018527
 9,-0.00116044,-0.00118179,0.00044940,0.00022813,0.00011091,-0.00004016
 ,-0.00002600,-0.00001363,0.00000440,0.00031752,0.00014023,-0.00005143,
 -0.00004284,0.00013270,-0.00006125,-0.02023547,-0.01406457,0.00530086,
 0.00371629,-0.00269269,0.00138126,0.00076376,0.00157400,-0.00068513,-0
 .48433235,0.04118006,-0.03233521,0.49841760,-0.00003699,0.00016557,-0.
 00012282,-0.00044486,0.00001255,-0.00019587,-0.00081689,-0.00181776,0.
 00285774,0.00066913,0.00040692,0.00006890,-0.00007160,-0.00000161,0.00
 000220,-0.00006200,-0.00002552,0.00001632,0.00032409,0.00044553,-0.000
 16993,0.00005971,-0.00006208,0.00007226,0.03476500,-0.00470126,0.00326
 596,-0.00207685,0.00264468,-0.00286532,-0.00152155,-0.00284197,0.00173
 577,-0.00058342,-0.02333479,0.00533624,-0.02998606,0.02939950,0.000022
 32,-0.00012387,-0.00006825,0.00022489,-0.00018009,-0.00033232,0.000246
 12,0.00301674,0.00371541,-0.00033680,0.00001159,0.00050502,0.00003722,
 0.00000831,0.00000640,0.00002490,0.00001784,0.00001082,-0.00012545,-0.
 00017502,0.00009206,-0.00002994,0.00007418,0.00007047,-0.01537088,0.00
 172350,-0.00083785,0.00113323,-0.00289494,-0.00271771,0.00061574,0.001
 82625,0.00062304,-0.01466057,0.00666916,-0.01392211,0.02812370,-0.0099
 0121,0.01333222,-0.00926765,-0.00316904,0.00080282,0.00090551,0.002291
 22,-0.00118372,0.00034487,0.00002475,0.00005282,0.00206893,-0.00108148
 ,0.00018672,-0.33660667,0.02363220,-0.01935917,0.00041278,0.00083545,-
 0.00024237,-0.00055372,-0.00016381,0.00007053,-0.00051912,0.00002540,-
 0.00004660,0.00044379,0.00013463,0.00001781,-0.00022633,-0.00013601,0.
 00004665,-0.00002483,0.00004830,-0.00002266,-0.00026026,0.00012436,-0.
 00006795,-0.00003362,-0.00004099,0.00001263,0.35937968,0.02729054,0.00
 353068,0.00268249,0.00158559,-0.00321735,0.00460429,-0.00079621,-0.000
 61483,-0.00045130,-0.00323478,-0.00120094,0.00491909,0.02482652,-0.056
 27006,0.00620416,-0.00046527,-0.00012286,-0.00129244,0.00124242,-0.000
 03866,-0.00019293,-0.00091070,0.00016971,0.00015651,0.00015971,-0.0003
 8642,-0.00064290,-0.00006260,0.00008538,0.00001113,-0.00000204,0.00002
 471,0.00000750,-0.00004773,0.00018445,0.00001345,-0.00000907,0.0000330
 1,0.00003482,-0.01483687,0.06218570,-0.01214376,0.00171791,0.00668690,
 -0.00088334,0.00462577,0.00550749,0.00039897,-0.00042270,-0.00142525,0
 .00110412,0.00498619,0.00853917,-0.01985992,0.00616264,-0.04678736,0.0
 0031183,-0.00125244,-0.00259201,-0.00052691,-0.00023783,-0.00050147,0.
 00035137,0.00018669,0.00053997,0.00000797,-0.00064296,-0.00163792,0.00
 001510,0.00000841,0.00011306,-0.00000127,0.00000898,0.00003863,0.00000
 573,0.00001862,0.00021158,-0.00000084,0.00003364,0.00010131,0.01687477
 ,-0.01540406,0.03413172,0.06986067,-0.03382414,0.01584917,-0.06085791,
 -0.03275516,0.01227779,-0.04519709,0.07366716,-0.03363908,-0.32245073,
 -0.00933632,-0.00407442,-0.17401364,-0.07263023,0.02758414,-0.00014868
 ,0.00289055,-0.00149863,-0.00016042,-0.00026970,0.00025107,-0.02618977
 ,0.00005740,-0.00075730,0.00553411,0.00485231,-0.00211280,-0.00026921,
 -0.00070786,0.00030052,-0.00023175,0.00025217,-0.00011373,-0.00306107,
 0.00173645,-0.00081824,-0.00036433,-0.00017673,0.00008288,-0.01606338,
 -0.03473950,0.01434616,0.57361323,0.01688798,-0.05836135,0.03540598,-0
 .03294501,-0.01535432,0.00129077,0.02650730,0.03559057,-0.00225883,0.0
 0648893,-0.11349985,0.01793777,-0.08814702,-0.23570695,0.06742901,0.00
 317056,-0.00182334,0.00440917,-0.00040238,-0.00037535,-0.00174192,-0.0
 2761094,0.00594746,-0.00480059,0.00157360,-0.00246752,0.00408841,-0.00
 029010,0.00075533,-0.00045304,0.00011417,0.00004664,-0.00004132,0.0006
 5538,0.00063131,-0.00045496,0.00070203,-0.00032277,-0.00010728,-0.0076
 8810,-0.00436251,0.00021116,0.10098359,0.38930263,-0.00571497,0.033791
 65,0.00917908,0.01236138,0.00127451,-0.01002085,-0.01361010,-0.0007484
 8,0.02818411,-0.01075829,0.01743944,-0.07947121,0.03415480,0.06791549,
 -0.09813918,-0.00161657,0.00440116,0.00639843,0.00030743,-0.00173762,-
 0.00369977,0.01099849,-0.00391156,-0.00125298,-0.00072006,0.00419355,0
 .00524144,0.00012557,-0.00046564,-0.00008894,-0.00005442,-0.00003634,-
 0.00004470,-0.00036292,-0.00041819,-0.00032001,-0.00029052,-0.00013388
 ,-0.00057849,0.00285771,-0.00064979,-0.00292582,-0.02767753,-0.1209143
 3,0.14753888||-0.00001128,0.00000842,0.00000313,0.00001432,0.00000375,
 -0.00000322,0.00000688,-0.00001847,-0.00000233,-0.00001265,0.00001000,
 -0.00000468,-0.00000653,-0.00001481,0.00001142,0.00000222,0.00000124,0
 .00000163,-0.00000210,0.00000060,0.00000417,0.00000393,-0.00000157,-0.
 00000550,-0.00000385,0.00001342,0.00000821,0.00000462,-0.00001098,-0.0
 0000381,-0.00000086,0.00000022,-0.00000385,-0.00000714,-0.00000704,-0.
 00000085,0.00000600,0.00000243,-0.00000187,-0.00000202,0.00000347,0.00
 000095,0.00000845,0.00000932,-0.00000340|||@


 NEVER LOSE YOUR IGNORANCE, IT CAN'T BE REPLACED.
   -- ANDY CAPP
 Job cpu time:       0 days  0 hours  1 minutes 36.0 seconds.
 File lengths (MBytes):  RWF=     23 Int=      0 D2E=      0 Chk=      2 Scr=      1
 Normal termination of Gaussian 09 at Wed Sep 13 15:50:50 2023.
