 Entering Gaussian System, Link 0=C:\G09W\g09.exe
 Input=C:\Users\123\Desktop\ML project\molecule_2.gjf
 Output=C:\Users\123\Desktop\ML project\molecule_2.log
 Initial command:
 C:/G09W\l1.exe ".\Gau-8368.inp" "C:\Users\123\Desktop\ML project\molecule_2.log" /scrdir=".\"
 Entering Link 1 = C:/G09W\l1.exe PID=      4424.
  
 Copyright (c) 1988,1990,1992,1993,1995,1998,2003,2009,2013,
            Gaussian, Inc.  All Rights Reserved.
  
 This is part of the Gaussian(R) 09 program.  It is based on
 the Gaussian(R) 03 system (copyright 2003, Gaussian, Inc.),
 the Gaussian(R) 98 system (copyright 1998, Gaussian, Inc.),
 the Gaussian(R) 94 system (copyright 1995, Gaussian, Inc.),
 the Gaussian 92(TM) system (copyright 1992, Gaussian, Inc.),
 the Gaussian 90(TM) system (copyright 1990, Gaussian, Inc.),
 the Gaussian 88(TM) system (copyright 1988, Gaussian, Inc.),
 the Gaussian 86(TM) system (copyright 1986, Carnegie Mellon
 University), and the Gaussian 82(TM) system (copyright 1983,
 Carnegie Mellon University). Gaussian is a federally registered
 trademark of Gaussian, Inc.
  
 This software contains proprietary and confidential information,
 including trade secrets, belonging to Gaussian, Inc.
  
 This software is provided under written license and may be
 used, copied, transmitted, or stored only in accord with that
 written license.
  
 The following legend is applicable only to US Government
 contracts under FAR:
  
                    RESTRICTED RIGHTS LEGEND
  
 Use, reproduction and disclosure by the US Government is
 subject to restrictions as set forth in subparagraphs (a)
 and (c) of the Commercial Computer Software - Restricted
 Rights clause in FAR 52.227-19.
  
 Gaussian, Inc.
 340 Quinnipiac St., Bldg. 40, Wallingford CT 06492
  
  
 ---------------------------------------------------------------
 Warning -- This program may not be used in any manner that
 competes with the business of Gaussian, Inc. or will provide
 assistance to any competitor of Gaussian, Inc.  The licensee
 of this program is prohibited from giving any competitor of
 Gaussian, Inc. access to this program.  By using this program,
 the user acknowledges that Gaussian, Inc. is engaged in the
 business of creating and licensing software in the field of
 computational chemistry and represents and warrants to the
 licensee that it is not a competitor of Gaussian, Inc. and that
 it will not use this program in any manner prohibited above.
 ---------------------------------------------------------------
  

 Cite this work as:
 Gaussian 09, Revision D.01,
 M. J. Frisch, G. W. Trucks, H. B. Schlegel, G. E. Scuseria, 
 M. A. Robb, J. R. Cheeseman, G. Scalmani, V. Barone, B. Mennucci, 
 G. A. Petersson, H. Nakatsuji, M. Caricato, X. Li, H. P. Hratchian, 
 A. F. Izmaylov, J. Bloino, G. Zheng, J. L. Sonnenberg, M. Hada, 
 M. Ehara, K. Toyota, R. Fukuda, J. Hasegawa, M. Ishida, T. Nakajima, 
 Y. Honda, O. Kitao, H. Nakai, T. Vreven, J. A. Montgomery, Jr., 
 J. E. Peralta, F. Ogliaro, M. Bearpark, J. J. Heyd, E. Brothers, 
 K. N. Kudin, V. N. Staroverov, T. Keith, R. Kobayashi, J. Normand, 
 K. Raghavachari, A. Rendell, J. C. Burant, S. S. Iyengar, J. Tomasi, 
 M. Cossi, N. Rega, J. M. Millam, M. Klene, J. E. Knox, J. B. Cross, 
 V. Bakken, C. Adamo, J. Jaramillo, R. Gomperts, R. E. Stratmann, 
 O. Yazyev, A. J. Austin, R. Cammi, C. Pomelli, J. W. Ochterski, 
 R. L. Martin, K. Morokuma, V. G. Zakrzewski, G. A. Voth, 
 P. Salvador, J. J. Dannenberg, S. Dapprich, A. D. Daniels, 
 O. Farkas, J. B. Foresman, J. V. Ortiz, J. Cioslowski, 
 and D. J. Fox, Gaussian, Inc., Wallingford CT, 2013.
 
 ******************************************
 Gaussian 09:  EM64W-G09RevD.01 13-Apr-2013
                24-Aug-2023 
 ******************************************
 %nprocshared=2
 Will use up to    2 processors via shared memory.
 %mem=4GB
 %chk=C:\Users\123\Desktop\ML project\molecule_2.chk
 --------------------------------------------------------------------
 # opt freq b3lyp/6-31+g(d) geom=connectivity empiricaldispersion=gd3
 --------------------------------------------------------------------
 1/14=-1,18=20,19=15,26=3,38=1,57=2/1,3;
 2/9=110,12=2,17=6,18=5,40=1/2;
 3/5=1,6=6,7=11,11=2,16=1,25=1,30=1,71=1,74=-5,124=31/1,2,3;
 4//1;
 5/5=2,38=5/2;
 6/7=2,8=2,9=2,10=2,28=1/1;
 7//1,2,3,16;
 1/14=-1,18=20,19=15,26=3/3(2);
 2/9=110/2;
 99//99;
 2/9=110/2;
 3/5=1,6=6,7=11,11=2,16=1,25=1,30=1,71=1,74=-5,124=31/1,2,3;
 4/5=5,16=3,69=1/1;
 5/5=2,38=5/2;
 7//1,2,3,16;
 1/14=-1,18=20,19=15,26=3/3(-5);
 2/9=110/2;
 6/7=2,8=2,9=2,10=2,19=2,28=1/1;
 99/9=1/99;
 -------------------
 Title Card Required
 -------------------
 Symbolic Z-matrix:
 Charge =  0 Multiplicity = 2
 C                    -6.56003  -2.36059  -1.1715 
 C                    -5.19632  -2.3366   -1.49341 
 C                    -4.50195  -1.11945  -1.51158 
 C                    -5.17131   0.0737   -1.20784 
 C                    -6.53502   0.04971  -0.88592 
 C                    -7.22938  -1.16744  -0.86775 
 H                    -7.09019  -3.28991  -1.15763 
 H                    -4.68525  -3.24761  -1.72533 
 H                    -4.64114   1.00303  -1.22171 
 H                    -7.04608   0.96072  -0.654 
 C                    -3.00337  -1.09309  -1.86534 
 C                    -1.83447  -1.07253  -2.14127 
 O                    -8.62093  -1.19192  -0.53926 
 C                    -8.77453  -1.35762   0.87278 
 H                    -8.30238  -0.54292   1.38095 
 H                    -9.81575  -1.37594   1.11857 
 H                    -8.32038  -2.278     1.17537 
 

 GradGradGradGradGradGradGradGradGradGradGradGradGradGradGradGradGradGrad
 Berny optimization.
 Initialization pass.
                           ----------------------------
                           !    Initial Parameters    !
                           ! (Angstroms and Degrees)  !
 --------------------------                            --------------------------
 ! Name  Definition              Value          Derivative Info.                !
 --------------------------------------------------------------------------------
 ! R1    R(1,2)                  1.4014         estimate D2E/DX2                !
 ! R2    R(1,6)                  1.4014         estimate D2E/DX2                !
 ! R3    R(1,7)                  1.07           estimate D2E/DX2                !
 ! R4    R(2,3)                  1.4014         estimate D2E/DX2                !
 ! R5    R(2,8)                  1.07           estimate D2E/DX2                !
 ! R6    R(3,4)                  1.4014         estimate D2E/DX2                !
 ! R7    R(3,11)                 1.54           estimate D2E/DX2                !
 ! R8    R(4,5)                  1.4014         estimate D2E/DX2                !
 ! R9    R(4,9)                  1.07           estimate D2E/DX2                !
 ! R10   R(5,6)                  1.4014         estimate D2E/DX2                !
 ! R11   R(5,10)                 1.07           estimate D2E/DX2                !
 ! R12   R(6,13)                 1.43           estimate D2E/DX2                !
 ! R13   R(11,12)                1.2012         estimate D2E/DX2                !
 ! R14   R(13,14)                1.43           estimate D2E/DX2                !
 ! R15   R(14,15)                1.07           estimate D2E/DX2                !
 ! R16   R(14,16)                1.07           estimate D2E/DX2                !
 ! R17   R(14,17)                1.07           estimate D2E/DX2                !
 ! A1    A(2,1,6)              120.0            estimate D2E/DX2                !
 ! A2    A(2,1,7)              120.0            estimate D2E/DX2                !
 ! A3    A(6,1,7)              120.0            estimate D2E/DX2                !
 ! A4    A(1,2,3)              120.0            estimate D2E/DX2                !
 ! A5    A(1,2,8)              120.0            estimate D2E/DX2                !
 ! A6    A(3,2,8)              120.0            estimate D2E/DX2                !
 ! A7    A(2,3,4)              120.0            estimate D2E/DX2                !
 ! A8    A(2,3,11)             120.0            estimate D2E/DX2                !
 ! A9    A(4,3,11)             120.0            estimate D2E/DX2                !
 ! A10   A(3,4,5)              120.0            estimate D2E/DX2                !
 ! A11   A(3,4,9)              120.0            estimate D2E/DX2                !
 ! A12   A(5,4,9)              120.0            estimate D2E/DX2                !
 ! A13   A(4,5,6)              120.0            estimate D2E/DX2                !
 ! A14   A(4,5,10)             120.0            estimate D2E/DX2                !
 ! A15   A(6,5,10)             120.0            estimate D2E/DX2                !
 ! A16   A(1,6,5)              120.0            estimate D2E/DX2                !
 ! A17   A(1,6,13)             120.0            estimate D2E/DX2                !
 ! A18   A(5,6,13)             120.0            estimate D2E/DX2                !
 ! A19   A(6,13,14)            109.4712         estimate D2E/DX2                !
 ! A20   A(13,14,15)           109.4712         estimate D2E/DX2                !
 ! A21   A(13,14,16)           109.4712         estimate D2E/DX2                !
 ! A22   A(13,14,17)           109.4712         estimate D2E/DX2                !
 ! A23   A(15,14,16)           109.4712         estimate D2E/DX2                !
 ! A24   A(15,14,17)           109.4712         estimate D2E/DX2                !
 ! A25   A(16,14,17)           109.4712         estimate D2E/DX2                !
 ! A26   L(3,11,12,8,-1)       180.0            estimate D2E/DX2                !
 ! A27   L(3,11,12,8,-2)       180.0            estimate D2E/DX2                !
 ! D1    D(6,1,2,3)             -0.0002         estimate D2E/DX2                !
 ! D2    D(6,1,2,8)            179.9998         estimate D2E/DX2                !
 ! D3    D(7,1,2,3)            179.9998         estimate D2E/DX2                !
 ! D4    D(7,1,2,8)             -0.0002         estimate D2E/DX2                !
 ! D5    D(2,1,6,5)              0.0001         estimate D2E/DX2                !
 ! D6    D(2,1,6,13)          -179.9999         estimate D2E/DX2                !
 ! D7    D(7,1,6,5)           -179.9999         estimate D2E/DX2                !
 ! D8    D(7,1,6,13)             0.0001         estimate D2E/DX2                !
 ! D9    D(1,2,3,4)              0.0001         estimate D2E/DX2                !
 ! D10   D(1,2,3,11)          -179.9999         estimate D2E/DX2                !
 ! D11   D(8,2,3,4)           -179.9999         estimate D2E/DX2                !
 ! D12   D(8,2,3,11)             0.0001         estimate D2E/DX2                !
 ! D13   D(2,3,4,5)              0.0            estimate D2E/DX2                !
 ! D14   D(2,3,4,9)           -179.9999         estimate D2E/DX2                !
 ! D15   D(11,3,4,5)          -179.9999         estimate D2E/DX2                !
 ! D16   D(11,3,4,9)             0.0001         estimate D2E/DX2                !
 ! D17   D(3,4,5,6)             -0.0001         estimate D2E/DX2                !
 ! D18   D(3,4,5,10)           179.9998         estimate D2E/DX2                !
 ! D19   D(9,4,5,6)            179.9998         estimate D2E/DX2                !
 ! D20   D(9,4,5,10)            -0.0002         estimate D2E/DX2                !
 ! D21   D(4,5,6,1)              0.0            estimate D2E/DX2                !
 ! D22   D(4,5,6,13)          -180.0            estimate D2E/DX2                !
 ! D23   D(10,5,6,1)          -179.9999         estimate D2E/DX2                !
 ! D24   D(10,5,6,13)            0.0001         estimate D2E/DX2                !
 ! D25   D(1,6,13,14)           90.0            estimate D2E/DX2                !
 ! D26   D(5,6,13,14)          -90.0            estimate D2E/DX2                !
 ! D27   D(6,13,14,15)          60.0            estimate D2E/DX2                !
 ! D28   D(6,13,14,16)         180.0            estimate D2E/DX2                !
 ! D29   D(6,13,14,17)         -60.0            estimate D2E/DX2                !
 --------------------------------------------------------------------------------
 Trust Radius=3.00D-01 FncErr=1.00D-07 GrdErr=1.00D-06
 Number of steps in this run=     83 maximum allowed number of steps=    102.
 GradGradGradGradGradGradGradGradGradGradGradGradGradGradGradGradGradGrad

                          Input orientation:                          
 ---------------------------------------------------------------------
 Center     Atomic      Atomic             Coordinates (Angstroms)
 Number     Number       Type             X           Y           Z
 ---------------------------------------------------------------------
      1          6           0       -6.560030   -2.360594   -1.171498
      2          6           0       -5.196316   -2.336604   -1.493414
      3          6           0       -4.501954   -1.119454   -1.511584
      4          6           0       -5.171305    0.073704   -1.207837
      5          6           0       -6.535019    0.049714   -0.885918
      6          6           0       -7.229382   -1.167436   -0.867749
      7          1           0       -7.090192   -3.289915   -1.157628
      8          1           0       -4.685251   -3.247607   -1.725330
      9          1           0       -4.641145    1.003025   -1.221711
     10          1           0       -7.046083    0.960716   -0.653998
     11          6           0       -3.003367   -1.093091   -1.865339
     12          6           0       -1.834469   -1.072528   -2.141269
     13          8           0       -8.620926   -1.191916   -0.539262
     14          6           0       -8.774525   -1.357625    0.872775
     15          1           0       -8.302376   -0.542925    1.380947
     16          1           0       -9.815751   -1.375942    1.118567
     17          1           0       -8.320380   -2.277998    1.175371
 ---------------------------------------------------------------------
                    Distance matrix (angstroms):
                    1          2          3          4          5
     1  C    0.000000
     2  C    1.401400   0.000000
     3  C    2.427296   1.401400   0.000000
     4  C    2.802800   2.427296   1.401400   0.000000
     5  C    2.427296   2.802800   2.427296   1.401400   0.000000
     6  C    1.401400   2.427296   2.802800   2.427296   1.401400
     7  H    1.070000   2.146700   3.396345   3.872800   3.396345
     8  H    2.146700   1.070000   2.146700   3.396345   3.872800
     9  H    3.872800   3.396345   2.146700   1.070000   2.146700
    10  H    3.396345   3.872800   3.396345   2.146700   1.070000
    11  C    3.838989   2.548270   1.540000   2.548270   3.838989
    12  C    4.993045   3.649605   2.741200   3.649605   4.993045
    13  O    2.452106   3.734792   4.232800   3.734792   2.452106
    14  C    3.176317   4.400095   4.898649   4.400096   3.176317
    15  H    3.585341   4.596394   4.810648   4.109213   2.934868
    16  H    4.100446   5.393004   5.934637   5.393005   4.100446
    17  H    2.934868   4.109212   4.810648   4.596396   3.585341
                    6          7          8          9         10
     6  C    0.000000
     7  H    2.146700   0.000000
     8  H    3.396345   2.471400   0.000000
     9  H    3.396345   4.942800   4.280590   0.000000
    10  H    2.146700   4.280590   4.942800   2.471400   0.000000
    11  C    4.342800   4.693509   2.736837   2.736837   4.693509
    12  C    5.544000   5.788521   3.609838   3.609838   5.788521
    13  O    1.430000   2.669667   4.595886   4.595886   2.669667
    14  C    2.335180   3.270055   5.200418   5.200421   3.270054
    15  H    2.568651   3.931883   5.481593   4.750622   2.824926
    16  H    3.267757   4.033984   6.157346   6.157348   4.033983
    17  H    2.568651   2.824928   4.750618   5.481596   3.931882
                   11         12         13         14         15
    11  C    0.000000
    12  C    1.201200   0.000000
    13  O    5.772800   6.974000   0.000000
    14  C    6.393240   7.571665   1.430000   0.000000
    15  H    6.238634   7.383786   2.051796   1.070000   0.000000
    16  H    7.442599   8.626670   2.051796   1.070000   1.747303
    17  H    6.238634   7.383786   2.051796   1.070000   1.747303
                   16         17
    16  H    0.000000
    17  H    1.747303   0.000000
 Stoichiometry    C9H7O(2)
 Framework group  C1[X(C9H7O)]
 Deg. of freedom    45
 Full point group                 C1      NOp   1
 Largest Abelian subgroup         C1      NOp   1
 Largest concise Abelian subgroup C1      NOp   1
                         Standard orientation:                         
 ---------------------------------------------------------------------
 Center     Atomic      Atomic             Coordinates (Angstroms)
 Number     Number       Type             X           Y           Z
 ---------------------------------------------------------------------
      1          6           0       -0.525319   -1.213648   -0.254492
      2          6           0        0.866214   -1.213648   -0.088494
      3          6           0        1.561982    0.000000   -0.005496
      4          6           0        0.866215    1.213648   -0.088495
      5          6           0       -0.525319    1.213648   -0.254490
      6          6           0       -1.221087    0.000000   -0.337489
      7          1           0       -1.056553   -2.140295   -0.317866
      8          1           0        1.397448   -2.140295   -0.025121
      9          1           0        1.397449    2.140295   -0.025126
     10          1           0       -1.056553    2.140296   -0.317859
     11          6           0        3.091140    0.000000    0.176917
     12          6           0        4.283884   -0.000001    0.319200
     13          8           0       -2.641019    0.000000   -0.506872
     14          6           0       -3.274027   -0.000001    0.775392
     15          1           0       -2.979617    0.873650    1.318492
     16          1           0       -4.336494   -0.000001    0.648651
     17          1           0       -2.979617   -0.873653    1.318490
 ---------------------------------------------------------------------
 Rotational constants (GHZ):      4.5666965      0.7124739      0.6478582
 Standard basis: 6-31+G(d) (6D, 7F)
 There are   204 symmetry adapted cartesian basis functions of A   symmetry.
 There are   204 symmetry adapted basis functions of A   symmetry.
   204 basis functions,   348 primitive gaussians,   204 cartesian basis functions
    35 alpha electrons       34 beta electrons
       nuclear repulsion energy       442.1869103353 Hartrees.
 NAtoms=   17 NActive=   17 NUniq=   17 SFac= 1.00D+00 NAtFMM=   60 NAOKFM=F Big=F
 Integral buffers will be    131072 words long.
 Raffenetti 2 integral format.
 Two-electron integral symmetry is turned on.
 Nuclear repulsion after empirical dispersion term =      442.1754814412 Hartrees.
 One-electron integrals computed using PRISM.
 NBasis=   204 RedAO= T EigKep=  4.03D-06  NBF=   204
 NBsUse=   203 1.00D-06 EigRej=  3.60D-07 NBFU=   203
 ExpMin= 4.38D-02 ExpMax= 5.48D+03 ExpMxC= 8.25D+02 IAcc=2 IRadAn=         4 AccDes= 0.00D+00
 Harris functional with IExCor=  402 and IRadAn=       4 diagonalized for initial guess.
 HarFok:  IExCor=  402 AccDes= 0.00D+00 IRadAn=         4 IDoV= 1 UseB2=F ITyADJ=14
 ICtDFT=  3500011 ScaDFX=  1.000000  1.000000  1.000000  1.000000
 FoFCou: FMM=F IPFlag=           0 FMFlag=      100000 FMFlg1=           0
         NFxFlg=           0 DoJE=T BraDBF=F KetDBF=T FulRan=T
         wScrn=  0.000000 ICntrl=     500 IOpCl=  0 I1Cent=   200000004 NGrid=           0
         NMat0=    1 NMatS0=      1 NMatT0=    0 NMatD0=    1 NMtDS0=    0 NMtDT0=    0
 Petite list used in FoFCou.
 Initial guess <Sx>= 0.0000 <Sy>= 0.0000 <Sz>= 0.5000 <S**2>= 0.7500 S= 0.5000
 Keep R1 and R2 ints in memory in canonical form, NReq=441702618.
 Requested convergence on RMS density matrix=1.00D-08 within 128 cycles.
 Requested convergence on MAX density matrix=1.00D-06.
 Requested convergence on             energy=1.00D-06.
 No special actions if energy rises.
 EnCoef did     3 forward-backward iterations
 SCF Done:  E(UB3LYP) =  -422.208334210     A.U. after   29 cycles
            NFock= 29  Conv=0.92D-08     -V/T= 2.0091
 <Sx>= 0.0000 <Sy>= 0.0000 <Sz>= 0.5000 <S**2>= 0.7590 S= 0.5045
 <L.S>= 0.000000000000E+00
 Annihilation of the first spin contaminant:
 S**2 before annihilation     0.7590,   after     0.7501

 **********************************************************************

            Population analysis using the SCF density.

 **********************************************************************

 Orbital symmetries:
 Alpha Orbitals:
       Occupied  (A) (A) (A) (A) (A) (A) (A) (A) (A) (A) (A) (A)
                 (A) (A) (A) (A) (A) (A) (A) (A) (A) (A) (A) (A)
                 (A) (A) (A) (A) (A) (A) (A) (A) (A) (A) (A)
       Virtual   (A) (A) (A) (A) (A) (A) (A) (A) (A) (A) (A) (A)
                 (A) (A) (A) (A) (A) (A) (A) (A) (A) (A) (A) (A)
                 (A) (A) (A) (A) (A) (A) (A) (A) (A) (A) (A) (A)
                 (A) (A) (A) (A) (A) (A) (A) (A) (A) (A) (A) (A)
                 (A) (A) (A) (A) (A) (A) (A) (A) (A) (A) (A) (A)
                 (A) (A) (A) (A) (A) (A) (A) (A) (A) (A) (A) (A)
                 (A) (A) (A) (A) (A) (A) (A) (A) (A) (A) (A) (A)
                 (A) (A) (A) (A) (A) (A) (A) (A) (A) (A) (A) (A)
                 (A) (A) (A) (A) (A) (A) (A) (A) (A) (A) (A) (A)
                 (A) (A) (A) (A) (A) (A) (A) (A) (A) (A) (A) (A)
                 (A) (A) (A) (A) (A) (A) (A) (A) (A) (A) (A) (A)
                 (A) (A) (A) (A) (A) (A) (A) (A) (A) (A) (A) (A)
                 (A) (A) (A) (A) (A) (A) (A) (A) (A) (A) (A) (A)
                 (A) (A) (A) (A) (A) (A) (A) (A) (A) (A) (A) (A)
 Beta  Orbitals:
       Occupied  (A) (A) (A) (A) (A) (A) (A) (A) (A) (A) (A) (A)
                 (A) (A) (A) (A) (A) (A) (A) (A) (A) (A) (A) (A)
                 (A) (A) (A) (A) (A) (A) (A) (A) (A) (A)
       Virtual   (A) (A) (A) (A) (A) (A) (A) (A) (A) (A) (A) (A)
                 (A) (A) (A) (A) (A) (A) (A) (A) (A) (A) (A) (A)
                 (A) (A) (A) (A) (A) (A) (A) (A) (A) (A) (A) (A)
                 (A) (A) (A) (A) (A) (A) (A) (A) (A) (A) (A) (A)
                 (A) (A) (A) (A) (A) (A) (A) (A) (A) (A) (A) (A)
                 (A) (A) (A) (A) (A) (A) (A) (A) (A) (A) (A) (A)
                 (A) (A) (A) (A) (A) (A) (A) (A) (A) (A) (A) (A)
                 (A) (A) (A) (A) (A) (A) (A) (A) (A) (A) (A) (A)
                 (A) (A) (A) (A) (A) (A) (A) (A) (A) (A) (A) (A)
                 (A) (A) (A) (A) (A) (A) (A) (A) (A) (A) (A) (A)
                 (A) (A) (A) (A) (A) (A) (A) (A) (A) (A) (A) (A)
                 (A) (A) (A) (A) (A) (A) (A) (A) (A) (A) (A) (A)
                 (A) (A) (A) (A) (A) (A) (A) (A) (A) (A) (A) (A)
                 (A) (A) (A) (A) (A) (A) (A) (A) (A) (A) (A) (A)
                 (A)
 The electronic state is 2-A.
 Alpha  occ. eigenvalues --  -19.20521 -10.30056 -10.26982 -10.25586 -10.24570
 Alpha  occ. eigenvalues --  -10.24569 -10.23774 -10.23774 -10.21423 -10.18801
 Alpha  occ. eigenvalues --   -1.07741  -0.90538  -0.81340  -0.79757  -0.76947
 Alpha  occ. eigenvalues --   -0.72232  -0.66232  -0.64113  -0.57477  -0.53592
 Alpha  occ. eigenvalues --   -0.51927  -0.49264  -0.49108  -0.47505  -0.46602
 Alpha  occ. eigenvalues --   -0.43485  -0.41821  -0.40375  -0.38165  -0.34090
 Alpha  occ. eigenvalues --   -0.31077  -0.30091  -0.29311  -0.27725  -0.26589
 Alpha virt. eigenvalues --   -0.06367  -0.05753  -0.01023   0.00826   0.01000
 Alpha virt. eigenvalues --    0.01860   0.02961   0.03707   0.04066   0.04643
 Alpha virt. eigenvalues --    0.05152   0.05340   0.06587   0.06973   0.07924
 Alpha virt. eigenvalues --    0.07953   0.08701   0.09496   0.10569   0.10658
 Alpha virt. eigenvalues --    0.11744   0.12597   0.12912   0.13036   0.13716
 Alpha virt. eigenvalues --    0.14097   0.14445   0.15033   0.15549   0.17133
 Alpha virt. eigenvalues --    0.17452   0.18188   0.18634   0.18816   0.20134
 Alpha virt. eigenvalues --    0.20471   0.21532   0.21740   0.22821   0.23646
 Alpha virt. eigenvalues --    0.24086   0.24266   0.24543   0.25173   0.25843
 Alpha virt. eigenvalues --    0.26306   0.27764   0.29227   0.29339   0.30777
 Alpha virt. eigenvalues --    0.31609   0.32789   0.34169   0.34726   0.36263
 Alpha virt. eigenvalues --    0.36952   0.39147   0.40087   0.54457   0.56380
 Alpha virt. eigenvalues --    0.58121   0.62594   0.64355   0.65491   0.65633
 Alpha virt. eigenvalues --    0.66156   0.68553   0.68812   0.69436   0.70527
 Alpha virt. eigenvalues --    0.71509   0.73941   0.74017   0.75100   0.76975
 Alpha virt. eigenvalues --    0.77660   0.79087   0.79443   0.82454   0.83403
 Alpha virt. eigenvalues --    0.87480   0.89022   0.90897   0.91146   0.92651
 Alpha virt. eigenvalues --    0.93699   0.95862   0.96308   0.98969   1.02057
 Alpha virt. eigenvalues --    1.05331   1.06837   1.08480   1.12758   1.13779
 Alpha virt. eigenvalues --    1.17067   1.19785   1.21456   1.22105   1.22255
 Alpha virt. eigenvalues --    1.27306   1.29134   1.31432   1.32089   1.36553
 Alpha virt. eigenvalues --    1.39891   1.40604   1.41664   1.42131   1.45305
 Alpha virt. eigenvalues --    1.48590   1.49178   1.52557   1.55269   1.55431
 Alpha virt. eigenvalues --    1.68857   1.73045   1.74456   1.78221   1.78815
 Alpha virt. eigenvalues --    1.83480   1.83816   1.92114   1.93300   1.94198
 Alpha virt. eigenvalues --    1.95650   1.97349   2.02047   2.04627   2.06056
 Alpha virt. eigenvalues --    2.08033   2.08724   2.09274   2.14085   2.16993
 Alpha virt. eigenvalues --    2.17510   2.23127   2.25308   2.26373   2.28562
 Alpha virt. eigenvalues --    2.38172   2.41507   2.49199   2.50600   2.56902
 Alpha virt. eigenvalues --    2.59820   2.61062   2.61397   2.67637   2.71565
 Alpha virt. eigenvalues --    2.75353   2.77398   2.77886   2.89203   3.03702
 Alpha virt. eigenvalues --    3.09035   3.21797   3.41687   4.14752   4.19981
 Alpha virt. eigenvalues --    4.21175   4.26200   4.29318   4.33264   4.34471
 Alpha virt. eigenvalues --    4.39236   4.61454   4.79580
  Beta  occ. eigenvalues --  -19.20492 -10.29837 -10.26993 -10.25568 -10.24423
  Beta  occ. eigenvalues --  -10.24422 -10.23843 -10.23843 -10.20831 -10.18302
  Beta  occ. eigenvalues --   -1.07624  -0.90244  -0.80484  -0.79625  -0.74668
  Beta  occ. eigenvalues --   -0.71883  -0.66047  -0.63822  -0.57300  -0.53379
  Beta  occ. eigenvalues --   -0.51842  -0.49049  -0.48889  -0.47456  -0.46582
  Beta  occ. eigenvalues --   -0.43200  -0.40957  -0.40289  -0.37799  -0.31028
  Beta  occ. eigenvalues --   -0.30638  -0.29735  -0.28407  -0.25543
  Beta virt. eigenvalues --   -0.19163  -0.05207  -0.04963  -0.00998   0.00866
  Beta virt. eigenvalues --    0.01003   0.01910   0.03120   0.03953   0.04096
  Beta virt. eigenvalues --    0.05073   0.05540   0.05967   0.06591   0.07269
  Beta virt. eigenvalues --    0.07986   0.08748   0.08889   0.09570   0.10739
  Beta virt. eigenvalues --    0.11232   0.11790   0.12722   0.13092   0.13097
  Beta virt. eigenvalues --    0.14046   0.14163   0.14591   0.15289   0.16072
  Beta virt. eigenvalues --    0.17188   0.17454   0.18478   0.18870   0.20034
  Beta virt. eigenvalues --    0.20357   0.20714   0.21546   0.21999   0.22856
  Beta virt. eigenvalues --    0.23796   0.24233   0.24283   0.24615   0.25400
  Beta virt. eigenvalues --    0.25920   0.26474   0.27795   0.29326   0.29460
  Beta virt. eigenvalues --    0.30896   0.31730   0.32874   0.34234   0.34817
  Beta virt. eigenvalues --    0.36317   0.37086   0.39245   0.40209   0.54530
  Beta virt. eigenvalues --    0.56733   0.58530   0.62950   0.64590   0.65558
  Beta virt. eigenvalues --    0.66136   0.66187   0.69393   0.69533   0.70192
  Beta virt. eigenvalues --    0.70856   0.71668   0.73983   0.74126   0.76394
  Beta virt. eigenvalues --    0.77026   0.78006   0.79402   0.80604   0.82781
  Beta virt. eigenvalues --    0.84464   0.87758   0.89518   0.90929   0.91658
  Beta virt. eigenvalues --    0.93115   0.93790   0.96058   0.96325   0.99121
  Beta virt. eigenvalues --    1.02144   1.05377   1.07068   1.08618   1.12932
  Beta virt. eigenvalues --    1.13881   1.17117   1.20179   1.21709   1.22249
  Beta virt. eigenvalues --    1.22503   1.27521   1.29474   1.32654   1.33357
  Beta virt. eigenvalues --    1.36577   1.40254   1.41050   1.41862   1.42552
  Beta virt. eigenvalues --    1.45587   1.48757   1.49298   1.55453   1.55672
  Beta virt. eigenvalues --    1.58588   1.69148   1.74801   1.74901   1.78590
  Beta virt. eigenvalues --    1.78911   1.83757   1.83979   1.93291   1.94980
  Beta virt. eigenvalues --    1.95719   1.97103   1.97373   2.02371   2.04972
  Beta virt. eigenvalues --    2.06295   2.08337   2.09274   2.09567   2.14568
  Beta virt. eigenvalues --    2.17122   2.18190   2.23232   2.25573   2.26685
  Beta virt. eigenvalues --    2.28736   2.38257   2.42215   2.49487   2.51183
  Beta virt. eigenvalues --    2.57239   2.60186   2.61353   2.61570   2.70283
  Beta virt. eigenvalues --    2.71651   2.75692   2.77509   2.77983   2.89356
  Beta virt. eigenvalues --    3.03967   3.09143   3.22416   3.41999   4.15591
  Beta virt. eigenvalues --    4.20092   4.21938   4.26638   4.29587   4.33291
  Beta virt. eigenvalues --    4.34595   4.39686   4.62124   4.80011
          Condensed to atoms (all electrons):
               1          2          3          4          5          6
     1  C    9.249307  -1.563276  -0.441952   0.247130  -1.610730  -0.683226
     2  C   -1.563276  10.653216  -0.005331  -3.158437   0.247163   0.671962
     3  C   -0.441952  -0.005331  11.331029  -0.006409  -0.442368  -0.875788
     4  C    0.247130  -3.158437  -0.006409  10.653267  -1.563140   0.671727
     5  C   -1.610730   0.247163  -0.442368  -1.563140   9.249121  -0.682884
     6  C   -0.683226   0.671962  -0.875788   0.671727  -0.682884   7.547129
     7  H    0.368793  -0.088480   0.007984  -0.015532   0.025615  -0.005674
     8  H   -0.055903   0.294044   0.015114   0.043354  -0.018294   0.009360
     9  H   -0.018302   0.043380   0.015161   0.294010  -0.055914   0.009342
    10  H    0.025598  -0.015528   0.007995  -0.088469   0.368812  -0.005704
    11  C    0.667049  -0.899869  -6.597937  -0.897216   0.667405  -0.808905
    12  C   -0.224168   0.107959   3.413359   0.106938  -0.224334   0.165595
    13  O   -0.232896   0.062946  -0.024517   0.062953  -0.232935   0.493739
    14  C    0.098878  -0.039641   0.019475  -0.039637   0.098888  -0.364590
    15  H   -0.047096   0.019474  -0.002959  -0.026437   0.032964   0.027385
    16  H    0.011542  -0.001213   0.001098  -0.001213   0.011540  -0.020293
    17  H    0.032964  -0.026437  -0.002959   0.019474  -0.047096   0.027385
               7          8          9         10         11         12
     1  C    0.368793  -0.055903  -0.018302   0.025598   0.667049  -0.224168
     2  C   -0.088480   0.294044   0.043380  -0.015528  -0.899869   0.107959
     3  C    0.007984   0.015114   0.015161   0.007995  -6.597937   3.413359
     4  C   -0.015532   0.043354   0.294010  -0.088469  -0.897216   0.106938
     5  C    0.025615  -0.018294  -0.055914   0.368812   0.667405  -0.224334
     6  C   -0.005674   0.009360   0.009342  -0.005704  -0.808905   0.165595
     7  H    0.502969  -0.004437   0.000014  -0.000141   0.003797  -0.000887
     8  H   -0.004437   0.490223  -0.000147   0.000014   0.010127  -0.001902
     9  H    0.000014  -0.000147   0.490223  -0.004437   0.010124  -0.001901
    10  H   -0.000141   0.000014  -0.004437   0.502969   0.003797  -0.000887
    11  C    0.003797   0.010127   0.010124   0.003797  19.971572  -6.979856
    12  C   -0.000887  -0.001902  -0.001901  -0.000887  -6.979856  10.374043
    13  O   -0.002056  -0.000469  -0.000469  -0.002056   0.006797  -0.001377
    14  C    0.000995  -0.000316  -0.000316   0.000995   0.003022   0.000113
    15  H    0.000043  -0.000001   0.000008   0.000184  -0.000538   0.000020
    16  H   -0.000059   0.000000   0.000000  -0.000059   0.000072   0.000000
    17  H    0.000184   0.000008  -0.000001   0.000043  -0.000538   0.000020
              13         14         15         16         17
     1  C   -0.232896   0.098878  -0.047096   0.011542   0.032964
     2  C    0.062946  -0.039641   0.019474  -0.001213  -0.026437
     3  C   -0.024517   0.019475  -0.002959   0.001098  -0.002959
     4  C    0.062953  -0.039637  -0.026437  -0.001213   0.019474
     5  C   -0.232935   0.098888   0.032964   0.011540  -0.047096
     6  C    0.493739  -0.364590   0.027385  -0.020293   0.027385
     7  H   -0.002056   0.000995   0.000043  -0.000059   0.000184
     8  H   -0.000469  -0.000316  -0.000001   0.000000   0.000008
     9  H   -0.000469  -0.000316   0.000008   0.000000  -0.000001
    10  H   -0.002056   0.000995   0.000184  -0.000059   0.000043
    11  C    0.006797   0.003022  -0.000538   0.000072  -0.000538
    12  C   -0.001377   0.000113   0.000020   0.000000   0.000020
    13  O    8.267522   0.130319  -0.051710  -0.041749  -0.051710
    14  C    0.130319   5.278281   0.389508   0.392231   0.389508
    15  H   -0.051710   0.389508   0.532284  -0.029375  -0.046014
    16  H   -0.041749   0.392231  -0.029375   0.492505  -0.029375
    17  H   -0.051710   0.389508  -0.046014  -0.029375   0.532284
          Atomic-Atomic Spin Densities.
               1          2          3          4          5          6
     1  C   -0.012894  -0.066311  -0.042704  -0.048036   0.060165  -0.026250
     2  C   -0.066311   0.079925   0.088811   0.129169  -0.048023  -0.011722
     3  C   -0.042704   0.088811  -0.286628   0.088911  -0.042727   0.005561
     4  C   -0.048036   0.129169   0.088911   0.079860  -0.066285  -0.011747
     5  C    0.060165  -0.048023  -0.042727  -0.066285  -0.012975  -0.026177
     6  C   -0.026250  -0.011722   0.005561  -0.011747  -0.026177   0.278458
     7  H    0.000673  -0.001014  -0.000144   0.000268  -0.000467   0.000957
     8  H    0.000135   0.004489  -0.004617  -0.000069  -0.000274   0.000902
     9  H   -0.000274  -0.000069  -0.004619   0.004489   0.000136   0.000903
    10  H   -0.000467   0.000268  -0.000144  -0.001015   0.000673   0.000957
    11  C    0.089640  -0.085614   0.266712  -0.085676   0.089628   0.005823
    12  C   -0.034667   0.009885  -0.078829   0.009924  -0.034661   0.000415
    13  O    0.001742  -0.000916   0.000949  -0.000916   0.001741  -0.011051
    14  C    0.009103   0.002006   0.001490   0.002007   0.009101  -0.043983
    15  H   -0.000116  -0.000057  -0.000004  -0.000035  -0.000110   0.000629
    16  H   -0.000465  -0.000044  -0.000016  -0.000044  -0.000465   0.002684
    17  H   -0.000110  -0.000035  -0.000004  -0.000057  -0.000116   0.000629
               7          8          9         10         11         12
     1  C    0.000673   0.000135  -0.000274  -0.000467   0.089640  -0.034667
     2  C   -0.001014   0.004489  -0.000069   0.000268  -0.085614   0.009885
     3  C   -0.000144  -0.004617  -0.004619  -0.000144   0.266712  -0.078829
     4  C    0.000268  -0.000069   0.004489  -0.001015  -0.085676   0.009924
     5  C   -0.000467  -0.000274   0.000136   0.000673   0.089628  -0.034661
     6  C    0.000957   0.000902   0.000903   0.000957   0.005823   0.000415
     7  H    0.001827   0.000031   0.000000   0.000000   0.000071  -0.000065
     8  H    0.000031  -0.005401   0.000002   0.000000   0.000476  -0.000938
     9  H    0.000000   0.000002  -0.005401   0.000031   0.000476  -0.000938
    10  H    0.000000   0.000000   0.000031   0.001827   0.000071  -0.000065
    11  C    0.000071   0.000476   0.000476   0.000071  -0.132020   0.251384
    12  C   -0.000065  -0.000938  -0.000938  -0.000065   0.251384   0.258857
    13  O    0.000059   0.000003   0.000003   0.000059   0.000127   0.000006
    14  C   -0.000050  -0.000011  -0.000011  -0.000050  -0.000032  -0.000024
    15  H    0.000000   0.000000   0.000000   0.000001  -0.000002   0.000001
    16  H    0.000001   0.000000   0.000000   0.000001   0.000001   0.000000
    17  H    0.000001   0.000000   0.000000   0.000000  -0.000002   0.000001
              13         14         15         16         17
     1  C    0.001742   0.009103  -0.000116  -0.000465  -0.000110
     2  C   -0.000916   0.002006  -0.000057  -0.000044  -0.000035
     3  C    0.000949   0.001490  -0.000004  -0.000016  -0.000004
     4  C   -0.000916   0.002007  -0.000035  -0.000044  -0.000057
     5  C    0.001741   0.009101  -0.000110  -0.000465  -0.000116
     6  C   -0.011051  -0.043983   0.000629   0.002684   0.000629
     7  H    0.000059  -0.000050   0.000000   0.000001   0.000001
     8  H    0.000003  -0.000011   0.000000   0.000000   0.000000
     9  H    0.000003  -0.000011   0.000000   0.000000   0.000000
    10  H    0.000059  -0.000050   0.000001   0.000001   0.000000
    11  C    0.000127  -0.000032  -0.000002   0.000001  -0.000002
    12  C    0.000006  -0.000024   0.000001   0.000000   0.000001
    13  O    0.010375   0.001705   0.000092   0.000046   0.000092
    14  C    0.001705   0.022740  -0.000316  -0.001828  -0.000317
    15  H    0.000092  -0.000316  -0.000383   0.000071   0.000007
    16  H    0.000046  -0.001828   0.000071   0.000884   0.000071
    17  H    0.000092  -0.000317   0.000007   0.000071  -0.000383
 Mulliken charges and spin densities:
               1          2
     1  C    0.176288  -0.070836
     2  C   -0.301933   0.100747
     3  C   -0.410995  -0.008002
     4  C   -0.302363   0.100748
     5  C    0.176187  -0.070836
     6  C   -0.176561   0.166988
     7  H    0.206874   0.002148
     8  H    0.219225  -0.005272
     9  H    0.219225  -0.005272
    10  H    0.206874   0.002148
    11  C    0.841095   0.401062
    12  C   -0.732735   0.380284
    13  O   -0.382332   0.004115
    14  C   -0.357714   0.001532
    15  H    0.202258  -0.000225
    16  H    0.214349   0.000897
    17  H    0.202258  -0.000225
 Sum of Mulliken charges =   0.00000   1.00000
 Mulliken charges and spin densities with hydrogens summed into heavy atoms:
               1          2
     1  C    0.383161  -0.068688
     2  C   -0.082708   0.095475
     3  C   -0.410995  -0.008002
     4  C   -0.083138   0.095475
     5  C    0.383061  -0.068688
     6  C   -0.176561   0.166988
    11  C    0.841095   0.401062
    12  C   -0.732735   0.380284
    13  O   -0.382332   0.004115
    14  C    0.261152   0.001979
 Electronic spatial extent (au):  <R**2>=           1698.0885
 Charge=              0.0000 electrons
 Dipole moment (field-independent basis, Debye):
    X=             -6.8726    Y=              0.0000    Z=              0.8160  Tot=              6.9209
 Quadrupole moment (field-independent basis, Debye-Ang):
   XX=            -89.0227   YY=            -51.8450   ZZ=            -61.0525
   XY=              0.0000   XZ=             -7.9703   YZ=              0.0000
 Traceless Quadrupole moment (field-independent basis, Debye-Ang):
   XX=            -21.7160   YY=             15.4617   ZZ=              6.2542
   XY=              0.0000   XZ=             -7.9703   YZ=              0.0000
 Octapole moment (field-independent basis, Debye-Ang**2):
  XXX=           -237.3497  YYY=              0.0000  ZZZ=             -0.6333  XYY=            -13.4392
  XXY=              0.0000  XXZ=              1.0238  XZZ=            -12.3949  YZZ=              0.0000
  YYZ=             -1.7873  XYZ=              0.0000
 Hexadecapole moment (field-independent basis, Debye-Ang**3):
 XXXX=          -2859.5062 YYYY=           -288.0888 ZZZZ=           -130.5499 XXXY=              0.0002
 XXXZ=           -136.1680 YYYX=              0.0001 YYYZ=              0.0000 ZZZX=             -8.4618
 ZZZY=              0.0000 XXYY=           -396.4206 XXZZ=           -367.2131 YYZZ=            -81.2647
 XXYZ=              0.0000 YYXZ=             -2.7430 ZZXY=              0.0000
 N-N= 4.421754814412D+02 E-N=-1.863234953593D+03  KE= 4.184111256272D+02
                          Isotropic Fermi Contact Couplings
        Atom                 a.u.       MegaHertz       Gauss      10(-4) cm-1
     1  C(13)             -0.00923     -10.37409      -3.70173      -3.46043
     2  C(13)              0.00988      11.11250       3.96522       3.70673
     3  C(13)             -0.01112     -12.50192      -4.46100      -4.17019
     4  C(13)              0.00988      11.11250       3.96522       3.70673
     5  C(13)             -0.00923     -10.37409      -3.70173      -3.46042
     6  C(13)              0.01686      18.95746       6.76449       6.32353
     7  H(1)               0.00059       2.61762       0.93403       0.87314
     8  H(1)              -0.00176      -7.87611      -2.81039      -2.62719
     9  H(1)              -0.00176      -7.87611      -2.81039      -2.62719
    10  H(1)               0.00059       2.61761       0.93403       0.87314
    11  C(13)              0.02538      28.52864      10.17973       9.51613
    12  C(13)              0.01864      20.95993       7.47903       6.99148
    13  O(17)              0.01283      -7.77824      -2.77547      -2.59454
    14  C(13)              0.00834       9.37488       3.34519       3.12712
    15  H(1)              -0.00012      -0.53854      -0.19217      -0.17964
    16  H(1)               0.00025       1.10976       0.39599       0.37018
    17  H(1)              -0.00012      -0.53854      -0.19217      -0.17964
 --------------------------------------------------------
       Center         ----  Spin Dipole Couplings  ----
                      3XX-RR        3YY-RR        3ZZ-RR
 --------------------------------------------------------
     1   Atom        0.023304      0.020302     -0.043606
     2   Atom       -0.052458     -0.056376      0.108834
     3   Atom       -0.006220     -0.014176      0.020396
     4   Atom       -0.052459     -0.056376      0.108834
     5   Atom        0.023304      0.020302     -0.043606
     6   Atom       -0.079354     -0.085894      0.165248
     7   Atom        0.001732      0.000895     -0.002628
     8   Atom       -0.003221      0.007588     -0.004366
     9   Atom       -0.003221      0.007588     -0.004366
    10   Atom        0.001732      0.000895     -0.002628
    11   Atom       -0.204397     -0.272057      0.476454
    12   Atom       -0.185549     -0.245715      0.431264
    13   Atom       -0.025985     -0.022007      0.047992
    14   Atom        0.003829     -0.006033      0.002204
    15   Atom        0.000985     -0.001032      0.000046
    16   Atom        0.002049     -0.001297     -0.000752
    17   Atom        0.000985     -0.001032      0.000046
 --------------------------------------------------------
                        XY            XZ            YZ
 --------------------------------------------------------
     1   Atom       -0.001099      0.007222      0.000643
     2   Atom        0.002279     -0.020920      0.000478
     3   Atom        0.000000     -0.003583      0.000000
     4   Atom       -0.002279     -0.020919     -0.000478
     5   Atom        0.001099      0.007222     -0.000643
     6   Atom        0.000000     -0.018724      0.000000
     7   Atom       -0.000972      0.000552     -0.000064
     8   Atom       -0.001691      0.000127     -0.000265
     9   Atom        0.001691      0.000127      0.000265
    10   Atom        0.000972      0.000552      0.000064
    11   Atom        0.000000     -0.083349      0.000002
    12   Atom        0.000000     -0.070286      0.000001
    13   Atom        0.000000      0.016755      0.000000
    14   Atom        0.000000     -0.007947      0.000000
    15   Atom       -0.001079     -0.001442      0.001536
    16   Atom        0.000000     -0.000555      0.000000
    17   Atom        0.001079     -0.001442     -0.001536
 --------------------------------------------------------


 ---------------------------------------------------------------------------------
              Anisotropic Spin Dipole Couplings in Principal Axis System
 ---------------------------------------------------------------------------------

       Atom             a.u.   MegaHertz   Gauss  10(-4) cm-1        Axes

              Baa    -0.0444    -5.956    -2.125    -1.987 -0.1063 -0.0117  0.9943
     1 C(13)  Bbb     0.0201     2.691     0.960     0.897  0.2440  0.9690  0.0375
              Bcc     0.0243     3.266     1.165     1.089  0.9639 -0.2466  0.1001
 
              Baa    -0.0582    -7.804    -2.785    -2.603 -0.6034  0.7936 -0.0779
     2 C(13)  Bbb    -0.0533    -7.159    -2.554    -2.388  0.7873  0.6084  0.0998
              Bcc     0.1115    14.963     5.339     4.991 -0.1265  0.0011  0.9920
 
              Baa    -0.0142    -1.902    -0.679    -0.635  0.0000  1.0000  0.0000
     3 C(13)  Bbb    -0.0067    -0.898    -0.321    -0.300  0.9914  0.0000  0.1311
              Bcc     0.0209     2.801     0.999     0.934 -0.1311  0.0000  0.9914
 
              Baa    -0.0582    -7.804    -2.785    -2.603  0.6034  0.7936  0.0779
     4 C(13)  Bbb    -0.0533    -7.159    -2.554    -2.388  0.7873 -0.6084  0.0998
              Bcc     0.1115    14.963     5.339     4.991 -0.1265 -0.0011  0.9920
 
              Baa    -0.0444    -5.956    -2.125    -1.987 -0.1063  0.0117  0.9943
     5 C(13)  Bbb     0.0201     2.691     0.960     0.897 -0.2440  0.9690 -0.0375
              Bcc     0.0243     3.266     1.165     1.089  0.9639  0.2466  0.1001
 
              Baa    -0.0859   -11.526    -4.113    -3.845  0.0000  1.0000  0.0000
     6 C(13)  Bbb    -0.0808   -10.840    -3.868    -3.616  0.9971  0.0000  0.0759
              Bcc     0.1667    22.366     7.981     7.460 -0.0759  0.0000  0.9971
 
              Baa    -0.0027    -1.439    -0.514    -0.480 -0.1273 -0.0167  0.9917
     7 H(1)   Bbb     0.0003     0.147     0.053     0.049  0.5315  0.8430  0.0824
              Bcc     0.0024     1.292     0.461     0.431  0.8374 -0.5376  0.0985
 
              Baa    -0.0044    -2.338    -0.834    -0.780 -0.0973  0.0083  0.9952
     8 H(1)   Bbb    -0.0035    -1.852    -0.661    -0.618  0.9837  0.1527  0.0949
              Bcc     0.0079     4.190     1.495     1.398 -0.1512  0.9882 -0.0230
 
              Baa    -0.0044    -2.338    -0.834    -0.780 -0.0973 -0.0083  0.9952
     9 H(1)   Bbb    -0.0035    -1.852    -0.661    -0.618  0.9837 -0.1527  0.0949
              Bcc     0.0079     4.190     1.495     1.398  0.1512  0.9882  0.0230
 
              Baa    -0.0027    -1.439    -0.514    -0.480 -0.1273  0.0167  0.9917
    10 H(1)   Bbb     0.0003     0.147     0.053     0.049 -0.5315  0.8430 -0.0824
              Bcc     0.0024     1.292     0.461     0.431  0.8374  0.5376  0.0985
 
              Baa    -0.2721   -36.507   -13.027   -12.178  0.0000  1.0000  0.0000
    11 C(13)  Bbb    -0.2145   -28.777   -10.268    -9.599  0.9928  0.0000  0.1198
              Bcc     0.4865    65.285    23.295    21.777 -0.1198  0.0000  0.9928
 
              Baa    -0.2457   -32.973   -11.765   -10.998  0.0000  1.0000  0.0000
    12 C(13)  Bbb    -0.1935   -25.960    -9.263    -8.659  0.9937  0.0000  0.1118
              Bcc     0.4392    58.933    21.029    19.658 -0.1118  0.0000  0.9937
 
              Baa    -0.0296     2.142     0.764     0.715  0.9775  0.0000 -0.2111
    13 O(17)  Bbb    -0.0220     1.592     0.568     0.531  0.0000  1.0000  0.0000
              Bcc     0.0516    -3.734    -1.333    -1.246  0.2111  0.0000  0.9775
 
              Baa    -0.0060    -0.810    -0.289    -0.270  0.0000  1.0000  0.0000
    14 C(13)  Bbb    -0.0050    -0.667    -0.238    -0.223  0.6702  0.0000  0.7422
              Bcc     0.0110     1.477     0.527     0.493  0.7422  0.0000 -0.6702
 
              Baa    -0.0021    -1.132    -0.404    -0.378  0.0219  0.8226 -0.5682
    15 H(1)   Bbb    -0.0007    -0.395    -0.141    -0.132  0.7213  0.3805  0.5787
              Bcc     0.0029     1.527     0.545     0.509  0.6923 -0.4226 -0.5850
 
              Baa    -0.0013    -0.692    -0.247    -0.231  0.0000  1.0000  0.0000
    16 H(1)   Bbb    -0.0009    -0.458    -0.163    -0.153  0.1876  0.0000  0.9822
              Bcc     0.0022     1.150     0.410     0.384  0.9822  0.0000 -0.1876
 
              Baa    -0.0021    -1.132    -0.404    -0.378 -0.0219  0.8226  0.5682
    17 H(1)   Bbb    -0.0007    -0.395    -0.141    -0.132  0.7213 -0.3805  0.5787
              Bcc     0.0029     1.527     0.545     0.509  0.6923  0.4226 -0.5850
 

 ---------------------------------------------------------------------------------

 Calling FoFJK, ICntrl=      2127 FMM=F ISym2X=0 I1Cent= 0 IOpClX= 1 NMat=1 NMatS=1 NMatT=0.
 ***** Axes restored to original set *****
 -------------------------------------------------------------------
 Center     Atomic                   Forces (Hartrees/Bohr)
 Number     Number              X              Y              Z
 -------------------------------------------------------------------
      1        6           0.012572472    0.005563694   -0.002587517
      2        6          -0.019849897   -0.000067709    0.004355775
      3        6           0.080844422    0.001412648   -0.019003209
      4        6          -0.019854824   -0.000545746    0.004299243
      5        6           0.012462207   -0.005061164   -0.003846475
      6        6          -0.024963234   -0.000137337    0.003345418
      7        1          -0.006983413   -0.009031745    0.000243092
      8        1           0.005711618   -0.008762452   -0.002521162
      9        1           0.005895855    0.008990198   -0.000417672
     10        1          -0.006797720    0.008865915    0.002363520
     11        6          -0.219001960   -0.003863399    0.051787833
     12        6           0.144988629    0.002550085   -0.034221251
     13        8           0.035204455    0.001180139   -0.013043678
     14        6           0.001763928    0.001055750   -0.009065056
     15        1           0.007450866    0.014172870    0.011814205
     16        1          -0.016574007    0.000368728   -0.001660489
     17        1           0.007130603   -0.016690475    0.008157423
 -------------------------------------------------------------------
 Cartesian Forces:  Max     0.219001960 RMS     0.040745003

 GradGradGradGradGradGradGradGradGradGradGradGradGradGradGradGradGradGrad
 Berny optimization.
 FormGI is forming the generalized inverse of G from B-inverse, IUseBI=4.
 Internal  Forces:  Max     0.148994186 RMS     0.020874624
 Search for a local minimum.
 Step number   1 out of a maximum of   83
 All quantities printed in internal units (Hartrees-Bohrs-Radians)
 Mixed Optimization -- RFO/linear search
 Second derivative matrix not updated -- first step.
 ITU=  0
     Eigenvalues ---    0.01295   0.01295   0.01929   0.02070   0.02070
     Eigenvalues ---    0.02070   0.02070   0.02070   0.02070   0.02070
     Eigenvalues ---    0.02070   0.04718   0.04718   0.10344   0.10344
     Eigenvalues ---    0.16000   0.16000   0.16000   0.16000   0.16000
     Eigenvalues ---    0.16000   0.16000   0.22000   0.22981   0.24000
     Eigenvalues ---    0.25000   0.25000   0.25000   0.28519   0.37230
     Eigenvalues ---    0.37230   0.37230   0.37230   0.37230   0.37230
     Eigenvalues ---    0.37230   0.40989   0.40989   0.41268   0.41640
     Eigenvalues ---    0.45389   0.45389   0.45389   0.45389   1.04222
 RFO step:  Lambda=-4.74119196D-02 EMin= 1.29493783D-02
 Linear search not attempted -- first point.
 Maximum step size (   0.300) exceeded in Quadratic search.
    -- Step size scaled by   0.966
 Iteration  1 RMS(Cart)=  0.04572423 RMS(Int)=  0.00308390
 Iteration  2 RMS(Cart)=  0.00400183 RMS(Int)=  0.00011788
 Iteration  3 RMS(Cart)=  0.00000347 RMS(Int)=  0.00011786
 Iteration  4 RMS(Cart)=  0.00000000 RMS(Int)=  0.00011786
 Variable       Old X    -DE/DX   Delta X   Delta X   Delta X     New X
                                 (Linear)    (Quad)   (Total)
    R1        2.64826  -0.01084   0.00000  -0.02088  -0.02088   2.62738
    R2        2.64826   0.00010   0.00000  -0.00049  -0.00046   2.64780
    R3        2.02201   0.01131   0.00000   0.02602   0.02602   2.04802
    R4        2.64826   0.00989   0.00000   0.01973   0.01970   2.66796
    R5        2.02201   0.01073   0.00000   0.02470   0.02470   2.04671
    R6        2.64826   0.00989   0.00000   0.01973   0.01970   2.66796
    R7        2.91018  -0.07608   0.00000  -0.22090  -0.22090   2.68928
    R8        2.64826  -0.01084   0.00000  -0.02088  -0.02088   2.62738
    R9        2.02201   0.01073   0.00000   0.02470   0.02470   2.04671
   R10        2.64826   0.00010   0.00000  -0.00049  -0.00046   2.64780
   R11        2.02201   0.01131   0.00000   0.02602   0.02602   2.04802
   R12        2.70231  -0.03491   0.00000  -0.07372  -0.07372   2.62859
   R13        2.26994   0.14899   0.00000   0.13205   0.13205   2.40198
   R14        2.70231   0.00928   0.00000   0.01960   0.01960   2.72191
   R15        2.02201   0.01969   0.00000   0.04530   0.04530   2.06731
   R16        2.02201   0.01574   0.00000   0.03622   0.03622   2.05822
   R17        2.02201   0.01969   0.00000   0.04530   0.04530   2.06731
    A1        2.09440  -0.00278   0.00000  -0.01072  -0.01068   2.08371
    A2        2.09440   0.00297   0.00000   0.01271   0.01269   2.10709
    A3        2.09440  -0.00019   0.00000  -0.00199  -0.00201   2.09238
    A4        2.09440  -0.00210   0.00000  -0.00568  -0.00570   2.08869
    A5        2.09440   0.00178   0.00000   0.00621   0.00622   2.10061
    A6        2.09440   0.00033   0.00000  -0.00053  -0.00052   2.09388
    A7        2.09440   0.00134   0.00000   0.00726   0.00720   2.10160
    A8        2.09440  -0.00067   0.00000  -0.00363  -0.00360   2.09079
    A9        2.09440  -0.00067   0.00000  -0.00363  -0.00360   2.09079
   A10        2.09440  -0.00210   0.00000  -0.00568  -0.00570   2.08869
   A11        2.09440   0.00033   0.00000  -0.00053  -0.00052   2.09388
   A12        2.09440   0.00178   0.00000   0.00621   0.00622   2.10061
   A13        2.09440  -0.00278   0.00000  -0.01072  -0.01068   2.08371
   A14        2.09440   0.00297   0.00000   0.01271   0.01269   2.10709
   A15        2.09440  -0.00019   0.00000  -0.00199  -0.00201   2.09238
   A16        2.09440   0.00842   0.00000   0.02553   0.02556   2.11996
   A17        2.09440  -0.00421   0.00000  -0.01276  -0.01283   2.08157
   A18        2.09440  -0.00421   0.00000  -0.01276  -0.01283   2.08157
   A19        1.91063   0.01530   0.00000   0.04968   0.04968   1.96031
   A20        1.91063   0.00535   0.00000   0.02633   0.02608   1.93672
   A21        1.91063  -0.01051   0.00000  -0.05179  -0.05170   1.85894
   A22        1.91063   0.00535   0.00000   0.02633   0.02608   1.93672
   A23        1.91063   0.00053   0.00000  -0.00039  -0.00029   1.91034
   A24        1.91063  -0.00125   0.00000  -0.00008  -0.00062   1.91002
   A25        1.91063   0.00053   0.00000  -0.00039  -0.00029   1.91034
   A26        3.14159   0.00000   0.00000   0.00000   0.00000   3.14159
   A27        3.14159   0.00001   0.00000   0.00006   0.00006   3.14165
    D1        0.00000  -0.00005   0.00000  -0.00077  -0.00075  -0.00076
    D2        3.14159   0.00003   0.00000   0.00036   0.00037  -3.14122
    D3        3.14159  -0.00030   0.00000  -0.00427  -0.00427   3.13732
    D4        0.00000  -0.00022   0.00000  -0.00314  -0.00314  -0.00315
    D5        0.00000   0.00029   0.00000   0.00423   0.00427   0.00427
    D6       -3.14159  -0.00075   0.00000  -0.01077  -0.01080   3.13080
    D7       -3.14159   0.00054   0.00000   0.00773   0.00776  -3.13383
    D8        0.00000  -0.00050   0.00000  -0.00728  -0.00731  -0.00731
    D9        0.00000  -0.00019   0.00000  -0.00269  -0.00269  -0.00268
   D10       -3.14159  -0.00002   0.00000  -0.00027  -0.00027   3.14132
   D11       -3.14159  -0.00027   0.00000  -0.00382  -0.00381   3.13779
   D12        0.00000  -0.00010   0.00000  -0.00140  -0.00140  -0.00139
   D13        0.00000   0.00019   0.00000   0.00269   0.00268   0.00268
   D14       -3.14159   0.00027   0.00000   0.00382   0.00381  -3.13778
   D15       -3.14159   0.00002   0.00000   0.00027   0.00027  -3.14132
   D16        0.00000   0.00010   0.00000   0.00140   0.00139   0.00140
   D17        0.00000   0.00005   0.00000   0.00077   0.00076   0.00075
   D18        3.14159   0.00030   0.00000   0.00427   0.00427  -3.13732
   D19        3.14159  -0.00003   0.00000  -0.00036  -0.00037   3.14122
   D20        0.00000   0.00022   0.00000   0.00314   0.00314   0.00314
   D21        0.00000  -0.00029   0.00000  -0.00423  -0.00427  -0.00427
   D22       -3.14159   0.00075   0.00000   0.01077   0.01080  -3.13079
   D23       -3.14159  -0.00054   0.00000  -0.00773  -0.00776   3.13383
   D24        0.00000   0.00050   0.00000   0.00728   0.00731   0.00731
   D25        1.57080   0.00052   0.00000   0.00750   0.00737   1.57816
   D26       -1.57080  -0.00052   0.00000  -0.00750  -0.00737  -1.57816
   D27        1.04720   0.00251   0.00000   0.01607   0.01658   1.06377
   D28        3.14159   0.00000   0.00000   0.00000   0.00000   3.14159
   D29       -1.04720  -0.00251   0.00000  -0.01607  -0.01658  -1.06377
         Item               Value     Threshold  Converged?
 Maximum Force            0.148994     0.000450     NO 
 RMS     Force            0.020875     0.000300     NO 
 Maximum Displacement     0.203019     0.001800     NO 
 RMS     Displacement     0.047816     0.001200     NO 
 Predicted change in Energy=-2.584287D-02
 GradGradGradGradGradGradGradGradGradGradGradGradGradGradGradGradGradGrad

                          Input orientation:                          
 ---------------------------------------------------------------------
 Center     Atomic      Atomic             Coordinates (Angstroms)
 Number     Number       Type             X           Y           Z
 ---------------------------------------------------------------------
      1          6           0       -6.536927   -2.370086   -1.166874
      2          6           0       -5.186916   -2.347732   -1.498596
      3          6           0       -4.492734   -1.118545   -1.520068
      4          6           0       -5.161667    0.085540   -1.210298
      5          6           0       -6.511737    0.057387   -0.879261
      6          6           0       -7.188874   -1.169089   -0.857341
      7          1           0       -7.087357   -3.303497   -1.148930
      8          1           0       -4.667522   -3.266733   -1.740894
      9          1           0       -4.622990    1.024890   -1.232417
     10          1           0       -7.042992    0.971830   -0.642375
     11          6           0       -3.110800   -1.092736   -1.858928
     12          6           0       -1.876485   -1.069691   -2.161529
     13          8           0       -8.542610   -1.192824   -0.538461
     14          6           0       -8.768923   -1.357877    0.874415
     15          1           0       -8.331372   -0.530133    1.440249
     16          1           0       -9.848789   -1.363484    1.016320
     17          1           0       -8.349776   -2.303695    1.230112
 ---------------------------------------------------------------------
                    Distance matrix (angstroms):
                    1          2          3          4          5
     1  C    0.000000
     2  C    1.390348   0.000000
     3  C    2.422772   1.411824   0.000000
     4  C    2.814840   2.450421   1.411824   0.000000
     5  C    2.444583   2.814840   2.422772   1.390348   0.000000
     6  C    1.401156   2.410029   2.776856   2.410029   1.401156
     7  H    1.083767   2.155791   3.412305   3.898413   3.420468
     8  H    2.151313   1.083070   2.166570   3.429788   3.897860
     9  H    3.897860   3.429788   2.166570   1.083070   2.151313
    10  H    3.420468   3.898413   3.412305   2.155791   1.083767
    11  C    3.721411   2.452572   1.423107   2.452572   3.721411
    12  C    4.939644   3.609961   2.694183   3.609961   4.939644
    13  O    2.409070   3.676460   4.167801   3.676460   2.409070
    14  C    3.189551   4.409282   4.906793   4.409283   3.189551
    15  H    3.660950   4.672053   4.883118   4.177497   3.006056
    16  H    4.092434   5.387635   5.931322   5.387635   4.092434
    17  H    3.006056   4.177496   4.883118   4.672054   3.660950
                    6          7          8          9         10
     6  C    0.000000
     7  H    2.156624   0.000000
     8  H    3.396761   2.491460   0.000000
     9  H    3.396761   4.981467   4.321870   0.000000
    10  H    2.156624   4.305460   4.981467   2.491460   0.000000
    11  C    4.199963   4.604842   2.676486   2.676486   4.604842
    12  C    5.471038   5.759204   3.576844   3.576844   5.759204
    13  O    1.390989   2.635408   4.556671   4.556671   2.635408
    14  C    2.351845   3.272159   5.225424   5.225426   3.272158
    15  H    2.644331   3.992865   5.570677   4.828388   2.872827
    16  H    3.259378   4.009671   6.170098   6.170099   4.009670
    17  H    2.644331   2.872829   4.828386   5.570679   3.992863
                   11         12         13         14         15
    11  C    0.000000
    12  C    1.271075   0.000000
    13  O    5.590904   6.861977   0.000000
    14  C    6.289341   7.536956   1.440374   0.000000
    15  H    6.201246   7.411443   2.097397   1.093974   0.000000
    16  H    7.330815   8.587355   2.037786   1.089164   1.782343
    17  H    6.201246   7.411443   2.097397   1.093974   1.786062
                   16         17
    16  H    0.000000
    17  H    1.782343   0.000000
 Stoichiometry    C9H7O(2)
 Framework group  C1[X(C9H7O)]
 Deg. of freedom    45
 Full point group                 C1      NOp   1
 Largest Abelian subgroup         C1      NOp   1
 Largest concise Abelian subgroup C1      NOp   1
                         Standard orientation:                         
 ---------------------------------------------------------------------
 Center     Atomic      Atomic             Coordinates (Angstroms)
 Number     Number       Type             X           Y           Z
 ---------------------------------------------------------------------
      1          6           0       -0.509094   -1.222291   -0.247077
      2          6           0        0.871556   -1.225211   -0.083169
      3          6           0        1.567973    0.000000    0.001155
      4          6           0        0.871556    1.225210   -0.083170
      5          6           0       -0.509094    1.222291   -0.247075
      6          6           0       -1.189626    0.000000   -0.325298
      7          1           0       -1.060309   -2.152730   -0.317775
      8          1           0        1.413418   -2.160935   -0.021155
      9          1           0        1.413419    2.160935   -0.021159
     10          1           0       -1.060309    2.152730   -0.317770
     11          6           0        2.981117    0.000000    0.169261
     12          6           0        4.243286    0.000000    0.319469
     13          8           0       -2.569309    0.000000   -0.502291
     14          6           0       -3.281378    0.000000    0.749762
     15          1           0       -3.043702    0.893031    1.335240
     16          1           0       -4.342118    0.000000    0.502558
     17          1           0       -3.043702   -0.893032    1.335240
 ---------------------------------------------------------------------
 Rotational constants (GHZ):      4.5385022      0.7314203      0.6614127
 Standard basis: 6-31+G(d) (6D, 7F)
 There are   204 symmetry adapted cartesian basis functions of A   symmetry.
 There are   204 symmetry adapted basis functions of A   symmetry.
   204 basis functions,   348 primitive gaussians,   204 cartesian basis functions
    35 alpha electrons       34 beta electrons
       nuclear repulsion energy       444.3354362243 Hartrees.
 NAtoms=   17 NActive=   17 NUniq=   17 SFac= 1.00D+00 NAtFMM=   60 NAOKFM=F Big=F
 Integral buffers will be    131072 words long.
 Raffenetti 2 integral format.
 Two-electron integral symmetry is turned on.
 Nuclear repulsion after empirical dispersion term =      444.3239407150 Hartrees.
 One-electron integrals computed using PRISM.
 NBasis=   204 RedAO= T EigKep=  4.10D-06  NBF=   204
 NBsUse=   203 1.00D-06 EigRej=  2.51D-07 NBFU=   203
 Initial guess from the checkpoint file:  "C:\Users\123\Desktop\ML project\molecule_2.chk"
 B after Tr=     0.000000    0.000000    0.000000
         Rot=    0.999998    0.000000    0.002150    0.000000 Ang=   0.25 deg.
 Initial guess <Sx>= 0.0000 <Sy>= 0.0000 <Sz>= 0.5000 <S**2>= 0.7590 S= 0.5045
 ExpMin= 4.38D-02 ExpMax= 5.48D+03 ExpMxC= 8.25D+02 IAcc=2 IRadAn=         4 AccDes= 0.00D+00
 Harris functional with IExCor=  402 and IRadAn=       4 diagonalized for initial guess.
 HarFok:  IExCor=  402 AccDes= 0.00D+00 IRadAn=         4 IDoV= 1 UseB2=F ITyADJ=14
 ICtDFT=  3500011 ScaDFX=  1.000000  1.000000  1.000000  1.000000
 FoFCou: FMM=F IPFlag=           0 FMFlag=      100000 FMFlg1=           0
         NFxFlg=           0 DoJE=T BraDBF=F KetDBF=T FulRan=T
         wScrn=  0.000000 ICntrl=     500 IOpCl=  0 I1Cent=   200000004 NGrid=           0
         NMat0=    1 NMatS0=      1 NMatT0=    0 NMatD0=    1 NMtDS0=    0 NMtDT0=    0
 Petite list used in FoFCou.
 Keep R1 and R2 ints in memory in canonical form, NReq=441702618.
 Requested convergence on RMS density matrix=1.00D-08 within 128 cycles.
 Requested convergence on MAX density matrix=1.00D-06.
 Requested convergence on             energy=1.00D-06.
 No special actions if energy rises.
 SCF Done:  E(UB3LYP) =  -422.235361739     A.U. after   22 cycles
            NFock= 22  Conv=0.49D-08     -V/T= 2.0095
 <Sx>= 0.0000 <Sy>= 0.0000 <Sz>= 0.5000 <S**2>= 0.7621 S= 0.5060
 <L.S>= 0.000000000000E+00
 Annihilation of the first spin contaminant:
 S**2 before annihilation     0.7621,   after     0.7501
 Calling FoFJK, ICntrl=      2127 FMM=F ISym2X=0 I1Cent= 0 IOpClX= 1 NMat=1 NMatS=1 NMatT=0.
 ***** Axes restored to original set *****
 -------------------------------------------------------------------
 Center     Atomic                   Forces (Hartrees/Bohr)
 Number     Number              X              Y              Z
 -------------------------------------------------------------------
      1        6           0.006446604   -0.002229721   -0.002020323
      2        6          -0.012961988   -0.004044154    0.002465517
      3        6           0.033612876    0.000622364   -0.008196655
      4        6          -0.012882461    0.003620511    0.003373639
      5        6           0.006495756    0.002507667   -0.001459014
      6        6          -0.016609314   -0.000209501    0.003222875
      7        1          -0.002124271   -0.000193032    0.000324813
      8        1           0.002031030   -0.000138648   -0.000577650
      9        1           0.002034868    0.000228177   -0.000534067
     10        1          -0.002120689    0.000155236    0.000365952
     11        6          -0.032407309   -0.000591383    0.007829444
     12        6           0.016224050    0.000290107   -0.003869412
     13        8           0.014664242   -0.000216312    0.000541329
     14        6          -0.003123648    0.000249253   -0.001830130
     15        1           0.001332794    0.002014396    0.000807558
     16        1          -0.001901872    0.000109209   -0.000755160
     17        1           0.001289331   -0.002174170    0.000311285
 -------------------------------------------------------------------
 Cartesian Forces:  Max     0.033612876 RMS     0.008424944

 GradGradGradGradGradGradGradGradGradGradGradGradGradGradGradGradGradGrad
 Berny optimization.
 Using GEDIIS/GDIIS optimizer.
 FormGI is forming the generalized inverse of G from B-inverse, IUseBI=4.
 Internal  Forces:  Max     0.016680974 RMS     0.003819249
 Search for a local minimum.
 Step number   2 out of a maximum of   83
 All quantities printed in internal units (Hartrees-Bohrs-Radians)
 Mixed Optimization -- RFO/linear search
 Update second derivatives using D2CorX and points    1    2
 DE= -2.70D-02 DEPred=-2.58D-02 R= 1.05D+00
 TightC=F SS=  1.41D+00  RLast= 3.02D-01 DXNew= 5.0454D-01 9.0604D-01
 Trust test= 1.05D+00 RLast= 3.02D-01 DXMaxT set to 5.05D-01
 ITU=  1  0
 Use linear search instead of GDIIS.
     Eigenvalues ---    0.01295   0.01295   0.01934   0.02070   0.02070
     Eigenvalues ---    0.02070   0.02070   0.02070   0.02070   0.02070
     Eigenvalues ---    0.02070   0.04718   0.04718   0.10125   0.10571
     Eigenvalues ---    0.15875   0.16000   0.16000   0.16000   0.16000
     Eigenvalues ---    0.16000   0.16137   0.22000   0.22779   0.23727
     Eigenvalues ---    0.24789   0.24997   0.25000   0.28348   0.37226
     Eigenvalues ---    0.37230   0.37230   0.37230   0.37230   0.37230
     Eigenvalues ---    0.37371   0.40014   0.41103   0.41356   0.41567
     Eigenvalues ---    0.45071   0.45389   0.45389   0.45663   1.03657
 RFO step:  Lambda=-1.68852091D-03 EMin= 1.29493783D-02
 Quartic linear search produced a step of  0.20611.
 Iteration  1 RMS(Cart)=  0.03103149 RMS(Int)=  0.00051178
 Iteration  2 RMS(Cart)=  0.00070130 RMS(Int)=  0.00004788
 Iteration  3 RMS(Cart)=  0.00000006 RMS(Int)=  0.00004788
 Variable       Old X    -DE/DX   Delta X   Delta X   Delta X     New X
                                 (Linear)    (Quad)   (Total)
    R1        2.62738  -0.00217  -0.00430  -0.00144  -0.00574   2.62164
    R2        2.64780   0.00260  -0.00009   0.00639   0.00629   2.65409
    R3        2.04802   0.00125   0.00536  -0.00149   0.00387   2.05189
    R4        2.66796   0.00877   0.00406   0.01970   0.02377   2.69173
    R5        2.04671   0.00122   0.00509  -0.00131   0.00378   2.05049
    R6        2.66796   0.00877   0.00406   0.01970   0.02377   2.69173
    R7        2.68928  -0.01666  -0.04553  -0.02095  -0.06648   2.62280
    R8        2.62738  -0.00217  -0.00430  -0.00144  -0.00574   2.62164
    R9        2.04671   0.00122   0.00509  -0.00131   0.00378   2.05049
   R10        2.64780   0.00260  -0.00009   0.00639   0.00629   2.65409
   R11        2.04802   0.00125   0.00536  -0.00149   0.00387   2.05189
   R12        2.62859  -0.01215  -0.01519  -0.02015  -0.03534   2.59325
   R13        2.40198   0.01668   0.02722  -0.00605   0.02117   2.42315
   R14        2.72191  -0.00108   0.00404  -0.00726  -0.00322   2.71869
   R15        2.06731   0.00248   0.00934  -0.00164   0.00770   2.07501
   R16        2.05822   0.00179   0.00746  -0.00194   0.00553   2.06375
   R17        2.06731   0.00248   0.00934  -0.00164   0.00770   2.07501
    A1        2.08371   0.00076  -0.00220   0.00473   0.00253   2.08624
    A2        2.10709   0.00141   0.00262   0.00912   0.01171   2.11880
    A3        2.09238  -0.00217  -0.00041  -0.01387  -0.01430   2.07809
    A4        2.08869   0.00235  -0.00118   0.01460   0.01346   2.10215
    A5        2.10061   0.00059   0.00128   0.00502   0.00629   2.10690
    A6        2.09388  -0.00294  -0.00011  -0.01963  -0.01975   2.07413
    A7        2.10160  -0.00593   0.00148  -0.02856  -0.02703   2.07457
    A8        2.09079   0.00296  -0.00074   0.01428   0.01351   2.10430
    A9        2.09079   0.00296  -0.00074   0.01428   0.01351   2.10430
   A10        2.08869   0.00235  -0.00118   0.01460   0.01346   2.10215
   A11        2.09388  -0.00294  -0.00011  -0.01963  -0.01975   2.07413
   A12        2.10061   0.00059   0.00128   0.00502   0.00629   2.10690
   A13        2.08371   0.00076  -0.00220   0.00473   0.00253   2.08624
   A14        2.10709   0.00141   0.00262   0.00912   0.01171   2.11880
   A15        2.09238  -0.00217  -0.00041  -0.01387  -0.01430   2.07809
   A16        2.11996  -0.00030   0.00527  -0.01012  -0.00502   2.11494
   A17        2.08157   0.00014  -0.00264   0.00487   0.00205   2.08361
   A18        2.08157   0.00014  -0.00264   0.00487   0.00205   2.08361
   A19        1.96031   0.00775   0.01024   0.02577   0.03601   1.99632
   A20        1.93672  -0.00051   0.00538  -0.01083  -0.00553   1.93119
   A21        1.85894  -0.00119  -0.01066   0.00495  -0.00570   1.85324
   A22        1.93672  -0.00051   0.00538  -0.01083  -0.00553   1.93119
   A23        1.91034   0.00086  -0.00006   0.00720   0.00714   1.91749
   A24        1.91002   0.00050  -0.00013   0.00282   0.00256   1.91257
   A25        1.91034   0.00086  -0.00006   0.00720   0.00714   1.91749
   A26        3.14159   0.00000   0.00000   0.00001   0.00001   3.14160
   A27        3.14165   0.00020   0.00001   0.00484   0.00485   3.14651
    D1       -0.00076  -0.00002  -0.00016  -0.00138  -0.00151  -0.00227
    D2       -3.14122   0.00004   0.00008   0.00118   0.00131  -3.13992
    D3        3.13732  -0.00021  -0.00088  -0.00865  -0.00957   3.12775
    D4       -0.00315  -0.00015  -0.00065  -0.00608  -0.00675  -0.00990
    D5        0.00427   0.00015   0.00088   0.00584   0.00675   0.01102
    D6        3.13080  -0.00058  -0.00223  -0.02477  -0.02695   3.10384
    D7       -3.13383   0.00033   0.00160   0.01300   0.01457  -3.11927
    D8       -0.00731  -0.00040  -0.00151  -0.01761  -0.01914  -0.02645
    D9       -0.00268  -0.00009  -0.00055  -0.00294  -0.00350  -0.00619
   D10        3.14132  -0.00001  -0.00006  -0.00044  -0.00051   3.14081
   D11        3.13779  -0.00014  -0.00078  -0.00548  -0.00625   3.13154
   D12       -0.00139  -0.00007  -0.00029  -0.00298  -0.00326  -0.00465
   D13        0.00268   0.00009   0.00055   0.00294   0.00350   0.00619
   D14       -3.13778   0.00014   0.00078   0.00548   0.00625  -3.13154
   D15       -3.14132   0.00001   0.00006   0.00044   0.00051  -3.14081
   D16        0.00140   0.00007   0.00029   0.00298   0.00325   0.00465
   D17        0.00075   0.00002   0.00016   0.00138   0.00151   0.00227
   D18       -3.13732   0.00021   0.00088   0.00865   0.00957  -3.12775
   D19        3.14122  -0.00004  -0.00008  -0.00118  -0.00130   3.13992
   D20        0.00314   0.00015   0.00065   0.00609   0.00676   0.00990
   D21       -0.00427  -0.00015  -0.00088  -0.00584  -0.00675  -0.01102
   D22       -3.13079   0.00058   0.00223   0.02477   0.02695  -3.10384
   D23        3.13383  -0.00033  -0.00160  -0.01300  -0.01457   3.11927
   D24        0.00731   0.00040   0.00151   0.01761   0.01914   0.02645
   D25        1.57816   0.00036   0.00152   0.01503   0.01658   1.59474
   D26       -1.57816  -0.00036  -0.00152  -0.01503  -0.01658  -1.59474
   D27        1.06377  -0.00004   0.00342  -0.00568  -0.00215   1.06162
   D28        3.14159   0.00000   0.00000   0.00000   0.00000   3.14159
   D29       -1.06377   0.00004  -0.00342   0.00568   0.00215  -1.06162
         Item               Value     Threshold  Converged?
 Maximum Force            0.016681     0.000450     NO 
 RMS     Force            0.003819     0.000300     NO 
 Maximum Displacement     0.094520     0.001800     NO 
 RMS     Displacement     0.030871     0.001200     NO 
 Predicted change in Energy=-1.712352D-03
 GradGradGradGradGradGradGradGradGradGradGradGradGradGradGradGradGradGrad

                          Input orientation:                          
 ---------------------------------------------------------------------
 Center     Atomic      Atomic             Coordinates (Angstroms)
 Number     Number       Type             X           Y           Z
 ---------------------------------------------------------------------
      1          6           0       -6.519097   -2.373548   -1.149229
      2          6           0       -5.177106   -2.348907   -1.500060
      3          6           0       -4.462750   -1.117080   -1.535058
      4          6           0       -5.151832    0.086824   -1.211469
      5          6           0       -6.493884    0.056265   -0.861339
      6          6           0       -7.171982   -1.173133   -0.824695
      7          1           0       -7.081769   -3.301996   -1.129817
      8          1           0       -4.654192   -3.264619   -1.755813
      9          1           0       -4.609671    1.026049   -1.247445
     10          1           0       -7.037484    0.965791   -0.624159
     11          6           0       -3.119891   -1.089577   -1.884790
     12          6           0       -1.877971   -1.064766   -2.202991
     13          8           0       -8.510188   -1.195163   -0.521557
     14          6           0       -8.799412   -1.358021    0.878300
     15          1           0       -8.377402   -0.527834    1.460027
     16          1           0       -9.887950   -1.357152    0.966302
     17          1           0       -8.395891   -2.309609    1.248918
 ---------------------------------------------------------------------
                    Distance matrix (angstroms):
                    1          2          3          4          5
     1  C    0.000000
     2  C    1.387310   0.000000
     3  C    2.440521   1.424404   0.000000
     4  C    2.815443   2.452898   1.424404   0.000000
     5  C    2.446938   2.815443   2.440521   1.387310   0.000000
     6  C    1.404485   2.412072   2.801374   2.412072   1.404485
     7  H    1.085814   2.161759   3.434726   3.900696   3.419884
     8  H    2.154025   1.085070   2.167327   3.431636   3.900361
     9  H    3.900361   3.431636   2.167327   1.085070   2.154025
    10  H    3.419884   3.900696   3.434726   2.161759   1.085814
    11  C    3.707322   2.442553   1.387926   2.442553   3.707322
    12  C    4.935927   3.609352   2.670197   3.609354   4.935929
    13  O    2.397291   3.660331   4.173133   3.660331   2.397291
    14  C    3.215899   4.445172   4.968802   4.445172   3.215899
    15  H    3.697049   4.724438   4.964096   4.233084   3.045907
    16  H    4.105813   5.409119   5.978899   5.409119   4.105813
    17  H    3.045907   4.233084   4.964096   4.724438   3.697049
                    6          7          8          9         10
     6  C    0.000000
     7  H    2.152510   0.000000
     8  H    3.403022   2.507269   0.000000
     9  H    3.403022   4.985688   4.320909   0.000000
    10  H    2.152510   4.297867   4.985688   2.507269   0.000000
    11  C    4.189299   4.600138   2.664869   2.664869   4.600138
    12  C    5.471562   5.765104   3.570256   3.570260   5.765106
    13  O    1.372288   2.617079   4.546948   4.546948   2.617079
    14  C    2.362817   3.280529   5.268445   5.268445   3.280529
    15  H    2.662593   4.010228   5.629734   4.892930   2.893117
    16  H    3.258530   4.006343   6.200045   6.200045   4.006343
    17  H    2.662593   2.893117   4.892929   5.629735   4.010228
                   11         12         13         14         15
    11  C    0.000000
    12  C    1.282276   0.000000
    13  O    5.561012   6.843283   0.000000
    14  C    6.321684   7.581998   1.438671   0.000000
    15  H    6.256579   7.479880   2.095146   1.098047   0.000000
    16  H    7.348942   8.619146   2.034255   1.092090   1.792564
    17  H    6.256579   7.479879   2.095146   1.098047   1.794333
                   16         17
    16  H    0.000000
    17  H    1.792564   0.000000
 Stoichiometry    C9H7O(2)
 Framework group  C1[X(C9H7O)]
 Deg. of freedom    45
 Full point group                 C1      NOp   1
 Largest Abelian subgroup         C1      NOp   1
 Largest concise Abelian subgroup C1      NOp   1
                         Standard orientation:                         
 ---------------------------------------------------------------------
 Center     Atomic      Atomic             Coordinates (Angstroms)
 Number     Number       Type             X           Y           Z
 ---------------------------------------------------------------------
      1          6           0       -0.503972   -1.223469   -0.231156
      2          6           0        0.874860   -1.226448   -0.078039
      3          6           0        1.594394    0.000001    0.005751
[...]
 ! D25   D(1,6,13,14)           91.181          -DE/DX =    0.0                 !
 ! D26   D(5,6,13,14)          -91.1803         -DE/DX =    0.0                 !
 ! D27   D(6,13,14,15)          60.8603         -DE/DX =    0.0                 !
 ! D28   D(6,13,14,16)         180.0            -DE/DX =    0.0                 !
 ! D29   D(6,13,14,17)         -60.8603         -DE/DX =    0.0                 !
 --------------------------------------------------------------------------------
 GradGradGradGradGradGradGradGradGradGradGradGradGradGradGradGradGradGrad

 1|1|UNPC-DESKTOP-LNBVCDA|Freq|UB3LYP|6-31+G(d)|C9H7O1(2)|123|24-Aug-20
 23|0||#N Geom=AllCheck Guess=TCheck SCRF=Check GenChk UB3LYP/6-31+G(d)
  Freq||Title Card Required||0,2|C,-6.5152351542,-2.3740283861,-1.14812
 78947|C,-5.1778559299,-2.3488961873,-1.503313691|C,-4.4587954746,-1.11
 61950277,-1.5428792539|C,-5.1525737876,0.087586097,-1.214630219|C,-6.4
 900159234,0.0563907478,-0.8601627865|C,-7.1729493123,-1.1733910339,-0.
 8224512334|H,-7.0777516705,-3.3025537807,-1.1247320777|H,-4.6527139593
 ,-3.263317486,-1.760750124|H,-4.6082075015,1.0259044893,-1.252547176|H
 ,-7.0334689064,0.9650569529,-0.6190897924|C,-3.1101025661,-1.088015893
 6,-1.898836212|C,-1.8649686835,-1.0648886445,-2.203030186|O,-8.5041451
 032,-1.1962788904,-0.5126972297|C,-8.8084502686,-1.3584725616,0.882928
 0145|H,-8.3928291569,-0.5292626655,1.4699194654|H,-9.8971014503,-1.355
 9068849,0.9566073549|H,-8.4113069216,-2.3102071747,1.2589164415||Versi
 on=EM64W-G09RevD.01|State=2-A|HF=-422.2371991|S2=0.763936|S2-1=0.|S2A=
 0.750123|RMSD=5.813e-009|RMSF=1.746e-005|ZeroPoint=0.1290558|Thermal=0
 .1376958|Dipole=-2.6525293,-0.1271757,1.305677|DipoleDeriv=-0.5643978,
 0.1740058,0.213432,0.4925195,-0.0533387,-0.1310408,0.2123928,-0.033114
 9,-0.1990681,0.4995151,-0.0771921,-0.1940345,0.2547405,0.062195,-0.069
 7469,-0.1079688,0.0352699,-0.0300588,-0.5862995,-0.011881,0.1639781,-0
 .0143727,0.1362596,0.0423234,0.1850196,0.0421054,-0.2304468,0.4964263,
 0.1112026,-0.1700114,-0.2313958,0.0515982,0.0928614,-0.1660569,-0.0130
 892,-0.0163705,-0.5788606,-0.2090895,0.1710257,-0.5183058,-0.0835012,0
 .1530003,0.0935833,0.0558886,-0.1544445,1.8468374,0.068291,-0.6985448,
 0.0334439,0.4478125,0.0325185,-0.4044255,0.0294668,0.2387303,0.0297423
 ,-0.0587741,0.0191879,-0.0714706,-0.0031846,0.0044407,0.0155646,-0.000
 2191,0.142121,0.0494084,0.0437446,0.0300988,0.0186065,0.0109121,-0.017
 8915,0.0192717,-0.0280996,0.1114287,0.0479951,-0.0504203,0.0190509,-0.
 0234731,0.0074459,-0.007793,0.0146091,0.0025734,0.116308,0.0323097,0.0
 5204,0.0318687,0.0652205,0.0032967,-0.0380425,0.0314086,-0.0333405,0.1
 330718,-0.8558038,-0.0253622,0.2716323,-0.0140522,-0.1878611,-0.084779
 8,0.1761402,-0.08379,0.4937146,1.0139548,0.0289561,-0.3567334,0.025138
 7,-0.2737276,0.0357836,-0.3244947,0.0354495,-0.5400094,-1.8724811,-0.0
 715024,0.7340023,-0.0705117,-0.3886087,0.0596218,0.7256868,0.0597101,-
 0.9497999,0.4894778,0.0212799,-0.1935555,0.0780654,0.3384154,-0.075903
 8,-0.6728738,-0.0709323,0.9878458,0.0483414,-0.0749581,-0.0677077,-0.0
 436064,-0.0632976,-0.0973919,0.0766495,-0.0267194,-0.0763422,-0.146857
 5,-0.0061746,0.0729388,-0.0023387,0.0900527,0.0075463,0.0405612,0.0078
 822,0.0208421,0.0506918,0.0858342,-0.0466283,0.0217918,-0.0944685,0.09
 44944,0.0849321,0.020959,-0.0475221|Polar=196.3640212,4.0445787,97.325
 6837,-42.7824771,2.232534,82.5364086|PG=C01 [X(C9H7O1)]|NImag=1||0.675
 06476,0.07269441,0.69348498,-0.13867787,0.05556828,0.16567503,-0.34632
 861,-0.03921486,0.07260973,0.66840934,0.01879844,-0.13114158,-0.014061
 16,-0.04149859,0.67020674,0.07995615,0.00158348,-0.07832089,-0.1489041
 2,0.07878859,0.18284463,-0.03701649,-0.01879958,0.00982680,-0.12401961
 ,-0.06943359,0.00683634,0.63640874,-0.04676642,0.02188477,0.01427359,-
 0.05233750,-0.24734206,-0.00898065,0.01500761,0.57906444,0.00646970,0.
 00661976,0.00701393,0.00848074,-0.00414323,-0.06983405,-0.13115490,0.0
 5021245,0.17286466,-0.03426710,0.01882559,0.01046655,0.04200321,0.0084
 3723,-0.00765200,-0.12161742,0.04639341,0.01982754,0.67083484,0.017811
 78,-0.01106010,-0.00555747,-0.00822682,-0.04598355,-0.00440873,0.06338
 871,-0.24292929,-0.03747555,0.07541637,0.67631525,0.01088808,-0.006118
 71,-0.00549787,-0.00967614,-0.00920189,0.01140675,0.02232267,-0.032646
 96,-0.07664924,-0.13542906,0.04313893,0.17431101,0.05503494,-0.0163868
 0,-0.01308316,-0.03505910,-0.01941079,0.00658609,-0.03568872,0.0451952
 9,0.01726780,-0.34618966,-0.03255493,0.07369064,0.67277287,0.01687783,
 -0.04690978,-0.01085691,-0.02029668,-0.01258739,0.00413390,0.01723680,
 0.02456761,-0.00249308,0.02553093,-0.13085864,-0.01582782,-0.03775640,
 0.69146971,-0.00905858,-0.00282946,0.01100798,0.00592796,0.00358383,-0
 .00317857,0.01383981,-0.01014616,0.00300317,0.08042484,-0.00017680,-0.
 07874278,-0.15157466,0.07362476,0.16998215,-0.13335024,0.08641512,0.03
 144332,-0.03147626,0.02432096,0.01228586,0.01144956,-0.00000957,-0.004
 66770,-0.03349056,-0.02528327,0.00681130,-0.13567149,-0.09419382,0.010
 20008,0.60772654,0.01784937,-0.26583632,-0.03075441,0.07200054,0.03181
 373,-0.01546941,-0.00011813,-0.04224833,-0.00438072,-0.07256270,0.0276
 7218,0.02285058,-0.02530540,-0.27166892,-0.01641706,0.01597257,0.63894
 110,0.02173380,-0.05046714,-0.07842344,0.01635344,-0.00286435,-0.00488
 541,-0.00375106,-0.00439022,-0.00538666,-0.00063344,0.01028057,0.00127
 049,0.01718594,0.00332385,-0.07026946,-0.13153973,0.05020794,0.2328245
 3,-0.13160957,-0.12680078,0.00824481,-0.01042495,-0.02756870,0.0001447
 8,-0.00345565,0.00178426,0.00332612,-0.00066241,0.00051120,0.00000611,
 -0.00112874,0.00272180,0.00193040,0.01030016,0.01401383,0.00039931,0.1
 3547365,-0.12473901,-0.26903137,0.00182929,0.00151295,0.00513445,-0.00
 023432,0.00089596,0.00172195,-0.00123669,0.00096410,0.00028534,-0.0001
 1436,0.00354386,-0.00279110,-0.00197802,-0.01739960,-0.01967234,0.0012
 6623,0.13617175,0.28186099,0.00840604,0.00124301,-0.03823183,0.0041835
 1,0.00781594,0.00352436,0.00334602,-0.00131438,0.00734676,0.00009210,-
 0.00005057,-0.00087689,0.00213904,-0.00151019,0.00403159,-0.00483632,-
 0.00637420,0.00498165,-0.01118045,-0.00134736,0.02807953,-0.00906502,0
 .02621646,0.00741054,-0.12454597,0.11799416,0.03799714,0.00986836,-0.0
 1542546,-0.00388211,-0.00128162,-0.00322851,0.00120294,-0.00066721,-0.
 00046621,-0.00020172,-0.00326371,-0.00244376,0.00299478,0.00034303,-0.
 00007787,-0.00136166,0.12821882,-0.00310216,0.00648838,0.00084930,0.11
 609047,-0.26377739,-0.05976466,0.01378314,-0.01843847,-0.00635108,-0.0
 0393370,-0.00305188,0.00006478,-0.00044997,0.00032261,0.00033191,-0.00
 128561,0.00102095,-0.00069953,0.00047342,0.00065349,0.00054350,-0.1230
 8576,0.27642561,0.00401126,-0.00738140,0.00420718,0.03763680,-0.060516
 10,-0.05658150,-0.00014736,0.00158586,0.00285243,0.00116728,-0.0001831
 2,0.00436548,-0.00044487,0.00022967,-0.00105352,0.00260858,-0.00007423
 ,0.00809869,-0.00121953,0.00078867,-0.00419748,-0.04328302,0.06498502,
 0.04520019,-0.00064646,0.00052162,-0.00008803,-0.00114154,0.00282303,0
 .00190025,0.00989960,0.01531091,-0.00016112,-0.12958223,-0.12666372,0.
 00970731,-0.00955935,-0.02690841,0.00110124,-0.00319917,0.00176321,0.0
 0348967,0.00001636,-0.00005726,-0.00021652,0.00068654,0.00074100,0.000
 12066,0.13353301,0.00056240,0.00035331,0.00001189,0.00351643,-0.002804
 18,-0.00180429,-0.01394246,-0.01839850,0.00128971,-0.12473039,-0.27470
 966,0.00622144,0.00237286,0.00538799,-0.00071539,0.00072887,0.00118244
 ,-0.00102392,-0.00007442,-0.00000570,0.00010878,-0.00078157,-0.0009192
 1,-0.00000655,0.13304941,0.28795031,-0.00032610,0.00011912,-0.00110497
 ,0.00203543,-0.00155743,0.00397772,-0.00351790,-0.00665116,0.00278123,
 0.00981721,0.00697547,-0.04061307,0.00481585,0.00751205,0.00580186,0.0
 0283082,-0.00163837,0.00787266,-0.00021836,0.00012192,-0.00068439,-0.0
 0006363,-0.00038180,0.00069392,-0.01367960,-0.00539164,0.02836141,-0.0
 0126764,-0.00313785,0.00125929,-0.00069244,-0.00047979,-0.00010615,-0.
 00352456,-0.00241049,0.00283974,-0.00989540,0.02709566,0.00663184,-0.1
 2656051,0.11859016,0.03671802,0.01036737,-0.01432901,-0.00304611,0.000
 56317,-0.00076860,-0.00017192,0.00002010,0.00012331,-0.00019571,0.0003
 4137,-0.00016667,-0.00129932,0.13001651,-0.00398477,-0.00306612,0.0002
 2134,-0.00094009,0.00021384,0.00037399,-0.00155163,0.00153265,-0.00023
 467,-0.00210505,0.00626452,0.00088447,0.11654639,-0.26059894,-0.055149
 96,0.01741959,-0.01956254,-0.00712926,0.00075517,-0.00096929,-0.000398
 76,0.00010616,0.00000495,0.00004863,0.00040198,0.00068663,0.00041190,-
 0.12683487,0.27264235,0.00126044,-0.00024867,0.00444551,-0.00012969,0.
 00030955,-0.00077536,0.00306823,-0.00015955,0.00760495,0.00359789,-0.0
 0717621,0.00186473,0.03640499,-0.05456210,-0.05171329,-0.00063919,0.00
 054052,0.00480465,0.00001373,0.00009405,0.00030541,-0.00019766,0.00006
 177,-0.00069879,-0.00130366,0.00065858,-0.00422895,-0.04169416,0.06003
 823,0.04275532,0.00456814,-0.00458568,-0.00055627,-0.03910450,-0.01814
 140,0.00938083,-0.34311924,-0.00664283,0.07987206,-0.03815923,0.016356
 65,0.01330455,0.00476462,0.00443092,0.00048866,-0.00004596,-0.00007376
 ,0.00011990,-0.00081339,-0.00013759,0.00020899,0.00103611,0.00093108,-
 0.00081691,0.00103189,-0.00071503,-0.00101636,-0.00078387,0.00010669,0
 .00023074,1.11209687,-0.00491912,-0.00332948,0.00037237,-0.02937528,0.
 00380939,0.00783458,-0.00663935,-0.07085118,-0.00337957,0.02724705,0.0
 0596978,-0.00768835,0.00500003,-0.00285476,-0.00182382,-0.00013272,-0.
 00571016,-0.00061622,-0.00130577,0.00018632,0.00041461,-0.00052956,0.0
 0094573,0.00050151,0.00070836,0.00093976,0.00007529,0.00129589,0.00024
 232,-0.00027272,0.02114129,0.08678786,-0.00159829,0.00099071,0.0032860
 0,0.00949338,0.00527481,0.00482973,0.07983978,-0.00337930,-0.04979222,
 0.01609122,-0.00515867,0.00172381,-0.00045899,-0.00242152,0.00261488,0
 .00061782,-0.00062138,-0.00059419,-0.00002281,0.00008578,-0.00035259,-
 0.00083548,0.00003097,-0.00138104,-0.00068350,0.00054256,-0.00137084,0
 .00028509,0.00005795,-0.00043810,-0.26815202,0.00323315,0.08358163,0.0
 0394590,-0.00387368,-0.00199922,-0.00398177,-0.00161772,0.00143277,0.0
 0729717,0.00001424,0.00013283,-0.00396607,0.00129347,0.00178483,0.0040
 2677,0.00416389,-0.00104749,-0.00539664,-0.00006526,0.00103214,-0.0000
 4999,0.00018452,-0.00002832,0.00004810,0.00005631,0.00009530,0.0000435
 4,-0.00007486,0.00008064,-0.00005653,-0.00017279,-0.00007010,-0.699512
 90,-0.01253331,0.16553696,0.69361587,0.00016975,0.00051865,0.00004280,
 0.00064504,-0.00115852,-0.00052686,0.00007733,0.01006202,0.00125355,-0
 .00076119,-0.00125365,0.00015160,-0.00007463,0.00062900,-0.00000370,-0
 .00006955,0.00009906,0.00001743,0.00013697,-0.00004557,-0.00002857,0.0
 0016561,0.00015158,0.00001843,-0.00014303,0.00014642,0.00010374,-0.000
 13659,-0.00005424,0.00002395,-0.01269708,-0.01696933,0.00125006,0.0126
 3761,0.00788145,-0.00067728,0.00078804,0.00064059,0.00081390,-0.000169
 28,0.00017400,-0.00039644,0.00125912,-0.00038040,0.00064721,-0.0001877
 5,0.00025361,-0.00072252,-0.00076602,0.00044938,0.00106822,0.00001705,
 -0.00013703,0.00001447,-0.00004022,-0.00003398,-0.00006733,0.00006481,
 -0.00037177,-0.00010393,0.00006096,-0.00036204,-0.00001715,0.00003461,
 -0.00001878,0.16691579,0.00123567,-0.04199504,-0.16670552,-0.00230962,
 0.04182615,-0.04597765,0.01057885,0.01365470,0.00792518,0.00572128,0.0
 0102338,-0.00791288,-0.00015967,0.00209071,0.00781290,-0.00607993,-0.0
 0035324,-0.04694187,-0.01242027,0.01120583,-0.27166419,-0.00181112,0.0
 3286137,0.00127835,-0.00025428,-0.00104145,-0.00144141,-0.00030191,0.0
 0021809,-0.00146783,0.00027703,0.00027973,0.00131137,0.00052600,-0.000
 95586,-0.00239601,0.00005348,-0.00017404,0.00487238,0.00006143,-0.0009
 4461,0.42269636,0.03330790,0.00806438,-0.01299916,-0.00055546,-0.00503
 368,-0.00246501,-0.00021779,0.00053894,0.00029979,0.00041985,-0.005789
 45,-0.00046750,-0.03663912,0.00542119,0.01330875,-0.00496751,-0.071012
 76,0.00094745,-0.00100174,0.00282941,0.00109802,0.00152712,0.00010729,
 0.00047454,-0.00159593,0.00023652,-0.00018187,0.00140145,0.00295247,0.
 00045138,-0.00005933,0.00076072,0.00011127,0.00016417,0.00000637,-0.00
 003274,0.01052329,0.09343583,0.02283981,-0.00182316,0.00254478,-0.0006
 9187,-0.00407592,0.00632585,0.00258171,0.00029470,-0.00214123,-0.00052
 104,0.00116294,0.00719385,0.01459516,0.00200238,0.00615218,0.05950228,
 0.00067101,-0.08182813,-0.00167757,0.00110834,-0.00338815,0.00062042,0
 .00024241,-0.00101652,0.00024820,0.00004640,-0.00111932,-0.00139980,0.
 00045226,-0.00354423,0.00077851,0.00010139,-0.00015057,-0.00181219,-0.
 00002375,0.00036325,-0.11794882,-0.02962801,0.35043782,0.00046746,-0.0
 0279929,0.00032726,-0.00139169,0.00013379,-0.00077104,0.00128438,0.000
 03788,-0.00037644,-0.00138449,0.00005630,-0.00080190,0.00041166,0.0026
 5104,0.00094142,-0.02860389,-0.00449367,0.03977582,0.00011209,0.000212
 43,0.00034060,-0.00001600,-0.00002656,0.00012200,-0.00001648,-0.000003
 18,0.00013403,0.00010498,-0.00029747,0.00029021,0.00047726,-0.00001345
 ,0.00007065,-0.00086455,-0.00001087,0.00016630,-0.07081409,-0.00016501
 ,0.00365811,0.61646884,0.00650454,0.00004969,0.00126045,-0.00067228,-0
 .00153228,0.00090032,0.00040368,0.00063896,-0.00006010,0.00010388,-0.0
 0085512,-0.00110908,-0.00431490,0.00105639,-0.00166845,-0.00329430,-0.
 00753819,0.00050427,0.00003296,-0.00031353,-0.00054735,0.00010148,0.00
 006570,-0.00044736,0.00003021,-0.00004033,0.00043233,-0.00014362,-0.00
 044356,0.00040391,0.00012968,-0.00001261,-0.00000823,-0.00025126,-0.00
 001713,0.00006083,-0.00259422,-0.04702111,0.01782246,-0.00439540,0.569
 36041,-0.00856461,0.00238720,0.00268204,0.00238821,0.00170547,0.000082
 90,-0.00346423,-0.00002808,0.00117642,0.00244106,-0.00198064,-0.000601
 43,-0.00989937,-0.00259045,0.00173110,0.02965314,0.00060928,-0.0152520
 1,0.00043290,-0.00016821,0.00012156,-0.00054908,-0.00000380,0.00001144
 ,-0.00055733,0.00000291,0.00011795,0.00041412,0.00002250,0.00025870,-0
 .00113751,0.00000429,0.00005102,0.00219550,0.00003978,-0.00054050,0.02
 416089,0.01760972,-0.19568524,0.03313765,0.01618985,0.43168284,-0.0003
 8152,0.00005610,-0.00035139,-0.00000363,0.00010828,0.00001015,0.000194
 64,-0.00008679,-0.00008718,-0.00030837,0.00024270,0.00001622,0.0009996
 6,-0.00033014,-0.00070792,0.00202283,0.00247608,0.00126037,0.00001095,
 -0.00005773,-0.00002000,0.00000672,-0.00000974,0.00006034,0.00007654,-
 0.00001866,0.00006362,0.00004239,-0.00005905,0.00015931,0.00005184,-0.
 00003327,-0.00001246,-0.00011971,0.00000175,0.00002644,0.00449882,0.00
 598343,0.00797307,-0.09545727,-0.07835821,-0.05200234,0.09164705,-0.00
 002490,-0.00045533,-0.00039242,-0.00014127,0.00006947,0.00002352,0.000
 15158,-0.00000163,-0.00006880,0.00012097,0.00008496,0.00002417,0.00106
 042,0.00004587,-0.00016096,-0.00038890,0.00107565,0.00067775,-0.000025
 22,0.00009123,0.00011145,0.00000537,-0.00000704,0.00001704,0.00004054,
 0.00000316,0.00000868,-0.00013336,-0.00003935,0.00003111,0.00004428,0.
 00002141,-0.00001705,-0.00006047,-0.00000121,0.00002911,0.00388122,0.0
 1004456,0.00174642,-0.07806193,-0.20872522,-0.09883657,0.08499059,0.21
 642498,0.00224072,-0.00047425,0.00018218,-0.00074379,-0.00045237,0.000
 23581,0.00030627,0.00028266,-0.00014496,0.00031189,0.00015827,-0.00008
 521,0.00027981,0.00008136,0.00004716,-0.00788058,-0.00141564,0.0007423
 7,-0.00009398,0.00009669,-0.00004631,0.00006895,0.00002108,-0.00009939
 ,0.00007856,-0.00000443,0.00003502,-0.00004639,0.00029738,-0.00035591,
 0.00014345,0.00009246,0.00000992,-0.00024183,-0.00000392,0.00005516,-0
 .00262936,-0.01998925,-0.03783799,-0.04855542,-0.09614754,-0.10921462,
 0.05341831,0.10904658,0.13497342,-0.00015626,-0.00017623,0.00012301,0.
 00014880,0.00004457,-0.00008048,-0.00024061,-0.00000594,0.00008528,0.0
 0015477,-0.00002859,-0.00008976,-0.00015706,0.00014504,0.00016095,0.00
 229993,-0.00015167,0.00113285,0.00000089,-0.00001273,-0.00002837,-0.00
 002256,-0.00000518,0.00000131,-0.00002226,0.00000507,0.00000316,0.0000
 0072,0.00002063,-0.00002762,-0.00014289,0.00000096,0.00000668,0.000216
 38,0.00000277,-0.00004239,-0.00606468,-0.00049653,0.00482061,-0.328707
 32,0.00140856,0.01219984,-0.00927932,0.00095872,-0.00031759,0.35070234
 ,0.00007563,-0.00005480,0.00002071,-0.00032506,-0.00001274,-0.00001018
 ,-0.00002046,0.00015660,0.00003335,0.00032308,-0.00007765,-0.00007614,
 -0.00032235,-0.00002314,0.00001187,-0.00002752,0.00054432,0.00062588,0
 .00003519,0.00005098,0.00018111,-0.00001842,0.00000069,-0.00002372,-0.
 00000040,-0.00000607,0.00003697,-0.00001436,0.00006553,-0.00012497,-0.
 00001109,0.00002545,0.00000484,0.00001737,-0.00000023,-0.00000323,-0.0
 0484105,0.00095292,0.00188665,0.00295314,-0.05354735,-0.00098106,-0.02
 560007,0.00176044,0.00156635,-0.00107828,0.04817801,0.00107647,0.00013
 080,-0.00017282,-0.00005063,-0.00032179,0.00029196,0.00020776,0.000032
 08,-0.00012860,0.00003201,0.00023389,0.00035090,0.00102670,-0.00011709
 ,-0.00020368,0.00008490,0.00063674,-0.00476369,-0.00008061,-0.00006459
 ,-0.00016562,0.00008018,0.00000926,-0.00006133,0.00008225,0.00000235,-
 0.00005486,-0.00008457,0.00012187,-0.00017999,0.00010838,0.00000378,-0
 .00001552,-0.00016559,-0.00000195,0.00003056,0.04149002,0.00150622,-0.
 01522005,-0.00083693,-0.00084581,-0.04642067,-0.01599121,0.00160268,0.
 00321656,-0.01740651,-0.00136558,0.06105532,0.00098536,0.00046660,-0.0
 0061008,-0.00031644,-0.00023116,-0.00003996,0.00019272,0.00010104,-0.0
 0006307,-0.00000117,-0.00010707,-0.00001638,-0.00038680,0.00002352,-0.
 00034883,0.00199574,-0.00272113,0.00063095,0.00004604,0.00001910,0.000
 16874,0.00007572,0.00000184,0.00006578,0.00000650,-0.00000483,0.000060
 79,0.00001297,0.00006309,-0.00000760,0.00005128,0.00003478,-0.00000400
 ,-0.00011794,-0.00000533,0.00002486,0.00428524,-0.00762877,0.00643342,
 -0.09207089,0.08530920,-0.03084884,0.00599838,-0.01241763,0.00366100,-
 0.00873086,0.02885465,-0.00957263,0.08797416,-0.00111566,0.00004074,0.
 00017152,-0.00018154,0.00012575,0.00002574,-0.00022182,0.00004153,0.00
 011488,0.00031058,-0.00002304,-0.00008516,-0.00050357,-0.00060770,0.00
 020866,0.00219523,0.00090012,-0.00066074,0.00014007,0.00001473,0.00005
 497,-0.00005924,0.00000701,-0.00001689,-0.00002152,-0.00000289,0.00000
 483,0.00004873,0.00012877,-0.00006881,-0.00007679,0.00003877,0.0000240
 4,0.00011777,0.00000535,-0.00004134,-0.00316014,0.00350642,0.00801348,
 0.08422225,-0.25112471,0.06601780,0.01069473,-0.02039196,0.00684457,-0
 .00063118,0.00198702,-0.00156286,-0.09175791,0.26535409,0.00002024,-0.
 00008762,0.00006661,0.00027315,-0.00011467,-0.00011793,0.00025652,-0.0
 0024398,-0.00018620,-0.00068125,0.00040545,0.00032588,0.00219158,0.000
 23723,0.00033984,-0.00754281,0.00161230,0.00094499,-0.00001931,-0.0002
 0721,-0.00041362,0.00006674,-0.00000395,0.00003199,0.00006554,0.000000
 65,-0.00010331,-0.00008681,-0.00005246,-0.00008586,0.00012721,-0.00008
 844,-0.00000688,-0.00022071,-0.00000298,0.00004683,-0.00293732,0.02995
 639,-0.03108629,-0.02762230,0.06325952,-0.07020148,0.00618468,-0.01384
 269,0.00828678,-0.00054098,-0.00178285,0.00244153,0.03046585,-0.079044
 70,0.08971715||-0.00001222,0.00000004,0.00000869,0.00001345,0.00000620
 ,-0.00000051,0.00000800,0.00000100,-0.00000598,0.00001335,-0.00000628,
 -0.00000201,-0.00001227,-0.00000181,0.00000843,-0.00001209,0.00000295,
 -0.00002416,-0.00000087,-0.00000357,0.00000014,-0.00000687,-0.00000370
 ,0.00000001,-0.00000686,0.00000371,0.00000091,-0.00000080,0.00000345,0
 .00000098,0.00007381,0.00000045,-0.00001307,-0.00007357,-0.00000079,0.
 00001394,0.00002149,-0.00000293,0.00002362,-0.00000308,0.00000372,-0.0
 0003150,0.00000375,0.00000741,0.00000911,-0.00000880,-0.00000042,0.000
 00425,0.00000357,-0.00000941,0.00000713|||@


 YOU ARE IN A MAZE OF TWISTY LITTLE PASSAGES.
 Job cpu time:       0 days  0 hours 43 minutes  7.0 seconds.
 File lengths (MBytes):  RWF=    151 Int=      0 D2E=      0 Chk=      5 Scr=      1
 Normal termination of Gaussian 09 at Thu Aug 24 15:00:36 2023.
