 Entering Link 1 = C:\G09W\l1.exe PID=     18936.
  
 Copyright (c) 1988,1990,1992,1993,1995,1998,2003,2009,2013,
            Gaussian, Inc.  All Rights Reserved.
  
 This is part of the Gaussian(R) 09 program.  It is based on
 the Gaussian(R) 03 system (copyright 2003, Gaussian, Inc.),
 the Gaussian(R) 98 system (copyright 1998, Gaussian, Inc.),
 the Gaussian(R) 94 system (copyright 1995, Gaussian, Inc.),
 the Gaussian 92(TM) system (copyright 1992, Gaussian, Inc.),
 the Gaussian 90(TM) system (copyright 1990, Gaussian, Inc.),
 the Gaussian 88(TM) system (copyright 1988, Gaussian, Inc.),
 the Gaussian 86(TM) system (copyright 1986, Carnegie Mellon
 University), and the Gaussian 82(TM) system (copyright 1983,
 Carnegie Mellon University). Gaussian is a federally registered
 trademark of Gaussian, Inc.
  
 This software contains proprietary and confidential information,
 including trade secrets, belonging to Gaussian, Inc.
  
 This software is provided under written license and may be
 used, copied, transmitted, or stored only in accord with that
 written license.
  
 The following legend is applicable only to US Government
 contracts under FAR:
  
                    RESTRICTED RIGHTS LEGEND
  
 Use, reproduction and disclosure by the US Government is
 subject to restrictions as set forth in subparagraphs (a)
 and (c) of the Commercial Computer Software - Restricted
 Rights clause in FAR 52.227-19.
  
 Gaussian, Inc.
 340 Quinnipiac St., Bldg. 40, Wallingford CT 06492
  
  
 ---------------------------------------------------------------
 Warning -- This program may not be used in any manner that
 competes with the business of Gaussian, Inc. or will provide
 assistance to any competitor of Gaussian, Inc.  The licensee
 of this program is prohibited from giving any competitor of
 Gaussian, Inc. access to this program.  By using this program,
 the user acknowledges that Gaussian, Inc. is engaged in the
 business of creating and licensing software in the field of
 computational chemistry and represents and warrants to the
 licensee that it is not a competitor of Gaussian, Inc. and that
 it will not use this program in any manner prohibited above.
 ---------------------------------------------------------------
  

 Cite this work as:
 Gaussian 09, Revision D.01,
 M. J. Frisch, G. W. Trucks, H. B. Schlegel, G. E. Scuseria, 
 M. A. Robb, J. R. Cheeseman, G. Scalmani, V. Barone, B. Mennucci, 
 G. A. Petersson, H. Nakatsuji, M. Caricato, X. Li, H. P. Hratchian, 
 A. F. Izmaylov, J. Bloino, G. Zheng, J. L. Sonnenberg, M. Hada, 
 M. Ehara, K. Toyota, R. Fukuda, J. Hasegawa, M. Ishida, T. Nakajima, 
 Y. Honda, O. Kitao, H. Nakai, T. Vreven, J. A. Montgomery, Jr., 
 J. E. Peralta, F. Ogliaro, M. Bearpark, J. J. Heyd, E. Brothers, 
 K. N. Kudin, V. N. Staroverov, T. Keith, R. Kobayashi, J. Normand, 
 K. Raghavachari, A. Rendell, J. C. Burant, S. S. Iyengar, J. Tomasi, 
 M. Cossi, N. Rega, J. M. Millam, M. Klene, J. E. Knox, J. B. Cross, 
 V. Bakken, C. Adamo, J. Jaramillo, R. Gomperts, R. E. Stratmann, 
 O. Yazyev, A. J. Austin, R. Cammi, C. Pomelli, J. W. Ochterski, 
 R. L. Martin, K. Morokuma, V. G. Zakrzewski, G. A. Voth, 
 P. Salvador, J. J. Dannenberg, S. Dapprich, A. D. Daniels, 
 O. Farkas, J. B. Foresman, J. V. Ortiz, J. Cioslowski, 
 and D. J. Fox, Gaussian, Inc., Wallingford CT, 2013.
 
 ******************************************
 Gaussian 09:  EM64W-G09RevD.01 13-Apr-2013
                13-Sep-2023 
 ******************************************
 %nprocshared=2
 Will use up to    2 processors via shared memory.
 %mem=2GB
 %chk=E:\PROJECT- VIT group\ML\Substrates\molecule_15.chk
 -----------------------------------------------------
 # opt freq b3lyp/6-31g nosymm empiricaldispersion=gd3
 -----------------------------------------------------
 1/14=-1,18=20,19=15,26=3,38=1/1,3;
 2/9=110,12=2,15=1,17=6,18=5,40=1/2;
 3/5=1,6=6,11=2,16=1,25=1,30=1,71=1,74=-5,124=31/1,2,3;
 4//1;
 5/5=2,38=5/2;
 6/7=2,8=2,9=2,10=2,28=1/1;
 7/30=1/1,2,3,16;
 1/14=-1,18=20,19=15,26=3/3(2);
 2/9=110,15=1/2;
 99//99;
 2/9=110,15=1/2;
 3/5=1,6=6,11=2,16=1,25=1,30=1,71=1,74=-5,124=31/1,2,3;
 4/5=5,16=3,69=1/1;
 5/5=2,38=5/2;
 7/30=1/1,2,3,16;
 1/14=-1,18=20,19=15,26=3/3(-5);
 2/9=110,15=1/2;
 6/7=2,8=2,9=2,10=2,19=2,28=1/1;
 99/9=1/99;
 -----------
 molecule_15
 -----------
 Symbolic Z-matrix:
 Charge =  0 Multiplicity = 1
 C                    -3.57841  -0.55061   0. 
 C                    -2.18325  -0.55061   0. 
 C                    -1.48571   0.65714   0. 
 C                    -3.57819   1.86557  -0.00168 
 C                    -4.27579   0.65737  -0.00068 
 H                    -4.12817  -1.50293   0.00045 
 H                    -1.63374  -1.50312   0.00132 
 H                    -4.12832   2.81785  -0.00263 
 H                    -5.3754    0.65755  -0.00086 
 C                     0.05429   0.65725   0.00089 
 C                     1.25549   0.65734   0.00158 
 H                     2.32549   0.65742   0.0022 
 N                    -2.18337   1.86565  -0.0012 
 

 GradGradGradGradGradGradGradGradGradGradGradGradGradGradGradGradGradGrad
 Berny optimization.
 Initialization pass.
                           ----------------------------
                           !    Initial Parameters    !
                           ! (Angstroms and Degrees)  !
 --------------------------                            --------------------------
 ! Name  Definition              Value          Derivative Info.                !
 --------------------------------------------------------------------------------
 ! R1    R(1,2)                  1.3952         estimate D2E/DX2                !
 ! R2    R(1,5)                  1.3948         estimate D2E/DX2                !
 ! R3    R(1,6)                  1.0996         estimate D2E/DX2                !
 ! R4    R(2,3)                  1.3947         estimate D2E/DX2                !
 ! R5    R(2,7)                  1.0997         estimate D2E/DX2                !
 ! R6    R(3,10)                 1.54           estimate D2E/DX2                !
 ! R7    R(3,13)                 1.3954         estimate D2E/DX2                !
 ! R8    R(4,5)                  1.3951         estimate D2E/DX2                !
 ! R9    R(4,8)                  1.0998         estimate D2E/DX2                !
 ! R10   R(4,13)                 1.3948         estimate D2E/DX2                !
 ! R11   R(5,9)                  1.0996         estimate D2E/DX2                !
 ! R12   R(10,11)                1.2012         estimate D2E/DX2                !
 ! R13   R(11,12)                1.07           estimate D2E/DX2                !
 ! A1    A(2,1,5)              119.9985         estimate D2E/DX2                !
 ! A2    A(2,1,6)              119.9972         estimate D2E/DX2                !
 ! A3    A(5,1,6)              120.0043         estimate D2E/DX2                !
 ! A4    A(1,2,3)              120.0086         estimate D2E/DX2                !
 ! A5    A(1,2,7)              119.9808         estimate D2E/DX2                !
 ! A6    A(3,2,7)              120.0106         estimate D2E/DX2                !
 ! A7    A(2,3,10)             120.0128         estimate D2E/DX2                !
 ! A8    A(2,3,13)             119.9942         estimate D2E/DX2                !
 ! A9    A(10,3,13)            119.993          estimate D2E/DX2                !
 ! A10   A(5,4,8)              119.984          estimate D2E/DX2                !
 ! A11   A(5,4,13)             120.0047         estimate D2E/DX2                !
 ! A12   A(8,4,13)             120.0113         estimate D2E/DX2                !
 ! A13   A(1,5,4)              120.0            estimate D2E/DX2                !
 ! A14   A(1,5,9)              120.008          estimate D2E/DX2                !
 ! A15   A(4,5,9)              119.992          estimate D2E/DX2                !
 ! A16   A(3,13,4)             119.994          estimate D2E/DX2                !
 ! A17   L(3,10,11,7,-1)       180.0            estimate D2E/DX2                !
 ! A18   L(10,11,12,7,-1)      180.0            estimate D2E/DX2                !
 ! A19   L(3,10,11,7,-2)       180.0            estimate D2E/DX2                !
 ! A20   L(10,11,12,7,-2)      180.0            estimate D2E/DX2                !
 ! D1    D(5,1,2,3)              0.0323         estimate D2E/DX2                !
 ! D2    D(5,1,2,7)            179.9532         estimate D2E/DX2                !
 ! D3    D(6,1,2,3)           -179.9729         estimate D2E/DX2                !
 ! D4    D(6,1,2,7)             -0.052          estimate D2E/DX2                !
 ! D5    D(2,1,5,4)              0.0149         estimate D2E/DX2                !
 ! D6    D(2,1,5,9)            179.9892         estimate D2E/DX2                !
 ! D7    D(6,1,5,4)           -179.9798         estimate D2E/DX2                !
 ! D8    D(6,1,5,9)             -0.0056         estimate D2E/DX2                !
 ! D9    D(1,2,3,10)           179.9619         estimate D2E/DX2                !
 ! D10   D(1,2,3,13)            -0.0568         estimate D2E/DX2                !
 ! D11   D(7,2,3,10)             0.041          estimate D2E/DX2                !
 ! D12   D(7,2,3,13)          -179.9777         estimate D2E/DX2                !
 ! D13   D(2,3,13,4)             0.0341         estimate D2E/DX2                !
 ! D14   D(10,3,13,4)         -179.9846         estimate D2E/DX2                !
 ! D15   D(8,4,5,1)            179.975          estimate D2E/DX2                !
 ! D16   D(8,4,5,9)              0.0007         estimate D2E/DX2                !
 ! D17   D(13,4,5,1)            -0.0376         estimate D2E/DX2                !
 ! D18   D(13,4,5,9)           179.9881         estimate D2E/DX2                !
 ! D19   D(5,4,13,3)             0.0131         estimate D2E/DX2                !
 ! D20   D(8,4,13,3)          -179.9995         estimate D2E/DX2                !
 --------------------------------------------------------------------------------
 Trust Radius=3.00D-01 FncErr=1.00D-07 GrdErr=1.00D-06
 Number of steps in this run=     63 maximum allowed number of steps=    100.
 GradGradGradGradGradGradGradGradGradGradGradGradGradGradGradGradGradGrad

                          Input orientation:                          
 ---------------------------------------------------------------------
 Center     Atomic      Atomic             Coordinates (Angstroms)
 Number     Number       Type             X           Y           Z
 ---------------------------------------------------------------------
      1          6           0       -3.578412   -0.550608    0.000000
      2          6           0       -2.183252   -0.550608    0.000000
      3          6           0       -1.485714    0.657143    0.000000
      4          6           0       -3.578193    1.865574   -0.001678
      5          6           0       -4.275794    0.657368   -0.000682
      6          1           0       -4.128171   -1.502925    0.000450
      7          1           0       -1.633744   -1.503121    0.001315
      8          1           0       -4.128315    2.817855   -0.002631
      9          1           0       -5.375398    0.657551   -0.000862
     10          6           0        0.054285    0.657255    0.000888
     11          6           0        1.255485    0.657342    0.001580
     12          1           0        2.325485    0.657420    0.002197
     13          7           0       -2.183368    1.865652   -0.001199
 ---------------------------------------------------------------------
                    Distance matrix (angstroms):
                    1          2          3          4          5
     1  C    0.000000
     2  C    1.395160   0.000000
     3  C    2.416205   1.394712   0.000000
     4  C    2.416183   2.789946   2.416356   0.000000
     5  C    1.394829   2.416183   2.790080   1.395138   0.000000
     6  H    1.099610   2.165553   3.412986   3.413102   2.165331
     7  H    2.165414   1.099655   2.165330   3.889601   3.412938
     8  H    3.413055   3.889707   3.413506   1.099761   2.165516
     9  H    2.165365   3.413128   3.889684   2.165471   1.099604
    10  C    3.828241   2.542737   1.540000   3.828178   4.330080
    11  C    4.982541   3.644731   2.741200   4.982397   5.531280
    12  H    6.026221   4.667767   3.811200   6.026033   6.601280
    13  N    2.790065   2.416260   1.395427   1.394825   2.416236
                    6          7          8          9         10
     6  H    0.000000
     7  H    2.494427   0.000000
     8  H    4.320781   4.989362   0.000000
     9  H    2.494641   4.320704   2.494420   0.000000
    10  C    4.707369   2.741654   4.707691   5.429684   0.000000
    11  C    5.800906   3.607665   5.801133   6.630884   1.201200
    12  H    6.805643   4.510370   6.805809   7.700884   2.271200
    13  N    3.889675   3.413316   2.165528   3.412999   2.543093
                   11         12         13
    11  C    0.000000
    12  H    1.070000   0.000000
    13  N    3.644960   4.667933   0.000000
 Symmetry turned off by external request.
 Stoichiometry    C7H5N
 Framework group  C1[X(C7H5N)]
 Deg. of freedom    33
 Full point group                 C1      NOp   1
 Rotational constants (GHZ):      5.8031412      1.4720202      1.1741789
 Standard basis: 6-31G (6D, 7F)
    82 basis functions,   196 primitive gaussians,    82 cartesian basis functions
    27 alpha electrons       27 beta electrons
       nuclear repulsion energy       295.9807628135 Hartrees.
 NAtoms=   13 NActive=   13 NUniq=   13 SFac= 1.00D+00 NAtFMM=   60 NAOKFM=F Big=F
 Integral buffers will be    131072 words long.
 Raffenetti 2 integral format.
 Two-electron integral symmetry is turned off.
 Nuclear repulsion after empirical dispersion term =      295.9744734359 Hartrees.
 One-electron integrals computed using PRISM.
 NBasis=    82 RedAO= T EigKep=  4.80D-04  NBF=    82
 NBsUse=    82 1.00D-06 EigRej= -1.00D+00 NBFU=    82
 ExpMin= 1.61D-01 ExpMax= 4.17D+03 ExpMxC= 6.27D+02 IAcc=1 IRadAn=         1 AccDes= 0.00D+00
 Harris functional with IExCor=  402 and IRadAn=       1 diagonalized for initial guess.
 HarFok:  IExCor=  402 AccDes= 0.00D+00 IRadAn=         1 IDoV= 1 UseB2=F ITyADJ=14
 ICtDFT=  3500011 ScaDFX=  1.000000  1.000000  1.000000  1.000000
 FoFCou: FMM=F IPFlag=           0 FMFlag=      100000 FMFlg1=           0
         NFxFlg=           0 DoJE=T BraDBF=F KetDBF=T FulRan=T
         wScrn=  0.000000 ICntrl=     500 IOpCl=  0 I1Cent=   200000004 NGrid=           0
         NMat0=    1 NMatS0=      1 NMatT0=    0 NMatD0=    1 NMtDS0=    0 NMtDT0=    0
 Symmetry not used in FoFCou.
 Keep R1 ints in memory in canonical form, NReq=6734274.
 Requested convergence on RMS density matrix=1.00D-08 within 128 cycles.
 Requested convergence on MAX density matrix=1.00D-06.
 Requested convergence on             energy=1.00D-06.
 No special actions if energy rises.
 Integral accuracy reduced to 1.0D-05 until final iterations.
 Initial convergence to 1.0D-05 achieved.  Increase integral accuracy.
 SCF Done:  E(RB3LYP) =  -324.335914326     A.U. after   16 cycles
            NFock= 16  Conv=0.48D-08     -V/T= 2.0070

 **********************************************************************

            Population analysis using the SCF density.

 **********************************************************************

 Alpha  occ. eigenvalues --  -14.34719 -10.26732 -10.23830 -10.21697 -10.21163
 Alpha  occ. eigenvalues --  -10.20941 -10.20021 -10.18892  -0.94220  -0.81210
 Alpha  occ. eigenvalues --   -0.79203  -0.74868  -0.64733  -0.63740  -0.55505
 Alpha  occ. eigenvalues --   -0.52190  -0.49402  -0.48441  -0.45492  -0.41211
 Alpha  occ. eigenvalues --   -0.40486  -0.38259  -0.31592  -0.28761  -0.28636
 Alpha  occ. eigenvalues --   -0.25617  -0.25031
 Alpha virt. eigenvalues --   -0.04492  -0.02771   0.05004   0.07925   0.08404
 Alpha virt. eigenvalues --    0.11766   0.12823   0.15310   0.15492   0.16866
 Alpha virt. eigenvalues --    0.19376   0.24997   0.30007   0.30588   0.32255
 Alpha virt. eigenvalues --    0.44609   0.45586   0.48120   0.50229   0.51817
 Alpha virt. eigenvalues --    0.53807   0.55375   0.56400   0.59057   0.60978
 Alpha virt. eigenvalues --    0.61366   0.61581   0.62847   0.66101   0.66128
 Alpha virt. eigenvalues --    0.67607   0.68814   0.75329   0.75702   0.81305
 Alpha virt. eigenvalues --    0.81949   0.82971   0.85482   0.87556   0.88178
 Alpha virt. eigenvalues --    0.89862   0.93877   0.97346   1.01221   1.04994
 Alpha virt. eigenvalues --    1.12037   1.15104   1.18070   1.20408   1.28860
 Alpha virt. eigenvalues --    1.34713   1.47315   1.52281   1.64794   1.84344
          Condensed to atoms (all electrons):
               1          2          3          4          5          6
     1  C    4.916816   0.510942  -0.052149  -0.051127   0.530128   0.357797
     2  C    0.510942   5.100051   0.451682  -0.040020  -0.051913  -0.031332
     3  C   -0.052149   0.451682   5.041899  -0.050962  -0.029156   0.003454
     4  C   -0.051127  -0.040020  -0.050962   4.902944   0.440336   0.004143
     5  C    0.530128  -0.051913  -0.029156   0.440336   5.038837  -0.034886
     6  H    0.357797  -0.031332   0.003454   0.004143  -0.034886   0.563050
     7  H   -0.033683   0.343350  -0.026450   0.000125   0.004776  -0.004469
     8  H    0.003393  -0.000279   0.004425   0.378193  -0.061818  -0.000152
     9  H   -0.034975   0.004783   0.000796  -0.024415   0.340004  -0.004596
    10  C    0.003294  -0.106958   0.225736   0.007254  -0.000257  -0.000222
    11  C   -0.000017  -0.016052  -0.204197   0.000148   0.000010  -0.000005
    12  H    0.000001  -0.000143   0.001181   0.000001   0.000000   0.000000
    13  N   -0.042071  -0.077621   0.444905   0.394964  -0.050015   0.000056
               7          8          9         10         11         12
     1  C   -0.033683   0.003393  -0.034975   0.003294  -0.000017   0.000001
     2  C    0.343350  -0.000279   0.004783  -0.106958  -0.016052  -0.000143
     3  C   -0.026450   0.004425   0.000796   0.225736  -0.204197   0.001181
     4  C    0.000125   0.378193  -0.024415   0.007254   0.000148   0.000001
     5  C    0.004776  -0.061818   0.340004  -0.000257   0.000010   0.000000
     6  H   -0.004469  -0.000152  -0.004596  -0.000222  -0.000005   0.000000
     7  H    0.555761   0.000015  -0.000095   0.001242   0.000781   0.000007
     8  H    0.000015   0.561121  -0.000198   0.000057   0.000003   0.000000
     9  H   -0.000095  -0.000198   0.573332   0.000027   0.000000   0.000000
    10  C    0.001242   0.000057   0.000027   5.040443   0.716621   0.013150
    11  C    0.000781   0.000003   0.000000   0.716621   5.706488   0.323075
    12  H    0.000007   0.000000   0.000000   0.013150   0.323075   0.419516
    13  N    0.004314  -0.040898   0.004503  -0.076559  -0.010313  -0.000078
              13
     1  C   -0.042071
     2  C   -0.077621
     3  C    0.444905
     4  C    0.394964
     5  C   -0.050015
     6  H    0.000056
     7  H    0.004314
     8  H   -0.040898
     9  H    0.004503
    10  C   -0.076559
    11  C   -0.010313
    12  H   -0.000078
    13  N    6.856556
 Mulliken charges:
               1
     1  C   -0.108349
     2  C   -0.086490
     3  C    0.188837
     4  C    0.038415
     5  C   -0.126047
     6  H    0.147163
     7  H    0.154327
     8  H    0.156138
     9  H    0.140832
    10  C    0.176171
    11  C   -0.516543
    12  H    0.243289
    13  N   -0.407742
 Sum of Mulliken charges =   0.00000
 Mulliken charges with hydrogens summed into heavy atoms:
               1
     1  C    0.038813
     2  C    0.067837
     3  C    0.188837
     4  C    0.194552
     5  C    0.014785
    10  C    0.176171
    11  C   -0.273254
    13  N   -0.407742
 Electronic spatial extent (au):  <R**2>=           1847.6265
 Charge=              0.0000 electrons
 Dipole moment (field-independent basis, Debye):
    X=             -1.5267    Y=             -2.1187    Z=              0.0014  Tot=              2.6115
 Quadrupole moment (field-independent basis, Debye-Ang):
   XX=            -27.2959   YY=            -47.8954   ZZ=            -48.3532
   XY=              1.5917   XZ=              0.0053   YZ=             -0.0021
 Traceless Quadrupole moment (field-independent basis, Debye-Ang):
   XX=             13.8856   YY=             -6.7139   ZZ=             -7.1717
   XY=              1.5917   XZ=              0.0053   YZ=             -0.0021
 Octapole moment (field-independent basis, Debye-Ang**2):
  XXX=            210.4468  YYY=            -98.4559  ZZZ=              0.0165  XYY=             83.6733
  XXY=            -16.8462  XXZ=             -0.0051  XZZ=             98.5993  YZZ=            -29.9956
  YYZ=              0.0063  XYZ=              0.0185
 Hexadecapole moment (field-independent basis, Debye-Ang**3):
 XXXX=          -1693.5487 YYYY=           -410.0334 ZZZZ=            -48.6774 XXXY=            117.7033
 XXXZ=             -0.1027 YYYX=            170.9312 YYYZ=              0.0682 ZZZX=             -0.2635
 ZZZY=              0.0899 XXYY=           -356.2566 XXZZ=           -389.1345 YYZZ=            -78.1748
 XXYZ=             -0.0457 YYXZ=             -0.0552 ZZXY=             61.5069
 N-N= 2.959744734359D+02 E-N=-1.344465957181D+03  KE= 3.220813904680D+02
 Calling FoFJK, ICntrl=      2127 FMM=F ISym2X=0 I1Cent= 0 IOpClX= 0 NMat=1 NMatS=1 NMatT=0.
 -------------------------------------------------------------------
 Center     Atomic                   Forces (Hartrees/Bohr)
 Number     Number              X              Y              Z
 -------------------------------------------------------------------
      1        6          -0.004545850   -0.009754242   -0.000016371
      2        6           0.006943627   -0.020484378    0.000139001
      3        6           0.023297906    0.028697441   -0.000060510
      4        6           0.037309744   -0.013189749    0.000049948
      5        6          -0.018076890    0.000914399   -0.000052992
      6        1           0.005352921    0.008246935    0.000000687
      7        1          -0.004211534    0.008907113   -0.000052812
      8        1           0.013474235   -0.005294427    0.000009180
      9        1           0.009122242    0.000332152    0.000009547
     10        6          -0.088125560    0.008228892   -0.000056933
     11        6           0.030023664   -0.001600238    0.000019196
     12        1          -0.004519603    0.000086864   -0.000002579
     13        7          -0.006044902   -0.005090763    0.000014639
 -------------------------------------------------------------------
 Cartesian Forces:  Max     0.088125560 RMS     0.018363113

 GradGradGradGradGradGradGradGradGradGradGradGradGradGradGradGradGradGrad
 Berny optimization.
 FormGI is forming the generalized inverse of G from B-inverse, IUseBI=4.
 Internal  Forces:  Max     0.062621157 RMS     0.013537887
 Search for a local minimum.
 Step number   1 out of a maximum of   63
 All quantities printed in internal units (Hartrees-Bohrs-Radians)
 Mixed Optimization -- RFO/linear search
 Second derivative matrix not updated -- first step.
 ITU=  0
     Eigenvalues ---    0.00499   0.00499   0.01839   0.02005   0.02037
     Eigenvalues ---    0.02110   0.02154   0.02155   0.02155   0.02156
     Eigenvalues ---    0.04718   0.04718   0.16000   0.16000   0.16000
     Eigenvalues ---    0.16000   0.22000   0.22409   0.24406   0.25000
     Eigenvalues ---    0.28519   0.33709   0.33720   0.33725   0.33726
     Eigenvalues ---    0.37230   0.42262   0.42805   0.46412   0.46453
     Eigenvalues ---    0.46466   0.46497   1.04222
 RFO step:  Lambda=-2.71108420D-02 EMin= 4.99391710D-03
 Linear search not attempted -- first point.
 Iteration  1 RMS(Cart)=  0.07613464 RMS(Int)=  0.00098136
 Iteration  2 RMS(Cart)=  0.00136284 RMS(Int)=  0.00005750
 Iteration  3 RMS(Cart)=  0.00000171 RMS(Int)=  0.00005749
 Iteration  4 RMS(Cart)=  0.00000000 RMS(Int)=  0.00005749
 Variable       Old X    -DE/DX   Delta X   Delta X   Delta X     New X
                                 (Linear)    (Quad)   (Total)
    R1        2.63647  -0.00306   0.00000  -0.00250  -0.00243   2.63404
    R2        2.63584  -0.00055   0.00000   0.00185   0.00194   2.63778
    R3        2.07796  -0.00982   0.00000  -0.02695  -0.02695   2.05102
    R4        2.63562   0.00786   0.00000   0.01672   0.01670   2.65232
    R5        2.07805  -0.00982   0.00000  -0.02695  -0.02695   2.05109
    R6        2.91018  -0.06262   0.00000  -0.20052  -0.20052   2.70966
    R7        2.63697  -0.03668   0.00000  -0.07768  -0.07777   2.55921
    R8        2.63643   0.00510   0.00000   0.00962   0.00964   2.64607
    R9        2.07825  -0.01132   0.00000  -0.03109  -0.03109   2.04715
   R10        2.63584  -0.03957   0.00000  -0.08416  -0.08423   2.55161
   R11        2.07795  -0.00912   0.00000  -0.02504  -0.02504   2.05292
   R12        2.26994   0.02550   0.00000   0.02385   0.02385   2.29379
   R13        2.02201  -0.00452   0.00000  -0.01132  -0.01132   2.01069
    A1        2.09437  -0.01022   0.00000  -0.02670  -0.02652   2.06784
    A2        2.09435   0.00458   0.00000   0.01050   0.01041   2.10476
    A3        2.09447   0.00564   0.00000   0.01620   0.01611   2.11058
    A4        2.09455  -0.00782   0.00000  -0.02148  -0.02142   2.07313
    A5        2.09406   0.00475   0.00000   0.01520   0.01517   2.10923
    A6        2.09458   0.00308   0.00000   0.00628   0.00625   2.10083
    A7        2.09462  -0.00080   0.00000  -0.00138  -0.00133   2.09329
    A8        2.09429   0.01791   0.00000   0.06162   0.06152   2.15581
    A9        2.09427  -0.01711   0.00000  -0.06024  -0.06019   2.03409
   A10        2.09411   0.00051   0.00000   0.01820   0.01822   2.11233
   A11        2.09448   0.01772   0.00000   0.06377   0.06373   2.15821
   A12        2.09459  -0.01823   0.00000  -0.08197  -0.08195   2.01264
   A13        2.09440  -0.00633   0.00000  -0.02002  -0.01990   2.07450
   A14        2.09453   0.00351   0.00000   0.01186   0.01180   2.10633
   A15        2.09426   0.00282   0.00000   0.00816   0.00810   2.10236
   A16        2.09429  -0.01125   0.00000  -0.05719  -0.05741   2.03688
   A17        3.14159  -0.00326   0.00000  -0.04382  -0.04382   3.09777
   A18        3.14159   0.00018   0.00000   0.00557   0.00557   3.14716
   A19        3.14159   0.00000   0.00000   0.00002   0.00002   3.14161
   A20        3.14159   0.00000   0.00000   0.00000   0.00000   3.14159
    D1        0.00056  -0.00003   0.00000  -0.00037  -0.00036   0.00021
    D2        3.14078   0.00001   0.00000   0.00040   0.00041   3.14119
    D3       -3.14112  -0.00002   0.00000  -0.00035  -0.00033  -3.14145
    D4       -0.00091   0.00002   0.00000   0.00043   0.00043  -0.00047
    D5        0.00026  -0.00002   0.00000  -0.00018  -0.00016   0.00010
    D6        3.14140   0.00000   0.00000   0.00014   0.00015   3.14155
    D7       -3.14124  -0.00002   0.00000  -0.00020  -0.00019  -3.14143
    D8       -0.00010   0.00000   0.00000   0.00011   0.00012   0.00002
    D9        3.14093   0.00002   0.00000   0.00033   0.00033   3.14125
   D10       -0.00099   0.00002   0.00000   0.00058   0.00059  -0.00040
   D11        0.00072  -0.00002   0.00000  -0.00045  -0.00044   0.00027
   D12       -3.14120  -0.00002   0.00000  -0.00020  -0.00018  -3.14138
   D13        0.00060  -0.00001   0.00000  -0.00034  -0.00034   0.00025
   D14       -3.14132   0.00000   0.00000  -0.00008  -0.00008  -3.14140
   D15        3.14116   0.00001   0.00000   0.00020   0.00019   3.14135
   D16        0.00001  -0.00001   0.00000  -0.00012  -0.00012  -0.00010
   D17       -0.00066   0.00002   0.00000   0.00040   0.00040  -0.00026
   D18        3.14138   0.00000   0.00000   0.00008   0.00009   3.14148
   D19        0.00023   0.00000   0.00000  -0.00014  -0.00015   0.00008
   D20       -3.14158   0.00000   0.00000   0.00007   0.00006  -3.14152
         Item               Value     Threshold  Converged?
 Maximum Force            0.062621     0.000450     NO 
 RMS     Force            0.013538     0.000300     NO 
 Maximum Displacement     0.276418     0.001800     NO 
 RMS     Displacement     0.076272     0.001200     NO 
 Predicted change in Energy=-1.468595D-02
 GradGradGradGradGradGradGradGradGradGradGradGradGradGradGradGradGradGrad

                          Input orientation:                          
 ---------------------------------------------------------------------
 Center     Atomic      Atomic             Coordinates (Angstroms)
 Number     Number       Type             X           Y           Z
 ---------------------------------------------------------------------
      1          6           0       -3.570076   -0.576912    0.000040
      2          6           0       -2.176232   -0.567880    0.000346
      3          6           0       -1.508449    0.666629    0.000010
      4          6           0       -3.495588    1.829398   -0.001507
      5          6           0       -4.243602    0.645697   -0.000845
      6          1           0       -4.116397   -1.514740    0.000418
      7          1           0       -1.613625   -1.496076    0.001408
      8          1           0       -3.982041    2.797342   -0.002427
      9          1           0       -5.329401    0.680462   -0.001148
     10          6           0       -0.075067    0.704819    0.000736
     11          6           0        1.138575    0.683960    0.001408
     12          1           0        2.202515    0.671601    0.001994
     13          7           0       -2.145718    1.861595   -0.001053
 ---------------------------------------------------------------------
                    Distance matrix (angstroms):
                    1          2          3          4          5
     1  C    0.000000
     2  C    1.393873   0.000000
     3  C    2.407634   1.403548   0.000000
     4  C    2.407463   2.736356   2.302337   0.000000
     5  C    1.395855   2.397246   2.735233   1.400240   0.000000
     6  H    1.085351   2.158885   3.399965   3.401274   2.164179
     7  H    2.161611   1.085392   2.165262   3.821069   3.391751
     8  H    3.399310   3.819119   3.264751   1.083306   2.167485
     9  H    2.162456   3.391288   3.820977   2.164006   1.086356
    10  C    3.722624   2.456554   1.433892   3.600646   4.168955
    11  C    4.874546   3.543311   2.647081   4.773626   5.382313
    12  H    5.906064   4.550795   3.710968   5.814541   6.446169
    13  N    2.824025   2.429667   1.354273   1.350254   2.424773
                    6          7          8          9         10
     6  H    0.000000
     7  H    2.502841   0.000000
     8  H    4.314175   4.903350   0.000000
     9  H    2.508046   4.306311   2.509295   0.000000
    10  C    4.610725   2.685349   4.432055   5.254391   0.000000
    11  C    5.696403   3.511006   5.539594   6.467978   1.213821
    12  H    6.686459   4.388821   6.539688   7.531922   2.277824
    13  N    3.909375   3.399571   2.060996   3.395720   2.371863
                   11         12         13
    11  C    0.000000
    12  H    1.064012   0.000000
    13  N    3.489042   4.508129   0.000000
 Symmetry turned off by external request.
 Stoichiometry    C7H5N
 Framework group  C1[X(C7H5N)]
 Deg. of freedom    33
 Full point group                 C1      NOp   1
 Rotational constants (GHZ):      5.8030018      1.5764302      1.2396655
 Standard basis: 6-31G (6D, 7F)
    82 basis functions,   196 primitive gaussians,    82 cartesian basis functions
    27 alpha electrons       27 beta electrons
       nuclear repulsion energy       301.4135095057 Hartrees.
 NAtoms=   13 NActive=   13 NUniq=   13 SFac= 1.00D+00 NAtFMM=   60 NAOKFM=F Big=F
 Integral buffers will be    131072 words long.
 Raffenetti 2 integral format.
 Two-electron integral symmetry is turned off.
 Nuclear repulsion after empirical dispersion term =      301.4071021903 Hartrees.
 One-electron integrals computed using PRISM.
 NBasis=    82 RedAO= T EigKep=  4.15D-04  NBF=    82
 NBsUse=    82 1.00D-06 EigRej= -1.00D+00 NBFU=    82
 Initial guess from the checkpoint file:  "E:\PROJECT- VIT group\ML\Substrates\molecule_15.chk"
 B after Tr=    -0.011701    0.012956    0.000023
         Rot=    0.999998    0.000007   -0.000005   -0.001951 Ang=   0.22 deg.
 ExpMin= 1.61D-01 ExpMax= 4.17D+03 ExpMxC= 6.27D+02 IAcc=1 IRadAn=         1 AccDes= 0.00D+00
 Harris functional with IExCor=  402 and IRadAn=       1 diagonalized for initial guess.
 HarFok:  IExCor=  402 AccDes= 0.00D+00 IRadAn=         1 IDoV= 1 UseB2=F ITyADJ=14
 ICtDFT=  3500011 ScaDFX=  1.000000  1.000000  1.000000  1.000000
 FoFCou: FMM=F IPFlag=           0 FMFlag=      100000 FMFlg1=           0
         NFxFlg=           0 DoJE=T BraDBF=F KetDBF=T FulRan=T
         wScrn=  0.000000 ICntrl=     500 IOpCl=  0 I1Cent=   200000004 NGrid=           0
         NMat0=    1 NMatS0=      1 NMatT0=    0 NMatD0=    1 NMtDS0=    0 NMtDT0=    0
 Symmetry not used in FoFCou.
 Keep R1 ints in memory in canonical form, NReq=6734274.
 Requested convergence on RMS density matrix=1.00D-08 within 128 cycles.
 Requested convergence on MAX density matrix=1.00D-06.
 Requested convergence on             energy=1.00D-06.
 No special actions if energy rises.
 Integral accuracy reduced to 1.0D-05 until final iterations.
 Initial convergence to 1.0D-05 achieved.  Increase integral accuracy.
 SCF Done:  E(RB3LYP) =  -324.349367631     A.U. after   15 cycles
            NFock= 15  Conv=0.49D-08     -V/T= 2.0056
 Calling FoFJK, ICntrl=      2127 FMM=F ISym2X=0 I1Cent= 0 IOpClX= 0 NMat=1 NMatS=1 NMatT=0.
 -------------------------------------------------------------------
 Center     Atomic                   Forces (Hartrees/Bohr)
 Number     Number              X              Y              Z
 -------------------------------------------------------------------
      1        6           0.000484805   -0.001143568   -0.000011065
      2        6          -0.002547841   -0.004995976    0.000052676
      3        6           0.015363661   -0.000558931   -0.000010312
      4        6          -0.000486930    0.001854075    0.000002206
      5        6          -0.004506683    0.002579437   -0.000019597
      6        1           0.000164321    0.000415413    0.000004000
      7        1           0.000594506    0.001836195   -0.000020382
      8        1          -0.001463764    0.000738605    0.000003064
      9        1           0.001348216    0.001038581    0.000000731
     10        6           0.000380500   -0.001777342   -0.000000563
     11        6          -0.000426732   -0.000536727   -0.000000043
     12        1           0.000329245    0.000621308   -0.000000172
     13        7          -0.009233303   -0.000071071   -0.000000545
 -------------------------------------------------------------------
 Cartesian Forces:  Max     0.015363661 RMS     0.003198666

 GradGradGradGradGradGradGradGradGradGradGradGradGradGradGradGradGradGrad
 Berny optimization.
 Using GEDIIS/GDIIS optimizer.
 FormGI is forming the generalized inverse of G from B-inverse, IUseBI=4.
 Internal  Forces:  Max     0.007967889 RMS     0.002234630
 Search for a local minimum.
 Step number   2 out of a maximum of   63
 All quantities printed in internal units (Hartrees-Bohrs-Radians)
 Mixed Optimization -- RFO/linear search
 Update second derivatives using D2CorX and points    1    2
 DE= -1.35D-02 DEPred=-1.47D-02 R= 9.16D-01
 TightC=F SS=  1.41D+00  RLast= 2.89D-01 DXNew= 5.0454D-01 8.6762D-01
 Trust test= 9.16D-01 RLast= 2.89D-01 DXMaxT set to 5.05D-01
 ITU=  1  0
 Use linear search instead of GDIIS.
     Eigenvalues ---    0.00499   0.00499   0.01845   0.02014   0.02043
     Eigenvalues ---    0.02108   0.02154   0.02155   0.02155   0.02156
     Eigenvalues ---    0.04718   0.04749   0.15937   0.16000   0.16000
     Eigenvalues ---    0.16160   0.21893   0.22469   0.24856   0.25455
     Eigenvalues ---    0.30220   0.33539   0.33722   0.33724   0.33878
     Eigenvalues ---    0.37239   0.41576   0.43114   0.46233   0.46447
     Eigenvalues ---    0.46478   0.49919   1.04004
 RFO step:  Lambda=-8.68717171D-04 EMin= 4.99118932D-03
 Quartic linear search produced a step of -0.06110.
 Iteration  1 RMS(Cart)=  0.05300770 RMS(Int)=  0.00594294
 Iteration  2 RMS(Cart)=  0.00671822 RMS(Int)=  0.00005799
 Iteration  3 RMS(Cart)=  0.00007764 RMS(Int)=  0.00001704
 Iteration  4 RMS(Cart)=  0.00000001 RMS(Int)=  0.00001704
 Variable       Old X    -DE/DX   Delta X   Delta X   Delta X     New X
                                 (Linear)    (Quad)   (Total)
    R1        2.63404   0.00358   0.00015   0.00709   0.00724   2.64128
    R2        2.63778   0.00423  -0.00012   0.00843   0.00828   2.64606
    R3        2.05102  -0.00044   0.00165  -0.00418  -0.00253   2.04849
    R4        2.65232   0.00387  -0.00102   0.00995   0.00896   2.66128
    R5        2.05109  -0.00126   0.00165  -0.00646  -0.00481   2.04628
    R6        2.70966   0.00024   0.01225  -0.02179  -0.00954   2.70013
    R7        2.55921   0.00797   0.00475   0.00825   0.01303   2.57223
    R8        2.64607  -0.00153  -0.00059  -0.00249  -0.00311   2.64296
    R9        2.04715   0.00132   0.00190   0.00025   0.00215   2.04931
   R10        2.55161   0.00078   0.00515  -0.00739  -0.00224   2.54937
   R11        2.05292  -0.00131   0.00153  -0.00639  -0.00486   2.04805
   R12        2.29379  -0.00010  -0.00146   0.00225   0.00080   2.29459
   R13        2.01069   0.00032   0.00069  -0.00041   0.00028   2.01097
    A1        2.06784   0.00266   0.00162   0.00774   0.00933   2.07717
    A2        2.10476  -0.00126  -0.00064  -0.00384  -0.00446   2.10030
    A3        2.11058  -0.00140  -0.00098  -0.00390  -0.00487   2.10572
    A4        2.07313   0.00048   0.00131   0.00057   0.00190   2.07502
    A5        2.10923   0.00126  -0.00093   0.00903   0.00810   2.11733
    A6        2.10083  -0.00174  -0.00038  -0.00960  -0.00999   2.09084
    A7        2.09329   0.00194   0.00008   0.00650   0.00655   2.09984
    A8        2.15581  -0.00702  -0.00376  -0.01793  -0.02165   2.13417
    A9        2.03409   0.00508   0.00368   0.01144   0.01509   2.04918
   A10        2.11233  -0.00027  -0.00111   0.00047  -0.00063   2.11170
   A11        2.15821  -0.00147  -0.00389   0.00020  -0.00372   2.15449
   A12        2.01264   0.00173   0.00501  -0.00067   0.00435   2.01700
   A13        2.07450  -0.00098   0.00122  -0.00807  -0.00691   2.06759
   A14        2.10633   0.00160  -0.00072   0.01074   0.01005   2.11638
   A15        2.10236  -0.00062  -0.00049  -0.00267  -0.00314   2.09922
   A16        2.03688   0.00633   0.00351   0.01749   0.02105   2.05792
   A17        3.09777   0.00146   0.00268   0.01929   0.02197   3.11974
   A18        3.14716   0.00126  -0.00034   0.20780   0.20746   3.35462
   A19        3.14161   0.00000   0.00000   0.00000   0.00000   3.14161
   A20        3.14159   0.00000   0.00000   0.00001   0.00001   3.14161
    D1        0.00021  -0.00001   0.00002  -0.00037  -0.00035  -0.00015
    D2        3.14119   0.00001  -0.00003   0.00058   0.00055  -3.14144
    D3       -3.14145   0.00000   0.00002  -0.00033  -0.00031   3.14142
    D4       -0.00047   0.00001  -0.00003   0.00062   0.00060   0.00012
    D5        0.00010   0.00000   0.00001  -0.00016  -0.00015  -0.00005
    D6        3.14155   0.00000  -0.00001   0.00016   0.00015  -3.14148
    D7       -3.14143   0.00000   0.00001  -0.00020  -0.00019   3.14156
    D8        0.00002   0.00000  -0.00001   0.00012   0.00011   0.00014
    D9        3.14125   0.00001  -0.00002   0.00049   0.00046  -3.14147
   D10       -0.00040   0.00001  -0.00004   0.00070   0.00066   0.00026
   D11        0.00027  -0.00001   0.00003  -0.00047  -0.00044  -0.00016
   D12       -3.14138   0.00000   0.00001  -0.00025  -0.00024   3.14156
   D13        0.00025  -0.00001   0.00002  -0.00043  -0.00041  -0.00015
   D14       -3.14140   0.00000   0.00000  -0.00022  -0.00022   3.14157
   D15        3.14135   0.00001  -0.00001   0.00031   0.00030  -3.14154
   D16       -0.00010   0.00000   0.00001  -0.00002  -0.00001  -0.00011
   D17       -0.00026   0.00001  -0.00002   0.00045   0.00042   0.00017
   D18        3.14148   0.00000  -0.00001   0.00013   0.00012  -3.14159
   D19        0.00008   0.00000   0.00001  -0.00016  -0.00015  -0.00006
   D20       -3.14152   0.00000   0.00000  -0.00002  -0.00002  -3.14155
         Item               Value     Threshold  Converged?
 Maximum Force            0.007968     0.000450     NO 
 RMS     Force            0.002235     0.000300     NO 
 Maximum Displacement     0.329324     0.001800     NO 
 RMS     Displacement     0.055867     0.001200     NO 
 Predicted change in Energy=-5.189866D-04
 GradGradGradGradGradGradGradGradGradGradGradGradGradGradGradGradGradGrad

                          Input orientation:                          
 ---------------------------------------------------------------------
 Center     Atomic      Atomic             Coordinates (Angstroms)
 Number     Number       Type             X           Y           Z
 ---------------------------------------------------------------------
      1          6           0       -3.586505   -0.575537    0.000043
      2          6           0       -2.188932   -0.594607    0.000790
      3          6           0       -1.491784    0.629017    0.000179
      4          6           0       -3.480910    1.827032   -0.001400
      5          6           0       -4.248861    0.658134   -0.001109
      6          1           0       -4.146757   -1.503546    0.000329
      7          1           0       -1.638824   -1.527311    0.001550
      8          1           0       -3.951263    2.804166   -0.002233
      9          1           0       -5.331131    0.715386   -0.001612
     10          6           0       -0.063029    0.644979    0.000760
     11          6           0        1.151144    0.632007    0.001293
     12          1           0        2.193592    0.845872    0.001606
     13          7           0       -2.131847    1.830305   -0.000816
 ---------------------------------------------------------------------
                    Distance matrix (angstroms):
                    1          2          3          4          5
     1  C    0.000000
     2  C    1.397703   0.000000
     3  C    2.416362   1.408287   0.000000
     4  C    2.404889   2.744731   2.322039   0.000000
     5  C    1.400236   2.410948   2.757231   1.398597   0.000000
     6  H    1.084012   2.158529   3.405394   3.396484   2.164090
     7  H    2.167795   1.082847   2.161337   3.826867   3.404185
     8  H    3.399330   3.828508   3.283338   1.084446   2.166568
     9  H    2.170301   3.404336   3.840319   2.158490   1.083784
    10  C    3.728880   2.460902   1.428845   3.616513   4.185854
    11  C    4.889119   3.558186   2.642930   4.783724   5.400069
    12  H    5.952305   4.613188   3.691751   5.758703   6.445189
    13  N    2.811424   2.425584   1.361166   1.349067   2.419862
                    6          7          8          9         10
     6  H    0.000000
     7  H    2.508046   0.000000
     8  H    4.312146   4.910100   0.000000
     9  H    2.515234   4.320050   2.503406   0.000000
    10  C    4.614433   2.683650   4.447523   5.268574   0.000000
    11  C    5.712122   3.527971   5.545524   6.482812   1.214242
    12  H    6.761641   4.507706   6.449354   7.525856   2.265546
    13  N    3.895436   3.393621   2.063657   3.387988   2.384326
                   11         12         13
    11  C    0.000000
    12  H    1.064160   0.000000
    13  N    3.494847   4.436050   0.000000
 Symmetry turned off by external request.
 Stoichiometry    C7H5N
 Framework group  C1[X(C7H5N)]
 Deg. of freedom    33
 Full point group                 C1      NOp   1
 Rotational constants (GHZ):      5.8163051      1.5667286      1.2342584
 Standard basis: 6-31G (6D, 7F)
    82 basis functions,   196 primitive gaussians,    82 cartesian basis functions
    27 alpha electrons       27 beta electrons
       nuclear repulsion energy       300.9658538154 Hartrees.
 NAtoms=   13 NActive=   13 NUniq=   13 SFac= 1.00D+00 NAtFMM=   60 NAOKFM=F Big=F
 Integral buffers will be    131072 words long.
 Raffenetti 2 integral format.
 Two-electron integral symmetry is turned off.
 Nuclear repulsion after empirical dispersion term =      300.9594662630 Hartrees.
 One-electron integrals computed using PRISM.
 NBasis=    82 RedAO= T EigKep=  5.25D-04  NBF=    82
 NBsUse=    82 1.00D-06 EigRej= -1.00D+00 NBFU=    82
 Initial guess from the checkpoint file:  "E:\PROJECT- VIT group\ML\Substrates\molecule_15.chk"
 B after Tr=    -0.004024   -0.069467    0.000133
         Rot=    0.999990    0.000004    0.000001    0.004375 Ang=   0.50 deg.
 ExpMin= 1.61D-01 ExpMax= 4.17D+03 ExpMxC= 6.27D+02 IAcc=1 IRadAn=         1 AccDes= 0.00D+00
 Harris functional with IExCor=  402 and IRadAn=       1 diagonalized for initial guess.
 HarFok:  IExCor=  402 AccDes= 0.00D+00 IRadAn=         1 IDoV= 1 UseB2=F ITyADJ=14
 ICtDFT=  3500011 ScaDFX=  1.000000  1.000000  1.000000  1.000000
 FoFCou: FMM=F IPFlag=           0 FMFlag=      100000 FMFlg1=           0
         NFxFlg=           0 DoJE=T BraDBF=F KetDBF=T FulRan=T
         wScrn=  0.000000 ICntrl=     500 IOpCl=  0 I1Cent=   200000004 NGrid=           0
         NMat0=    1 NMatS0=      1 NMatT0=    0 NMatD0=    1 NMtDS0=    0 NMtDT0=    0
 Symmetry not used in FoFCou.
 Keep R1 ints in memory in canonical form, NReq=6734274.
 Requested convergence on RMS density matrix=1.00D-08 within 128 cycles.
 Requested convergence on MAX density matrix=1.00D-06.
 Requested convergence on             energy=1.00D-06.
 No special actions if energy rises.
 Integral accuracy reduced to 1.0D-05 until final iterations.
 Initial convergence to 1.0D-05 achieved.  Increase integral accuracy.
 SCF Done:  E(RB3LYP) =  -324.348514011     A.U. after   14 cycles
            NFock= 14  Conv=0.54D-08     -V/T= 2.0058
 Calling FoFJK, ICntrl=      2127 FMM=F ISym2X=0 I1Cent= 0 IOpClX= 0 NMat=1 NMatS=1 NMatT=0.
 -------------------------------------------------------------------
 Center     Atomic                   Forces (Hartrees/Bohr)
 Number     Number              X              Y              Z
 -------------------------------------------------------------------
      1        6           0.001204948    0.000806668    0.000001068
      2        6          -0.003455062    0.000405371   -0.000030248
      3        6          -0.000045581   -0.002269105    0.000022659
      4        6           0.001826279    0.000438598   -0.000010405
      5        6           0.000267350   -0.001113437    0.000017222
      6        1          -0.000276000   -0.000558460    0.000002510
      7        1           0.000304601   -0.000581792    0.000007494
      8        1          -0.000490773    0.000384619    0.000002335
      9        1          -0.000334263   -0.000129945   -0.000005123
     10        6           0.000615286   -0.000761890    0.000000322
     11        6          -0.000689789    0.009348078   -0.000007095
     12        1           0.001871242   -0.005903351    0.000004524
     13        7          -0.000798238   -0.000065352   -0.000005262
 -------------------------------------------------------------------
 Cartesian Forces:  Max     0.009348078 RMS     0.001982920

 GradGradGradGradGradGradGradGradGradGradGradGradGradGradGradGradGradGrad
 Berny optimization.
 Using GEDIIS/GDIIS optimizer.
 FormGI is forming the generalized inverse of G from B-inverse, IUseBI=4.
 Internal  Forces:  Max     0.012384160 RMS     0.001895681
 Search for a local minimum.
 Step number   3 out of a maximum of   63
 All quantities printed in internal units (Hartrees-Bohrs-Radians)
 Mixed Optimization -- RFO/linear search
 Update second derivatives using D2CorX and points    1    3    2
 DE=  8.54D-04 DEPred=-5.19D-04 R=-1.64D+00
 Trust test=-1.64D+00 RLast= 2.14D-01 DXMaxT set to 2.52D-01
 ITU= -1  1  0
 Use linear search instead of GDIIS.
 Energy rises -- skip Quadratic/GDIIS search.
 Quartic linear search produced a step of -0.73327.
 Iteration  1 RMS(Cart)=  0.04022959 RMS(Int)=  0.00331557
 Iteration  2 RMS(Cart)=  0.00337493 RMS(Int)=  0.00000695
 Iteration  3 RMS(Cart)=  0.00001019 RMS(Int)=  0.00000280
 Iteration  4 RMS(Cart)=  0.00000000 RMS(Int)=  0.00000280
 Variable       Old X    -DE/DX   Delta X   Delta X   Delta X     New X
                                 (Linear)    (Quad)   (Total)
    R1        2.64128  -0.00142  -0.00531   0.00000  -0.00531   2.63597
    R2        2.64606  -0.00076  -0.00607   0.00000  -0.00607   2.64000
    R3        2.04849   0.00062   0.00186   0.00000   0.00186   2.05034
    R4        2.66128   0.00131  -0.00657   0.00000  -0.00657   2.65471
    R5        2.04628   0.00066   0.00353   0.00000   0.00353   2.04981
    R6        2.70013   0.00183   0.00699   0.00000   0.00699   2.70712
    R7        2.57223   0.00011  -0.00955   0.00000  -0.00956   2.56268
    R8        2.64296   0.00085   0.00228   0.00000   0.00228   2.64525
    R9        2.04931   0.00056  -0.00158   0.00000  -0.00158   2.04773
   R10        2.54937  -0.00078   0.00165   0.00000   0.00165   2.55101
   R11        2.04805   0.00033   0.00356   0.00000   0.00356   2.05162
   R12        2.29459   0.00114  -0.00058   0.00000  -0.00058   2.29400
   R13        2.01097   0.00065  -0.00021   0.00000  -0.00021   2.01077
    A1        2.07717  -0.00004  -0.00684   0.00000  -0.00683   2.07034
    A2        2.10030  -0.00004   0.00327   0.00000   0.00327   2.10357
    A3        2.10572   0.00007   0.00357   0.00000   0.00357   2.10928
    A4        2.07502   0.00056  -0.00139   0.00000  -0.00139   2.07363
    A5        2.11733  -0.00031  -0.00594   0.00000  -0.00593   2.11139
    A6        2.09084  -0.00025   0.00733   0.00000   0.00733   2.09816
    A7        2.09984   0.00175  -0.00481   0.00000  -0.00480   2.09504
    A8        2.13417  -0.00076   0.01587   0.00000   0.01586   2.15003
    A9        2.04918  -0.00099  -0.01107   0.00000  -0.01106   2.03812
   A10        2.11170  -0.00028   0.00047   0.00000   0.00046   2.11216
   A11        2.15449  -0.00001   0.00272   0.00000   0.00273   2.15722
   A12        2.01700   0.00029  -0.00319   0.00000  -0.00319   2.01380
   A13        2.06759   0.00009   0.00506   0.00000   0.00507   2.07267
   A14        2.11638  -0.00020  -0.00737   0.00000  -0.00737   2.10901
   A15        2.09922   0.00011   0.00230   0.00000   0.00230   2.10151
   A16        2.05792   0.00015  -0.01543   0.00000  -0.01544   2.04248
   A17        3.11974  -0.00445  -0.01611   0.00000  -0.01611   3.10363
   A18        3.35462  -0.01238  -0.15213   0.00000  -0.15213   3.20250
   A19        3.14161   0.00000   0.00000   0.00000   0.00000   3.14161
   A20        3.14161   0.00000  -0.00001   0.00000  -0.00001   3.14160
    D1       -0.00015   0.00000   0.00026   0.00000   0.00026   0.00011
    D2       -3.14144   0.00000  -0.00041   0.00000  -0.00041   3.14133
    D3        3.14142   0.00001   0.00023   0.00000   0.00023  -3.14153
    D4        0.00012   0.00000  -0.00044   0.00000  -0.00044  -0.00031
    D5       -0.00005   0.00000   0.00011   0.00000   0.00011   0.00006
    D6       -3.14148   0.00000  -0.00011   0.00000  -0.00011   3.14159
    D7        3.14156   0.00000   0.00014   0.00000   0.00014  -3.14148
    D8        0.00014   0.00000  -0.00008   0.00000  -0.00008   0.00005
    D9       -3.14147   0.00000  -0.00034   0.00000  -0.00034   3.14138
   D10        0.00026  -0.00001  -0.00048   0.00000  -0.00048  -0.00022
   D11       -0.00016   0.00001   0.00032   0.00000   0.00032   0.00016
   D12        3.14156   0.00000   0.00018   0.00000   0.00018  -3.14145
   D13       -0.00015   0.00001   0.00030   0.00000   0.00030   0.00014
   D14        3.14157   0.00000   0.00016   0.00000   0.00016  -3.14146
   D15       -3.14154   0.00000  -0.00022   0.00000  -0.00022   3.14143
   D16       -0.00011   0.00000   0.00001   0.00000   0.00001  -0.00011
   D17        0.00017  -0.00001  -0.00031   0.00000  -0.00031  -0.00014
   D18       -3.14159   0.00000  -0.00009   0.00000  -0.00009   3.14151
   D19       -0.00006   0.00000   0.00011   0.00000   0.00011   0.00004
   D20       -3.14155   0.00000   0.00002   0.00000   0.00002  -3.14153
         Item               Value     Threshold  Converged?
 Maximum Force            0.012384     0.000450     NO 
 RMS     Force            0.001896     0.000300     NO 
 Maximum Displacement     0.240961     0.001800     NO 
 RMS     Displacement     0.040954     0.001200     NO 
 Predicted change in Energy=-1.243300D-04
 GradGradGradGradGradGradGradGradGradGradGradGradGradGradGradGradGradGrad

                          Input orientation:                          
 ---------------------------------------------------------------------
 Center     Atomic      Atomic             Coordinates (Angstroms)
 Number     Number       Type             X           Y           Z
 ---------------------------------------------------------------------
      1          6           0       -3.574880   -0.576581    0.000041
      2          6           0       -2.179986   -0.575066    0.000465
      3          6           0       -1.504330    0.656590    0.000056
      4          6           0       -3.492041    1.828783   -0.001479
      5          6           0       -4.245417    0.649005   -0.000915
      6          1           0       -4.124956   -1.511797    0.000394
      7          1           0       -1.620734   -1.504495    0.001445
      8          1           0       -3.974206    2.799209   -0.002376
      9          1           0       -5.330320    0.689799   -0.001272
     10          6           0       -0.072147    0.688809    0.000742
     11          6           0        1.141641    0.670031    0.001377
     12          1           0        2.204594    0.718361    0.001892
     13          7           0       -2.142326    1.853249   -0.000990
 ---------------------------------------------------------------------
                    Distance matrix (angstroms):
                    1          2          3          4          5
     1  C    0.000000
     2  C    1.394895   0.000000
     3  C    2.409957   1.404810   0.000000
     4  C    2.406790   2.738609   2.307604   0.000000
     5  C    1.397026   2.400907   2.741098   1.399804   0.000000
     6  H    1.084994   2.158789   3.401409   3.400008   2.164157
     7  H    2.163265   1.084713   2.164218   3.822635   3.395075
     8  H    3.399327   3.821644   3.269726   1.083610   2.167241
     9  H    2.164553   3.394774   3.826135   2.162534   1.085670
    10  C    3.724293   2.457716   1.432545   3.604889   4.173460
    11  C    4.878485   3.547320   2.646005   4.776372   5.387100
    12  H    5.922770   4.571379   3.709439   5.803853   6.450385
    13  N    2.820690   2.428608   1.356109   1.349937   2.423468
                    6          7          8          9         10
     6  H    0.000000
     7  H    2.504233   0.000000
     8  H    4.313641   4.905172   0.000000
     9  H    2.509966   4.309984   2.507719   0.000000
    10  C    4.611717   2.684903   4.436199   5.258174   0.000000
    11  C    5.700651   3.515576   5.541237   6.471992   1.213933
    12  H    6.710947   4.424276   6.519779   7.534969   2.276933
    13  N    3.905683   3.398016   2.061705   3.393659   2.375198
                   11         12         13
    11  C    0.000000
    12  H    1.064051   0.000000
    13  N    3.490623   4.492627   0.000000
 Symmetry turned off by external request.
 Stoichiometry    C7H5N
 Framework group  C1[X(C7H5N)]
 Deg. of freedom    33
 Full point group                 C1      NOp   1
 Rotational constants (GHZ):      5.8073347      1.5735904      1.2381058
 Standard basis: 6-31G (6D, 7F)
    82 basis functions,   196 primitive gaussians,    82 cartesian basis functions
    27 alpha electrons       27 beta electrons
       nuclear repulsion energy       301.2875044512 Hartrees.
 NAtoms=   13 NActive=   13 NUniq=   13 SFac= 1.00D+00 NAtFMM=   60 NAOKFM=F Big=F
 Integral buffers will be    131072 words long.
 Raffenetti 2 integral format.
 Two-electron integral symmetry is turned off.
 Nuclear repulsion after empirical dispersion term =      301.2811024842 Hartrees.
 One-electron integrals computed using PRISM.
 NBasis=    82 RedAO= T EigKep=  4.26D-04  NBF=    82
 NBsUse=    82 1.00D-06 EigRej= -1.00D+00 NBFU=    82
 Lowest energy guess from the checkpoint file:  "E:\PROJECT- VIT group\ML\Substrates\molecule_15.chk"
 B after Tr=    -0.001555   -0.018619    0.000036
         Rot=    0.999999    0.000001    0.000000    0.001173 Ang=   0.13 deg.
 B after Tr=     0.002018    0.050851   -0.000097
         Rot=    0.999995   -0.000003   -0.000001   -0.003200 Ang=  -0.37 deg.
 Keep R1 ints in memory in canonical form, NReq=6734274.
 Requested convergence on RMS density matrix=1.00D-08 within 128 cycles.
 Requested convergence on MAX density matrix=1.00D-06.
 Requested convergence on             energy=1.00D-06.
 No special actions if energy rises.
 Integral accuracy reduced to 1.0D-05 until final iterations.
 Initial convergence to 1.0D-05 achieved.  Increase integral accuracy.
 SCF Done:  E(RB3LYP) =  -324.349499585     A.U. after   12 cycles
            NFock= 12  Conv=0.39D-08     -V/T= 2.0057
 Calling FoFJK, ICntrl=      2127 FMM=F ISym2X=0 I1Cent= 0 IOpClX= 0 NMat=1 NMatS=1 NMatT=0.
 -------------------------------------------------------------------
 Center     Atomic                   Forces (Hartrees/Bohr)
 Number     Number              X              Y              Z
 -------------------------------------------------------------------
      1        6           0.000673713   -0.000608219   -0.000007763
      2        6          -0.002822520   -0.003535570    0.000030730
      3        6           0.011242888   -0.001016255   -0.000001783
      4        6           0.000152086    0.001469092   -0.000001157
      5        6          -0.003209327    0.001598787   -0.000010013
      6        1           0.000047380    0.000154339    0.000003612
      7        1           0.000523012    0.001195720   -0.000012850
      8        1          -0.001202904    0.000647663    0.000002837
      9        1           0.000906203    0.000718535   -0.000000747
     10        6           0.000794813   -0.001527446   -0.000000118
     11        6          -0.000502139    0.002191391   -0.000001943
     12        1           0.000377811   -0.001187270    0.000000943
     13        7          -0.006981017   -0.000100765   -0.000001748
 -------------------------------------------------------------------
 Cartesian Forces:  Max     0.011242888 RMS     0.002412649

 GradGradGradGradGradGradGradGradGradGradGradGradGradGradGradGradGradGrad
 Berny optimization.
 Using GEDIIS/GDIIS optimizer.
 FormGI is forming the generalized inverse of G from B-inverse, IUseBI=4.
 Internal  Forces:  Max     0.005831423 RMS     0.001662476
 Search for a local minimum.
 Step number   4 out of a maximum of   63
 All quantities printed in internal units (Hartrees-Bohrs-Radians)
 Mixed Optimization -- RFO/linear search
 Update second derivatives using D2CorX and points    1    3    2    4
 ITU=  0 -1  1  0
 Use linear search instead of GDIIS.
     Eigenvalues ---    0.00499   0.01845   0.02014   0.02043   0.02107
     Eigenvalues ---    0.02154   0.02155   0.02155   0.02156   0.03022
     Eigenvalues ---    0.04718   0.06389   0.12988   0.16000   0.16002
     Eigenvalues ---    0.16144   0.17689   0.22334   0.22637   0.25316
     Eigenvalues ---    0.30257   0.33159   0.33722   0.33726   0.33886
     Eigenvalues ---    0.37245   0.39292   0.43157   0.45616   0.46447
     Eigenvalues ---    0.46484   0.48534   1.03838
 RFO step:  Lambda=-1.27942222D-03 EMin= 4.99391710D-03
 Quartic linear search produced a step of  0.00131.
 Iteration  1 RMS(Cart)=  0.02216960 RMS(Int)=  0.00098376
 Iteration  2 RMS(Cart)=  0.00108834 RMS(Int)=  0.00006142
 Iteration  3 RMS(Cart)=  0.00000026 RMS(Int)=  0.00006142
 Variable       Old X    -DE/DX   Delta X   Delta X   Delta X     New X
                                 (Linear)    (Quad)   (Total)
    R1        2.63597   0.00223   0.00000   0.01475   0.01474   2.65071
    R2        2.64000   0.00287   0.00000   0.01763   0.01754   2.65753
    R3        2.05034  -0.00016   0.00000  -0.00657  -0.00657   2.04377
    R4        2.65471   0.00318   0.00000   0.02108   0.02117   2.67587
    R5        2.04981  -0.00075   0.00000  -0.01151  -0.01151   2.03830
    R6        2.70712   0.00066   0.00000  -0.03024  -0.03024   2.67687
    R7        2.56268   0.00583   0.00000   0.02367   0.02377   2.58645
    R8        2.64525  -0.00091   0.00000  -0.00571  -0.00580   2.63945
    R9        2.04773   0.00112   0.00000   0.00331   0.00331   2.05104
   R10        2.55101   0.00035   0.00000  -0.01025  -0.01024   2.54077
   R11        2.05162  -0.00088   0.00000  -0.01174  -0.01174   2.03988
   R12        2.29400  -0.00014   0.00000   0.00314   0.00314   2.29715
   R13        2.01077   0.00032   0.00000   0.00016   0.00016   2.01093
    A1        2.07034   0.00193   0.00000   0.01855   0.01844   2.08877
    A2        2.10357  -0.00093   0.00000  -0.00904  -0.00898   2.09458
    A3        2.10928  -0.00100   0.00000  -0.00951  -0.00945   2.09983
    A4        2.07363   0.00051   0.00000   0.00350   0.00357   2.07720
    A5        2.11139   0.00084   0.00000   0.01799   0.01795   2.12935
    A6        2.09816  -0.00135   0.00000  -0.02148  -0.02152   2.07664
    A7        2.09504   0.00189   0.00000   0.01587   0.01579   2.11082
    A8        2.15003  -0.00534  -0.00001  -0.04434  -0.04417   2.10586
    A9        2.03812   0.00345   0.00001   0.02847   0.02839   2.06650
   A10        2.11216  -0.00027   0.00000  -0.00114  -0.00110   2.11106
   A11        2.15722  -0.00107   0.00000  -0.00456  -0.00464   2.15258
   A12        2.01380   0.00134   0.00000   0.00570   0.00574   2.01955
   A13        2.07267  -0.00070   0.00000  -0.01595  -0.01615   2.05652
   A14        2.10901   0.00112   0.00000   0.02208   0.02218   2.13119
   A15        2.10151  -0.00042   0.00000  -0.00613  -0.00603   2.09548
   A16        2.04248   0.00468   0.00001   0.04280   0.04296   2.08544
   A17        3.10363  -0.00011   0.00001   0.02403   0.02404   3.12767
   A18        3.20250  -0.00242   0.00007  -0.11275  -0.11268   3.08982
   A19        3.14161   0.00000   0.00000  -0.00001  -0.00001   3.14160
   A20        3.14160   0.00000   0.00000   0.00000   0.00000   3.14160
    D1        0.00011   0.00000   0.00000  -0.00066  -0.00068  -0.00056
    D2        3.14133   0.00001   0.00000   0.00109   0.00109  -3.14076
    D3       -3.14153   0.00000   0.00000  -0.00057  -0.00058   3.14107
    D4       -0.00031   0.00001   0.00000   0.00118   0.00119   0.00087
    D5        0.00006   0.00000   0.00000  -0.00028  -0.00029  -0.00023
    D6        3.14159   0.00000   0.00000   0.00028   0.00029  -3.14131
    D7       -3.14148   0.00000   0.00000  -0.00038  -0.00038   3.14132
    D8        0.00005   0.00000   0.00000   0.00019   0.00019   0.00025
    D9        3.14138   0.00001   0.00000   0.00093   0.00092  -3.14089
   D10       -0.00022   0.00001   0.00000   0.00124   0.00123   0.00100
   D11        0.00016   0.00000   0.00000  -0.00082  -0.00081  -0.00065
   D12       -3.14145   0.00000   0.00000  -0.00050  -0.00050   3.14124
   D13        0.00014   0.00000   0.00000  -0.00076  -0.00076  -0.00061
   D14       -3.14146   0.00000   0.00000  -0.00045  -0.00045   3.14128
   D15        3.14143   0.00000   0.00000   0.00059   0.00059  -3.14116
   D16       -0.00011   0.00000   0.00000   0.00003   0.00003  -0.00008
   D17       -0.00014   0.00000   0.00000   0.00080   0.00080   0.00065
   D18        3.14151   0.00000   0.00000   0.00023   0.00023  -3.14144
   D19        0.00004   0.00000   0.00000  -0.00028  -0.00028  -0.00023
   D20       -3.14153   0.00000   0.00000  -0.00008  -0.00008   3.14158
         Item               Value     Threshold  Converged?
 Maximum Force            0.005831     0.000450     NO 
 RMS     Force            0.001662     0.000300     NO 
 Maximum Displacement     0.089948     0.001800     NO 
 RMS     Displacement     0.022000     0.001200     NO 
 Predicted change in Energy=-6.543843D-04
 GradGradGradGradGradGradGradGradGradGradGradGradGradGradGradGradGradGrad

                          Input orientation:                          
 ---------------------------------------------------------------------
 Center     Atomic      Atomic             Coordinates (Angstroms)
 Number     Number       Type             X           Y           Z
 ---------------------------------------------------------------------
      1          6           0       -3.575079   -0.573672    0.000062
      2          6           0       -2.172405   -0.581258    0.001320
      3          6           0       -1.478903    0.653304    0.000360
      4          6           0       -3.508091    1.825925   -0.001308
      5          6           0       -4.264756    0.651904   -0.001428
      6          1           0       -4.121069   -1.507254    0.000277
      7          1           0       -1.605736   -1.499035    0.001718
      8          1           0       -3.988016    2.799414   -0.002019
      9          1           0       -5.342978    0.703503   -0.002166
     10          6           0       -0.062926    0.693267    0.000719
     11          6           0        1.152547    0.710638    0.001048
     12          1           0        2.215936    0.670762    0.001377
     13          7           0       -2.163632    1.838400   -0.000581
 ---------------------------------------------------------------------
                    Distance matrix (angstroms):
                    1          2          3          4          5
     1  C    0.000000
     2  C    1.402695   0.000000
     3  C    2.428873   1.416011   0.000000
     4  C    2.400532   2.752924   2.343640   0.000000
     5  C    1.406305   2.428710   2.785855   1.396734   0.000000
     6  H    1.081517   2.157489   3.413070   3.389074   2.163934
     7  H    2.175916   1.078624   2.156073   3.830708   3.420079
     8  H    3.398269   3.837369   3.301734   1.085362   2.165267
     9  H    2.180974   3.420988   3.864402   2.150963   1.079456
    10  C    3.733678   2.464612   1.416540   3.626579   4.202034
    11  C    4.898969   3.567113   2.632074   4.792224   5.417622
    12  H    5.923214   4.563451   3.694880   5.839425   6.480720
    13  N    2.794687   2.419675   1.368689   1.344517   2.412985
                    6          7          8          9         10
     6  H    0.000000
     7  H    2.515346   0.000000
     8  H    4.308723   4.914462   0.000000
     9  H    2.525967   4.337991   2.495749   0.000000
    10  C    4.616363   2.680756   4.454458   5.280062   0.000000
    11  C    5.721019   3.534230   5.548728   6.495529   1.215597
    12  H    6.700849   4.394678   6.558978   7.558985   2.278973
    13  N    3.876204   3.383745   2.062020   3.375831   2.392551
                   11         12         13
    11  C    0.000000
    12  H    1.064136   0.000000
    13  N    3.502698   4.532549   0.000000
 Symmetry turned off by external request.
 Stoichiometry    C7H5N
 Framework group  C1[X(C7H5N)]
 Deg. of freedom    33
 Full point group                 C1      NOp   1
 Rotational constants (GHZ):      5.8411429      1.5566432      1.2290942
 Standard basis: 6-31G (6D, 7F)
    82 basis functions,   196 primitive gaussians,    82 cartesian basis functions
    27 alpha electrons       27 beta electrons
       nuclear repulsion energy       300.5905590695 Hartrees.
 NAtoms=   13 NActive=   13 NUniq=   13 SFac= 1.00D+00 NAtFMM=   60 NAOKFM=F Big=F
 Integral buffers will be    131072 words long.
 Raffenetti 2 integral format.
 Two-electron integral symmetry is turned off.
 Nuclear repulsion after empirical dispersion term =      300.5841813958 Hartrees.
 One-electron integrals computed using PRISM.
 NBasis=    82 RedAO= T EigKep=  4.03D-04  NBF=    82
 NBsUse=    82 1.00D-06 EigRej= -1.00D+00 NBFU=    82
 Initial guess from the checkpoint file:  "E:\PROJECT- VIT group\ML\Substrates\molecule_15.chk"
 B after Tr=     0.003526    0.019795    0.000174
         Rot=    0.999998    0.000014   -0.000004   -0.002072 Ang=   0.24 deg.
 ExpMin= 1.61D-01 ExpMax= 4.17D+03 ExpMxC= 6.27D+02 IAcc=1 IRadAn=         1 AccDes= 0.00D+00
 Harris functional with IExCor=  402 and IRadAn=       1 diagonalized for initial guess.
 HarFok:  IExCor=  402 AccDes= 0.00D+00 IRadAn=         1 IDoV= 1 UseB2=F ITyADJ=14
 ICtDFT=  3500011 ScaDFX=  1.000000  1.000000  1.000000  1.000000
 FoFCou: FMM=F IPFlag=           0 FMFlag=      100000 FMFlg1=           0
         NFxFlg=           0 DoJE=T BraDBF=F KetDBF=T FulRan=T
         wScrn=  0.000000 ICntrl=     500 IOpCl=  0 I1Cent=   200000004 NGrid=           0
         NMat0=    1 NMatS0=      1 NMatT0=    0 NMatD0=    1 NMtDS0=    0 NMtDT0=    0
 Symmetry not used in FoFCou.
 Keep R1 ints in memory in canonical form, NReq=6734274.
 Requested convergence on RMS density matrix=1.00D-08 within 128 cycles.
 Requested convergence on MAX density matrix=1.00D-06.
 Requested convergence on             energy=1.00D-06.
 No special actions if energy rises.
 Integral accuracy reduced to 1.0D-05 until final iterations.
 Initial convergence to 1.0D-05 achieved.  Increase integral accuracy.
 SCF Done:  E(RB3LYP) =  -324.348967770     A.U. after   14 cycles
            NFock= 14  Conv=0.50D-08     -V/T= 2.0058
 Calling FoFJK, ICntrl=      2127 FMM=F ISym2X=0 I1Cent= 0 IOpClX= 0 NMat=1 NMatS=1 NMatT=0.
 -------------------------------------------------------------------
 Center     Atomic                   Forces (Hartrees/Bohr)
 Number     Number              X              Y              Z
 -------------------------------------------------------------------
      1        6           0.002159848    0.004059565    0.000014559
      2        6          -0.003320662    0.008379290   -0.000130272
      3        6          -0.022332870   -0.000478003    0.000053889
      4        6           0.001984617   -0.000365978   -0.000023253
      5        6           0.007667963   -0.006009173    0.000064087
      6        1          -0.001041300   -0.002325007   -0.000000074
      7        1           0.000208953   -0.004376628    0.000040596
      8        1           0.000001117    0.000188977   -0.000000493
      9        1          -0.003250250   -0.001663538   -0.000012856
     10        6           0.012020804    0.003518238    0.000003732
     11        6          -0.003616061   -0.004180147    0.000000718
     12        1           0.000405628    0.002034072   -0.000001680
     13        7           0.009112213    0.001218331   -0.000008953
 -------------------------------------------------------------------
 Cartesian Forces:  Max     0.022332870 RMS     0.005103238

 GradGradGradGradGradGradGradGradGradGradGradGradGradGradGradGradGradGrad
 Berny optimization.
 Using GEDIIS/GDIIS optimizer.
 FormGI is forming the generalized inverse of G from B-inverse, IUseBI=4.
 Internal  Forces:  Max     0.008845551 RMS     0.002934982
 Search for a local minimum.
 Step number   5 out of a maximum of   63
 All quantities printed in internal units (Hartrees-Bohrs-Radians)
 Mixed Optimization -- RFO/linear search
 Update second derivatives using D2CorX and points    1    3    2    5    4
 DE=  5.32D-04 DEPred=-6.54D-04 R=-8.13D-01
 Trust test=-8.13D-01 RLast= 1.52D-01 DXMaxT set to 1.26D-01
 ITU= -1  0 -1  1  0
 Use linear search instead of GDIIS.
 Energy rises -- skip Quadratic/GDIIS search.
 Quartic linear search produced a step of -0.64842.
 Iteration  1 RMS(Cart)=  0.01415759 RMS(Int)=  0.00041398
 Iteration  2 RMS(Cart)=  0.00046128 RMS(Int)=  0.00001399
 Iteration  3 RMS(Cart)=  0.00000002 RMS(Int)=  0.00001399
 Variable       Old X    -DE/DX   Delta X   Delta X   Delta X     New X
                                 (Linear)    (Quad)   (Total)
    R1        2.65071  -0.00752  -0.00956   0.00000  -0.00956   2.64115
    R2        2.65753  -0.00708  -0.01137   0.00000  -0.01135   2.64618
    R3        2.04377   0.00253   0.00426   0.00000   0.00426   2.04803
    R4        2.67587  -0.00321  -0.01373   0.00000  -0.01375   2.66213
    R5        2.03830   0.00383   0.00746   0.00000   0.00746   2.04576
    R6        2.67687   0.00885   0.01961   0.00000   0.01961   2.69649
    R7        2.58645  -0.00639  -0.01541   0.00000  -0.01544   2.57101
    R8        2.63945   0.00371   0.00376   0.00000   0.00378   2.64323
    R9        2.05104   0.00017  -0.00215   0.00000  -0.00215   2.04889
   R10        2.54077   0.00002   0.00664   0.00000   0.00664   2.54741
   R11        2.03988   0.00317   0.00761   0.00000   0.00761   2.04749
   R12        2.29715  -0.00324  -0.00204   0.00000  -0.00204   2.29511
   R13        2.01093   0.00033  -0.00010   0.00000  -0.00010   2.01082
    A1        2.08877  -0.00255  -0.01196   0.00000  -0.01193   2.07685
    A2        2.09458   0.00100   0.00583   0.00000   0.00581   2.10039
    A3        2.09983   0.00156   0.00613   0.00000   0.00612   2.10595
    A4        2.07720   0.00106  -0.00231   0.00000  -0.00233   2.07487
    A5        2.12935  -0.00269  -0.01164   0.00000  -0.01163   2.11771
    A6        2.07664   0.00163   0.01396   0.00000   0.01396   2.09060
    A7        2.11082  -0.00193  -0.01024   0.00000  -0.01022   2.10061
    A8        2.10586   0.00616   0.02864   0.00000   0.02860   2.13446
    A9        2.06650  -0.00423  -0.01841   0.00000  -0.01839   2.04812
   A10        2.11106  -0.00026   0.00071   0.00000   0.00070   2.11176
   A11        2.15258   0.00069   0.00301   0.00000   0.00303   2.15561
   A12        2.01955  -0.00043  -0.00372   0.00000  -0.00373   2.01581
   A13        2.05652   0.00196   0.01047   0.00000   0.01052   2.06703
   A14        2.13119  -0.00283  -0.01438   0.00000  -0.01440   2.11678
   A15        2.09548   0.00088   0.00391   0.00000   0.00389   2.09937
   A16        2.08544  -0.00732  -0.02785   0.00000  -0.02789   2.05755
   A17        3.12767  -0.00070  -0.01559   0.00000  -0.01559   3.11208
   A18        3.08982   0.00412   0.07306   0.00000   0.07306   3.16288
   A19        3.14160   0.00000   0.00001   0.00000   0.00001   3.14161
   A20        3.14160   0.00000   0.00000   0.00000   0.00000   3.14160
    D1       -0.00056   0.00002   0.00044   0.00000   0.00044  -0.00012
    D2       -3.14076  -0.00002  -0.00071   0.00000  -0.00071  -3.14147
    D3        3.14107   0.00002   0.00038   0.00000   0.00038   3.14145
    D4        0.00087  -0.00002  -0.00077   0.00000  -0.00077   0.00010
    D5       -0.00023   0.00001   0.00019   0.00000   0.00019  -0.00004
    D6       -3.14131  -0.00001  -0.00019   0.00000  -0.00019  -3.14149
    D7        3.14132   0.00001   0.00025   0.00000   0.00025   3.14157
    D8        0.00025  -0.00001  -0.00012   0.00000  -0.00012   0.00012
    D9       -3.14089  -0.00001  -0.00059   0.00000  -0.00059  -3.14148
   D10        0.00100  -0.00003  -0.00080   0.00000  -0.00079   0.00021
   D11       -0.00065   0.00002   0.00052   0.00000   0.00052  -0.00013
   D12        3.14124   0.00001   0.00032   0.00000   0.00032   3.14156
   D13       -0.00061   0.00002   0.00049   0.00000   0.00049  -0.00012
   D14        3.14128   0.00001   0.00029   0.00000   0.00029   3.14157
   D15       -3.14116  -0.00001  -0.00038   0.00000  -0.00038  -3.14155
   D16       -0.00008   0.00001  -0.00002   0.00000  -0.00002  -0.00010
   D17        0.00065  -0.00002  -0.00052   0.00000  -0.00052   0.00014
   D18       -3.14144   0.00000  -0.00015   0.00000  -0.00015   3.14159
   D19       -0.00023   0.00001   0.00018   0.00000   0.00018  -0.00005
   D20        3.14158   0.00000   0.00005   0.00000   0.00005  -3.14156
         Item               Value     Threshold  Converged?
 Maximum Force            0.008846     0.000450     NO 
 RMS     Force            0.002935     0.000300     NO 
 Maximum Displacement     0.058350     0.001800     NO 
 RMS     Displacement     0.014230     0.001200     NO 
 Predicted change in Energy=-2.182554D-04
 GradGradGradGradGradGradGradGradGradGradGradGradGradGradGradGradGradGrad

                          Input orientation:                          
 ---------------------------------------------------------------------
 Center     Atomic      Atomic             Coordinates (Angstroms)
 Number     Number       Type             X           Y           Z
 ---------------------------------------------------------------------
      1          6           0       -3.575021   -0.575589    0.000048
      2          6           0       -2.177384   -0.577298    0.000765
      3          6           0       -1.495461    0.655391    0.000166
      4          6           0       -3.497797    1.827833   -0.001419
      5          6           0       -4.252284    0.650035   -0.001094
      6          1           0       -4.123670   -1.510226    0.000352
      7          1           0       -1.615518   -1.502645    0.001539
      8          1           0       -3.979231    2.799309   -0.002254
      9          1           0       -5.334852    0.694616   -0.001586
     10          6           0       -0.068972    0.690369    0.000735
     11          6           0        1.145531    0.684301    0.001261
     12          1           0        2.209471    0.701640    0.001711
     13          7           0       -2.149920    1.848160   -0.000845
 ---------------------------------------------------------------------
                    Distance matrix (angstroms):
                    1          2          3          4          5
     1  C    0.000000
     2  C    1.397638   0.000000
     3  C    2.416585   1.408737   0.000000
     4  C    2.404663   2.743747   2.320339   0.000000
     5  C    1.400300   2.410718   2.756829   1.398735   0.000000
     6  H    1.083771   2.158329   3.405492   3.396226   2.164086
     7  H    2.167738   1.082572   2.161374   3.825581   3.403906
     8  H    3.399019   3.827288   3.281083   1.084226   2.166551
     9  H    2.170352   3.404023   3.839591   2.158460   1.083485
    10  C    3.727604   2.460159   1.426918   3.612572   4.183508
    11  C    4.885790   3.554349   2.641151   4.782068   5.397925
    12  H    5.923822   4.569483   3.705221   5.817322   6.461962
    13  N    2.811668   2.425614   1.360520   1.348031   2.419802
                    6          7          8          9         10
     6  H    0.000000
     7  H    2.508164   0.000000
     8  H    4.311956   4.908561   0.000000
     9  H    2.515610   4.319886   2.503486   0.000000
    10  C    4.613371   2.683490   4.442721   5.265882   0.000000
    11  C    5.707927   3.522233   5.544047   6.480392   1.214518
    12  H    6.708280   4.414681   6.534544   7.544327   2.278471
    13  N    3.895439   3.393153   2.061811   3.387396   2.381350
                   11         12         13
    11  C    0.000000
    12  H    1.064081   0.000000
    13  N    3.494935   4.507639   0.000000
 Symmetry turned off by external request.
 Stoichiometry    C7H5N
 Framework group  C1[X(C7H5N)]
 Deg. of freedom    33
 Full point group                 C1      NOp   1
 Rotational constants (GHZ):      5.8189434      1.5675231      1.2348703
 Standard basis: 6-31G (6D, 7F)
    82 basis functions,   196 primitive gaussians,    82 cartesian basis functions
    27 alpha electrons       27 beta electrons
       nuclear repulsion energy       301.0348160352 Hartrees.
 NAtoms=   13 NActive=   13 NUniq=   13 SFac= 1.00D+00 NAtFMM=   60 NAOKFM=F Big=F
 Integral buffers will be    131072 words long.
 Raffenetti 2 integral format.
 Two-electron integral symmetry is turned off.
 Nuclear repulsion after empirical dispersion term =      301.0284226486 Hartrees.
 One-electron integrals computed using PRISM.
 NBasis=    82 RedAO= T EigKep=  4.10D-04  NBF=    82
[...]
    A7        2.10249   0.00000   0.00000   0.00004   0.00004   2.10253
    A8        2.13041   0.00000   0.00000   0.00003   0.00003   2.13044
    A9        2.05028   0.00000   0.00000  -0.00007  -0.00007   2.05022
   A10        2.10904  -0.00001   0.00000  -0.00009  -0.00009   2.10895
   A11        2.15423   0.00001   0.00000   0.00004   0.00004   2.15427
   A12        2.01992   0.00000   0.00000   0.00005   0.00005   2.01997
   A13        2.06712   0.00000   0.00000  -0.00001  -0.00001   2.06711
   A14        2.11585   0.00000   0.00000   0.00006   0.00006   2.11591
   A15        2.10022   0.00000   0.00000  -0.00006  -0.00006   2.10016
   A16        2.05984  -0.00001   0.00000  -0.00004  -0.00004   2.05980
   A17        3.10788   0.00004   0.00000   0.00044   0.00044   3.10832
   A18        3.16227   0.00000   0.00000  -0.00014  -0.00014   3.16213
   A19        3.14159   0.00000   0.00000   0.00000   0.00000   3.14159
   A20        3.14139   0.00000   0.00000   0.00020   0.00020   3.14159
    D1        0.00001   0.00000   0.00000  -0.00001  -0.00001   0.00000
    D2       -3.14158   0.00000   0.00000  -0.00001  -0.00001   3.14159
    D3       -3.14158   0.00000   0.00000  -0.00001  -0.00001  -3.14159
    D4        0.00001   0.00000   0.00000  -0.00001  -0.00001   0.00000
    D5        0.00001   0.00000   0.00000  -0.00001  -0.00001   0.00000
    D6       -3.14159   0.00000   0.00000   0.00000   0.00000  -3.14159
    D7       -3.14158   0.00000   0.00000  -0.00001  -0.00001   3.14159
    D8        0.00000   0.00000   0.00000   0.00000   0.00000   0.00000
    D9       -3.14155   0.00000   0.00000  -0.00004  -0.00004  -3.14159
   D10       -0.00003   0.00000   0.00000   0.00004   0.00004   0.00000
   D11        0.00004   0.00000   0.00000  -0.00004  -0.00004   0.00000
   D12        3.14156   0.00000   0.00000   0.00003   0.00003  -3.14159
   D13        0.00003   0.00000   0.00000  -0.00003  -0.00003   0.00000
   D14        3.14155   0.00000   0.00000   0.00004   0.00004   3.14159
   D15       -3.14159   0.00000   0.00000   0.00000   0.00000   3.14159
   D16        0.00001   0.00000   0.00000  -0.00001  -0.00001   0.00000
   D17       -0.00001   0.00000   0.00000   0.00001   0.00001   0.00000
   D18        3.14159   0.00000   0.00000   0.00001   0.00001   3.14159
   D19       -0.00001   0.00000   0.00000   0.00001   0.00001   0.00000
   D20        3.14157   0.00000   0.00000   0.00002   0.00002  -3.14159
         Item               Value     Threshold  Converged?
 Maximum Force            0.000073     0.000450     YES
 RMS     Force            0.000015     0.000300     YES
 Maximum Displacement     0.000954     0.001800     YES
 RMS     Displacement     0.000218     0.001200     YES
 Predicted change in Energy=-2.562887D-08
 Optimization completed.
    -- Stationary point found.
                           ----------------------------
                           !   Optimized Parameters   !
                           ! (Angstroms and Degrees)  !
 --------------------------                            --------------------------
 ! Name  Definition              Value          Derivative Info.                !
 --------------------------------------------------------------------------------
 ! R1    R(1,2)                  1.396          -DE/DX =    0.0                 !
 ! R2    R(1,5)                  1.3993         -DE/DX =    0.0                 !
 ! R3    R(1,6)                  1.0849         -DE/DX =    0.0                 !
 ! R4    R(2,3)                  1.4095         -DE/DX =    0.0                 !
 ! R5    R(2,7)                  1.0839         -DE/DX =    0.0                 !
 ! R6    R(3,10)                 1.4309         -DE/DX =    0.0001              !
 ! R7    R(3,13)                 1.3618         -DE/DX =    0.0                 !
 ! R8    R(4,5)                  1.3998         -DE/DX =    0.0                 !
 ! R9    R(4,8)                  1.0853         -DE/DX =    0.0                 !
 ! R10   R(4,13)                 1.3478         -DE/DX =    0.0                 !
 ! R11   R(5,9)                  1.0843         -DE/DX =    0.0                 !
 ! R12   R(10,11)                1.2138         -DE/DX =    0.0                 !
 ! R13   R(11,12)                1.0644         -DE/DX =    0.0                 !
 ! A1    A(2,1,5)              119.0256         -DE/DX =    0.0                 !
 ! A2    A(2,1,6)              120.2881         -DE/DX =    0.0                 !
 ! A3    A(5,1,6)              120.6863         -DE/DX =    0.0                 !
 ! A4    A(1,2,3)              119.0251         -DE/DX =    0.0                 !
 ! A5    A(1,2,7)              121.2593         -DE/DX =    0.0                 !
 ! A6    A(3,2,7)              119.7157         -DE/DX =    0.0                 !
 ! A7    A(2,3,10)             120.4637         -DE/DX =    0.0                 !
 ! A8    A(2,3,13)             122.0636         -DE/DX =    0.0                 !
 ! A9    A(10,3,13)            117.4726         -DE/DX =    0.0                 !
 ! A10   A(5,4,8)              120.8389         -DE/DX =    0.0                 !
 ! A11   A(5,4,13)             123.4282         -DE/DX =    0.0                 !
 ! A12   A(8,4,13)             115.7329         -DE/DX =    0.0                 !
 ! A13   A(1,5,4)              118.4373         -DE/DX =    0.0                 !
 ! A14   A(1,5,9)              121.2291         -DE/DX =    0.0                 !
 ! A15   A(4,5,9)              120.3337         -DE/DX =    0.0                 !
 ! A16   A(3,13,4)             118.0203         -DE/DX =    0.0                 !
 ! A17   L(3,10,11,7,-1)       178.0685         -DE/DX =    0.0                 !
 ! A18   L(10,11,12,7,-1)      181.1846         -DE/DX =    0.0                 !
 ! A19   L(3,10,11,7,-2)       179.9999         -DE/DX =    0.0                 !
 ! A20   L(10,11,12,7,-2)      179.9882         -DE/DX =    0.0                 !
 ! D1    D(5,1,2,3)              0.0007         -DE/DX =    0.0                 !
 ! D2    D(5,1,2,7)            180.0005         -DE/DX =    0.0                 !
 ! D3    D(6,1,2,3)           -179.9992         -DE/DX =    0.0                 !
 ! D4    D(6,1,2,7)              0.0006         -DE/DX =    0.0                 !
 ! D5    D(2,1,5,4)              0.0005         -DE/DX =    0.0                 !
 ! D6    D(2,1,5,9)           -179.9998         -DE/DX =    0.0                 !
 ! D7    D(6,1,5,4)            180.0005         -DE/DX =    0.0                 !
 ! D8    D(6,1,5,9)              0.0002         -DE/DX =    0.0                 !
 ! D9    D(1,2,3,10)          -179.9977         -DE/DX =    0.0                 !
 ! D10   D(1,2,3,13)            -0.0019         -DE/DX =    0.0                 !
 ! D11   D(7,2,3,10)             0.0025         -DE/DX =    0.0                 !
 ! D12   D(7,2,3,13)          -180.0018         -DE/DX =    0.0                 !
 ! D13   D(2,3,13,4)             0.0018         -DE/DX =    0.0                 !
 ! D14   D(10,3,13,4)          179.9977         -DE/DX =    0.0                 !
 ! D15   D(8,4,5,1)            180.0001         -DE/DX =    0.0                 !
 ! D16   D(8,4,5,9)              0.0004         -DE/DX =    0.0                 !
 ! D17   D(13,4,5,1)            -0.0007         -DE/DX =    0.0                 !
 ! D18   D(13,4,5,9)           179.9996         -DE/DX =    0.0                 !
 ! D19   D(5,4,13,3)            -0.0005         -DE/DX =    0.0                 !
 ! D20   D(8,4,13,3)          -180.0012         -DE/DX =    0.0                 !
 --------------------------------------------------------------------------------
 GradGradGradGradGradGradGradGradGradGradGradGradGradGradGradGradGradGrad

 1|1|UNPC-LAPTOP-H4OM2LBP|Freq|RB3LYP|6-31G|C7H5N1|SREEKALA P NAIR|13-S
 ep-2023|0||#N Geom=AllCheck Guess=TCheck SCRF=Check GenChk RB3LYP/6-31
 G Freq||molecule_15||0,1|C,-3.5746725964,-0.5743151245,0.0000352693|C,
 -2.1786465431,-0.574716437,0.0006759088|C,-1.4944225032,0.6575485232,0
 .0002267845|C,-3.5000641834,1.8292727582,-0.0014597866|C,-4.2532602482
 ,0.6494295561,-0.0010489634|H,-4.1221247347,-1.5109946968,0.000376593|
 H,-1.6164659825,-1.5014236114,0.001510259|H,-3.9861585794,2.7996660468
 ,-0.002294595|H,-5.3367086906,0.6914286608,-0.0015686404|C,-0.06398900
 39,0.693062205,0.0008109164|C,1.1497505823,0.6822738949,0.0013297331|H
 ,2.21411956,0.694820758,0.0016374189|N,-2.1524648367,1.8498439766,-0.0
 008523677||Version=EM64W-G09RevD.01|HF=-324.3497557|RMSD=4.617e-009|RM
 SF=2.446e-005|ZeroPoint=0.0989589|Thermal=0.1050796|Dipole=-0.5336915,
 -0.8311958,0.0002157|DipoleDeriv=0.2054192,0.0758543,0.0000965,0.05322
 62,0.1803221,-0.0001542,0.0001109,-0.0001453,-0.1043414,-0.3588449,-0.
 0978596,-0.0000566,-0.2197576,0.0270422,-0.0001742,0.0000243,-0.000112
 9,-0.0905337,0.9094618,0.0169569,0.0003256,0.1689882,0.1811589,0.00004
 63,0.0001965,-0.0000416,0.1291281,0.1005037,-0.0582013,0.0000832,-0.27
 0616,0.4026962,-0.0003844,0.0002217,-0.0002815,-0.0023698,0.0359612,-0
 .0374493,0.0000769,0.1653251,-0.261513,0.0001903,-0.0000493,0.0000944,
 -0.0837737,0.0229424,-0.0716122,-0.0000009,-0.0864284,-0.0485613,0.000
 0706,0.0000057,0.000078,0.1263037,0.038897,0.070247,-0.0000864,0.07507
 85,-0.0286246,0.0001336,-0.0000909,0.0001304,0.1309793,-0.0028407,0.08
 43826,-0.0001015,0.1002792,-0.0663451,0.0001544,-0.0001103,0.0001441,0
 .1036784,-0.1063725,0.0138827,-0.0001162,0.008304,0.0786073,0.0000368,
 -0.0001143,0.00004,0.1301204,-0.1982254,0.0135632,-0.0000922,-0.048697
 4,-0.034813,0.0000154,0.0000456,0.000053,0.0152365,-0.4209127,-0.02754
 93,-0.0000417,0.0328724,-0.2716588,-0.0000075,-0.0002214,-0.0000427,-0
 .3009984,0.2464894,0.0043107,-0.0000058,-0.0078969,0.2352206,0.0000005
 ,0.0000806,0.0000093,0.2399298,-0.4724785,0.0134743,-0.0000807,0.02932
 26,-0.3935315,0.0000725,-0.0000989,0.0000749,-0.2933592|Polar=124.5965
 342,-1.0138754,67.1372577,0.0456694,-0.0279915,23.7945445|PG=C01 [X(C7
 H5N1)]|NImag=0||0.70215084,0.03986252,0.74428894,0.00022898,-0.0003584
 4,0.14619146,-0.35151974,-0.03094919,-0.00011034,0.71684992,0.02887168
 ,-0.13496583,0.00005626,-0.05456591,0.72015842,-0.00014836,0.00002799,
 -0.06604345,0.00029732,-0.00038633,0.14002660,-0.03005914,-0.03446237,
 0.00000366,-0.16597123,-0.09701707,0.00002045,0.71626768,-0.07545871,0
 .03727514,-0.00005313,-0.04489181,-0.25975033,0.00009092,0.00998221,0.
 61214110,0.00003146,-0.00003409,0.00796479,-0.00001265,0.00006856,-0.0
 7824853,0.00023004,-0.00026624,0.18660636,0.07167215,-0.02415885,0.000
 04413,-0.05302467,-0.03760242,0.00000320,-0.06134397,0.08155010,-0.000
 08046,0.67057784,0.01758831,-0.06182829,0.00005262,-0.02449377,-0.0175
 8789,-0.00000572,0.04776428,0.01431221,0.00001444,-0.05397390,0.755290
 76,0.00001761,0.00003317,0.00849825,-0.00000426,-0.00001186,-0.0090859
 6,-0.00006104,0.00003041,0.00316774,0.00026694,-0.00040192,0.16047559,
 -0.18278079,0.11872011,-0.00012839,-0.02715748,0.03785019,-0.00003954,
 0.00473366,-0.00955869,0.00001284,-0.18439079,-0.11370483,0.00002220,0
 .76803454,0.05756396,-0.29590042,0.00017065,0.07270572,0.03378041,0.00
 001638,0.00553237,-0.07181393,0.00004187,-0.04761096,-0.27928628,0.000
 11017,-0.01057748,0.66959649,-0.00009001,0.00019947,-0.06665939,-0.000
 06147,-0.00000006,0.00673596,0.00000356,0.00003466,-0.01044993,-0.0000
 2006,0.00007975,-0.07304348,0.00029327,-0.00034271,0.13798190,-0.13348
 342,-0.12336841,0.00003621,-0.01177276,-0.03066642,0.00001147,-0.00501
 309,0.00183611,-0.00000745,-0.00122648,0.00351671,-0.00000678,0.011991
 67,0.01686757,-0.00000758,0.13855266,-0.12353136,-0.27254092,0.0000890
 4,0.00393700,0.00407456,0.00000246,0.00136542,0.00203807,0.00000501,0.
 00440512,-0.00275022,0.00000919,-0.01766665,-0.01882991,0.00000702,0.1
 3177473,0.28685517,0.00003680,0.00008877,-0.04205018,-0.00001071,-0.00
 001360,0.00514303,-0.00000725,0.00000550,0.00891416,-0.00000749,0.0000
 0876,0.00871116,0.00001416,0.00002322,0.00514717,-0.00003235,-0.000103
 56,0.02730541,-0.01141867,0.02973667,-0.00002585,-0.13663807,0.1279923
 9,-0.00012456,0.01073495,-0.01651283,0.00001402,-0.00107767,-0.0008606
 5,0.00000022,-0.00514404,-0.00173353,-0.00000505,0.00078625,-0.0004045
 7,0.00000260,0.14288424,-0.00454802,0.00498191,-0.00000275,0.12661514,
 -0.27154640,0.00020274,0.01934881,-0.01759709,0.00002135,-0.00195730,0
 .00060952,-0.00000154,-0.00109891,0.00191639,0.00000345,0.00049759,0.0
 0085770,-0.00000297,-0.13542835,0.28452568,-0.00000415,0.00001296,0.00
 399129,-0.00012373,0.00020335,-0.03929114,-0.00000811,0.00000458,0.002
 33789,0.00000086,-0.00000095,-0.00032564,-0.00000557,0.00000327,0.0083
 7001,0.00000207,-0.00000346,-0.00435130,0.00013816,-0.00022299,0.02632
 718,-0.00175659,-0.00317634,-0.00000201,-0.00062403,0.00017058,-0.0000
 0024,-0.00348466,0.00070235,-0.00000686,-0.10269857,0.10569721,-0.0000
 9403,0.01095412,-0.01824135,0.00001338,0.00042853,-0.00085077,0.000000
 88,0.00017982,0.00021884,0.00000086,0.12531972,-0.00396770,-0.00248824
 ,0.00000430,-0.00072092,0.00056864,-0.00000091,-0.00270178,0.00268881,
 0.00000375,0.10703103,-0.29295415,0.00020704,0.01476974,-0.01809167,0.
 00002270,0.00072795,-0.00098291,0.00000072,0.00007919,-0.00006407,-0.0
 0000118,-0.11659913,0.30399035,-0.00000163,0.00000486,0.00717157,0.000
 00056,-0.00000037,-0.00036377,-0.00000478,0.00000497,0.01057715,-0.000
 09441,0.00020614,-0.04243235,-0.00000767,0.00000761,0.00695368,-0.0000
 0013,0.00000006,-0.00033887,0.00000095,-0.00000108,-0.00198637,0.00011
 848,-0.00022808,0.02719348,-0.00980846,-0.00373975,-0.00000364,0.00121
 462,0.00248930,-0.00000470,0.00151118,-0.00051278,0.00000111,-0.011952
 06,0.00667778,-0.00001058,-0.34647185,0.01032583,-0.00014627,0.0007739
 5,0.00049481,0.00000187,-0.00048324,-0.00026986,-0.00000019,0.00049744
 ,-0.00070532,0.00000209,0.36502735,0.03096449,0.00325806,0.00001426,0.
 00192621,-0.00472022,0.00000901,0.00062083,-0.00218045,0.00000153,-0.0
 2939667,0.00699028,-0.00001677,0.01004504,-0.06133686,0.00001917,-0.00
 049173,0.00085879,-0.00000332,0.00135404,0.00014027,0.00000072,0.00059
 074,0.00028202,-0.00000187,-0.01179582,0.06040641,-0.00002567,-0.00000
 151,0.00340613,-0.00000435,0.00000920,0.00808328,0.00000038,0.00000113
 ,-0.00016156,0.00001256,-0.00000023,0.00180213,-0.00014635,0.00001929,
 -0.03854396,0.00000260,-0.00000294,-0.00411108,-0.00000122,-0.00000005
 ,0.00028509,0.00000127,-0.00000248,-0.00311078,0.00016125,-0.00002717,
 0.02637346,0.00582228,-0.00443615,0.00000226,-0.03770108,-0.01590000,-
 0.00001018,-0.30714178,-0.02119149,-0.00008342,0.00695653,0.00194516,-
 0.00000322,-0.00319557,0.00029283,-0.00000131,-0.00042704,-0.00003390,
 -0.00000013,0.00031431,0.00017636,0.00000115,-0.00019070,0.00019971,-0
 .00000057,-0.00001178,-0.00014582,0.00000101,1.46126189,-0.00210283,-0
 .00566949,0.00000662,-0.03522546,0.00155561,-0.00001086,-0.01452295,-0
 .08043193,-0.00000165,0.00287171,-0.00369857,0.00001074,0.00095433,-0.
 00019984,0.00000045,-0.00135898,0.00003700,-0.00000075,-0.00033147,0.0
 0042879,-0.00000214,0.00096633,0.00007521,0.00000090,0.00006219,0.0003
 8441,-0.00000154,0.00235388,0.12629937,0.00000032,0.00000544,0.0067828
 7,0.00000111,-0.00000258,0.00939084,-0.00008663,-0.00000605,-0.0752574
 9,-0.00000442,0.00001122,0.01103488,-0.00000174,-0.00000027,-0.0004000
 2,0.00000069,-0.00000010,-0.00016132,0.00000179,-0.00000183,-0.0028603
 7,-0.00000095,0.00000035,0.00068478,0.00000091,-0.00000157,-0.00203524
 ,0.00056452,-0.00001801,0.09866505,-0.00138769,0.00005378,-0.00000036,
 0.00206785,0.00776562,-0.00000387,-0.01140166,0.00091360,-0.00001409,-
 0.00263183,-0.00130391,0.00000028,0.00129860,0.00061061,0.00000022,-0.
 00044960,-0.00005610,-0.00000013,0.00008138,-0.00045265,0.00000026,-0.
 00050178,0.00009588,-0.00000022,-0.00020909,-0.00005398,-0.00000017,-1
 .08946769,0.00448806,-0.00043273,1.52855694,0.00074663,0.00033559,0.00
 000024,-0.00004777,-0.00096351,0.00000072,-0.00129082,0.01032624,-0.00
 000027,-0.00024020,-0.00007888,-0.00000047,-0.00019338,0.00054517,-0.0
 0000061,0.00007720,-0.00002975,-0.00000004,-0.00002153,0.00016385,-0.0
 0000019,-0.00008152,-0.00001726,-0.00000014,-0.00001448,-0.00003427,0.
 00000012,0.00509539,-0.04216811,-0.00000055,-0.00030268,0.05917396,-0.
 00000058,-0.00000006,-0.00025831,0.00000078,0.00000439,0.00010798,-0.0
 0001142,0.00000194,0.01235831,-0.00000054,-0.00000154,-0.00052024,0.00
 000078,0.00000013,-0.00014754,-0.00000018,-0.00000013,-0.00011764,-0.0
 0000007,-0.00000035,0.00005455,-0.00000017,0.00000007,-0.00012963,-0.0
 0000017,0.00000006,0.00012801,-0.00042520,-0.00000065,-0.04789585,0.00
 055842,-0.00000164,0.05872719,-0.00009608,-0.00002770,0.00000009,0.000
 19117,0.00002856,0.00000009,-0.00029756,-0.00023758,-0.00000131,0.0001
 5450,0.00019278,0.00000018,0.00012178,-0.00013730,0.00000011,0.0000179
 4,0.00002240,-0.00000002,-0.00003269,-0.00005364,-0.00000002,0.0000236
 1,-0.00001838,0.00000002,0.00002226,-0.00000348,-0.00000002,0.00972418
 ,0.00000604,0.00000350,-0.42969480,-0.00444779,-0.00012254,0.41986696,
 -0.00004190,0.00023052,-0.00000053,0.00096648,-0.00022179,0.00000049,0
 .00075637,0.00479831,0.00000052,-0.00004994,0.00017079,-0.00000055,-0.
 00001489,-0.00002765,0.00000010,0.00007825,-0.00001094,0.00000008,-0.0
 0002632,-0.00001304,0.00000015,-0.00005508,-0.00001121,0.,0.,-0.000011
 50,0.00000006,0.00144855,0.00488850,0.00000044,-0.00589385,-0.02601429
 ,-0.00000034,0.00464971,0.01590171,0.00000005,-0.00000050,-0.00039981,
 -0.00000042,-0.00000012,-0.00017159,-0.00000169,-0.00000023,0.00471212
 ,0.00000044,-0.00000028,-0.00077084,-0.00000002,-0.00000009,0.00012663
 ,-0.00000006,0.00000006,0.00004017,-0.00000004,0.00000012,0.00014141,0
 .00000007,-0.00000004,0.00000830,-0.00000002,0.00000007,0.00009817,-0.
 00000702,-0.00000035,0.00492800,-0.00011220,0.00000036,-0.02371564,0.0
 0012005,0.00000056,0.01463439,-0.05733470,0.03594570,-0.00004475,0.064
 08549,0.03058352,-0.00000108,-0.14853439,0.07337952,-0.00008324,-0.331
 01499,0.01095484,-0.00012752,-0.04799384,-0.08559826,0.00002122,-0.000
 17861,0.00054387,0.00000175,-0.00018658,-0.00304802,-0.00000161,-0.028
 14691,0.00180973,-0.00001269,-0.00011031,-0.00361383,-0.00000130,-0.04
 594355,0.04183913,-0.00004636,0.00373937,0.00072094,0.00000088,-0.0000
 0126,-0.00181738,0.00000084,0.59162029,0.03405293,-0.01697696,0.000020
 88,-0.01525572,-0.07038166,0.00005313,0.06462470,-0.25180614,0.0001452
 1,-0.00086772,-0.11918928,0.00003238,-0.02952456,0.03964811,-0.0000234
 0,0.00050944,0.00042337,-0.00000281,-0.00384304,-0.00440352,0.00000589
 ,0.03065814,0.00700447,0.00000700,-0.00301188,-0.00403695,0.00000612,0
 .03019547,-0.00150095,0.00001353,-0.00586437,-0.00123874,-0.00000189,0
 .00002638,0.00032061,0.00000042,-0.10169977,0.42213765,-0.00004484,0.0
 0002193,-0.00859523,0.00002817,0.00007315,0.02371674,-0.00007719,0.000
 15153,-0.07252100,-0.00012076,0.00003773,-0.06751124,-0.00001396,-0.00
 004951,0.02392898,0.00000149,-0.00000265,-0.00413072,-0.00000095,0.000
 00590,0.00730740,-0.00003068,-0.00000624,-0.00422719,-0.00000167,0.000
 00589,0.00778636,-0.00003790,0.00001723,-0.00287613,0.00000458,0.00000
 247,0.00140882,-0.00000015,-0.00000097,0.00036870,0.00029386,-0.000256
 45,0.09534451||0.00004574,-0.00000684,0.00000012,-0.00004952,-0.000011
 77,-0.00000230,0.00007480,0.00003000,0.00000729,-0.00005178,-0.0000257
 6,-0.00000170,0.00001623,0.00003981,0.00000019,-0.00000495,-0.00000451
 ,0.00000026,0.00001009,-0.00000583,-0.00000039,0.00000029,0.00000743,0
 .00000077,-0.00000625,-0.00000463,0.00000008,-0.00004252,0.00002774,-0
 .00000394,-0.00003370,-0.00001627,0.00000592,0.00000304,0.00000228,-0.
 00000360,0.00003854,-0.00003163,-0.00000269|||@


 I WANT IT ALL - RICH, THIN, AND CHOCOLATE.
 Job cpu time:       0 days  0 hours  1 minutes 30.0 seconds.
 File lengths (MBytes):  RWF=     16 Int=      0 D2E=      0 Chk=      2 Scr=      1
 Normal termination of Gaussian 09 at Wed Sep 13 18:59:15 2023.
