 Entering Link 1 = C:\G09W\l1.exe PID=     13024.
  
 Copyright (c) 1988,1990,1992,1993,1995,1998,2003,2009,2013,
            Gaussian, Inc.  All Rights Reserved.
  
 This is part of the Gaussian(R) 09 program.  It is based on
 the Gaussian(R) 03 system (copyright 2003, Gaussian, Inc.),
 the Gaussian(R) 98 system (copyright 1998, Gaussian, Inc.),
 the Gaussian(R) 94 system (copyright 1995, Gaussian, Inc.),
 the Gaussian 92(TM) system (copyright 1992, Gaussian, Inc.),
 the Gaussian 90(TM) system (copyright 1990, Gaussian, Inc.),
 the Gaussian 88(TM) system (copyright 1988, Gaussian, Inc.),
 the Gaussian 86(TM) system (copyright 1986, Carnegie Mellon
 University), and the Gaussian 82(TM) system (copyright 1983,
 Carnegie Mellon University). Gaussian is a federally registered
 trademark of Gaussian, Inc.
  
 This software contains proprietary and confidential information,
 including trade secrets, belonging to Gaussian, Inc.
  
 This software is provided under written license and may be
 used, copied, transmitted, or stored only in accord with that
 written license.
  
 The following legend is applicable only to US Government
 contracts under FAR:
  
                    RESTRICTED RIGHTS LEGEND
  
 Use, reproduction and disclosure by the US Government is
 subject to restrictions as set forth in subparagraphs (a)
 and (c) of the Commercial Computer Software - Restricted
 Rights clause in FAR 52.227-19.
  
 Gaussian, Inc.
 340 Quinnipiac St., Bldg. 40, Wallingford CT 06492
  
  
 ---------------------------------------------------------------
 Warning -- This program may not be used in any manner that
 competes with the business of Gaussian, Inc. or will provide
 assistance to any competitor of Gaussian, Inc.  The licensee
 of this program is prohibited from giving any competitor of
 Gaussian, Inc. access to this program.  By using this program,
 the user acknowledges that Gaussian, Inc. is engaged in the
 business of creating and licensing software in the field of
 computational chemistry and represents and warrants to the
 licensee that it is not a competitor of Gaussian, Inc. and that
 it will not use this program in any manner prohibited above.
 ---------------------------------------------------------------
  

 Cite this work as:
 Gaussian 09, Revision D.01,
 M. J. Frisch, G. W. Trucks, H. B. Schlegel, G. E. Scuseria, 
 M. A. Robb, J. R. Cheeseman, G. Scalmani, V. Barone, B. Mennucci, 
 G. A. Petersson, H. Nakatsuji, M. Caricato, X. Li, H. P. Hratchian, 
 A. F. Izmaylov, J. Bloino, G. Zheng, J. L. Sonnenberg, M. Hada, 
 M. Ehara, K. Toyota, R. Fukuda, J. Hasegawa, M. Ishida, T. Nakajima, 
 Y. Honda, O. Kitao, H. Nakai, T. Vreven, J. A. Montgomery, Jr., 
 J. E. Peralta, F. Ogliaro, M. Bearpark, J. J. Heyd, E. Brothers, 
 K. N. Kudin, V. N. Staroverov, T. Keith, R. Kobayashi, J. Normand, 
 K. Raghavachari, A. Rendell, J. C. Burant, S. S. Iyengar, J. Tomasi, 
 M. Cossi, N. Rega, J. M. Millam, M. Klene, J. E. Knox, J. B. Cross, 
 V. Bakken, C. Adamo, J. Jaramillo, R. Gomperts, R. E. Stratmann, 
 O. Yazyev, A. J. Austin, R. Cammi, C. Pomelli, J. W. Ochterski, 
 R. L. Martin, K. Morokuma, V. G. Zakrzewski, G. A. Voth, 
 P. Salvador, J. J. Dannenberg, S. Dapprich, A. D. Daniels, 
 O. Farkas, J. B. Foresman, J. V. Ortiz, J. Cioslowski, 
 and D. J. Fox, Gaussian, Inc., Wallingford CT, 2013.
 
 ******************************************
 Gaussian 09:  EM64W-G09RevD.01 13-Apr-2013
                13-Sep-2023 
 ******************************************
 %nprocshared=2
 Will use up to    2 processors via shared memory.
 %mem=2GB
 %chk=E:\PROJECT- VIT group\ML\Substrates\molecule_21.chk
 -----------------------------------------------------
 # opt freq b3lyp/6-31g nosymm empiricaldispersion=gd3
 -----------------------------------------------------
 1/14=-1,18=20,19=15,26=3,38=1/1,3;
 2/9=110,12=2,15=1,17=6,18=5,40=1/2;
 3/5=1,6=6,11=2,16=1,25=1,30=1,71=1,74=-5,124=31/1,2,3;
 4//1;
 5/5=2,38=5/2;
 6/7=2,8=2,9=2,10=2,28=1/1;
 7/30=1/1,2,3,16;
 1/14=-1,18=20,19=15,26=3/3(2);
 2/9=110,15=1/2;
 99//99;
 2/9=110,15=1/2;
 3/5=1,6=6,11=2,16=1,25=1,30=1,71=1,74=-5,124=31/1,2,3;
 4/5=5,16=3,69=1/1;
 5/5=2,38=5/2;
 7/30=1/1,2,3,16;
 1/14=-1,18=20,19=15,26=3/3(-5);
 2/9=110,15=1/2;
 6/7=2,8=2,9=2,10=2,19=2,28=1/1;
 99/9=1/99;
 -----------
 molecule_15
 -----------
 Symbolic Z-matrix:
 Charge =  0 Multiplicity = 1
 C                    -3.57841  -0.55061   0. 
 C                    -2.18325  -0.55061   0. 
 C                    -1.48571   0.65714   0. 
 C                    -3.57819   1.86557  -0.00168 
 C                    -4.27579   0.65737  -0.00068 
 H                    -4.12817  -1.50293   0.00045 
 H                    -1.63374  -1.50312   0.00132 
 H                    -4.12832   2.81785  -0.00263 
 H                    -5.3754    0.65755  -0.00086 
 C                     0.05429   0.65725   0.00089 
 C                     1.25549   0.65734   0.00158 
 N                    -2.18337   1.86565  -0.0012 
 Br                    3.16548   0.65748   0.00268 
 

 GradGradGradGradGradGradGradGradGradGradGradGradGradGradGradGradGradGrad
 Berny optimization.
 Initialization pass.
                           ----------------------------
                           !    Initial Parameters    !
                           ! (Angstroms and Degrees)  !
 --------------------------                            --------------------------
 ! Name  Definition              Value          Derivative Info.                !
 --------------------------------------------------------------------------------
 ! R1    R(1,2)                  1.3952         estimate D2E/DX2                !
 ! R2    R(1,5)                  1.3948         estimate D2E/DX2                !
 ! R3    R(1,6)                  1.0996         estimate D2E/DX2                !
 ! R4    R(2,3)                  1.3947         estimate D2E/DX2                !
 ! R5    R(2,7)                  1.0997         estimate D2E/DX2                !
 ! R6    R(3,10)                 1.54           estimate D2E/DX2                !
 ! R7    R(3,12)                 1.3954         estimate D2E/DX2                !
 ! R8    R(4,5)                  1.3951         estimate D2E/DX2                !
 ! R9    R(4,8)                  1.0998         estimate D2E/DX2                !
 ! R10   R(4,12)                 1.3948         estimate D2E/DX2                !
 ! R11   R(5,9)                  1.0996         estimate D2E/DX2                !
 ! R12   R(10,11)                1.2012         estimate D2E/DX2                !
 ! R13   R(11,13)                1.91           estimate D2E/DX2                !
 ! A1    A(2,1,5)              119.9985         estimate D2E/DX2                !
 ! A2    A(2,1,6)              119.9972         estimate D2E/DX2                !
 ! A3    A(5,1,6)              120.0043         estimate D2E/DX2                !
 ! A4    A(1,2,3)              120.0086         estimate D2E/DX2                !
 ! A5    A(1,2,7)              119.9808         estimate D2E/DX2                !
 ! A6    A(3,2,7)              120.0106         estimate D2E/DX2                !
 ! A7    A(2,3,10)             120.0128         estimate D2E/DX2                !
 ! A8    A(2,3,12)             119.9942         estimate D2E/DX2                !
 ! A9    A(10,3,12)            119.993          estimate D2E/DX2                !
 ! A10   A(5,4,8)              119.984          estimate D2E/DX2                !
 ! A11   A(5,4,12)             120.0047         estimate D2E/DX2                !
 ! A12   A(8,4,12)             120.0113         estimate D2E/DX2                !
 ! A13   A(1,5,4)              120.0            estimate D2E/DX2                !
 ! A14   A(1,5,9)              120.008          estimate D2E/DX2                !
 ! A15   A(4,5,9)              119.992          estimate D2E/DX2                !
 ! A16   A(3,12,4)             119.994          estimate D2E/DX2                !
 ! A17   L(3,10,11,7,-1)       180.0            estimate D2E/DX2                !
 ! A18   L(10,11,13,7,-1)      180.0            estimate D2E/DX2                !
 ! A19   L(3,10,11,7,-2)       180.0            estimate D2E/DX2                !
 ! A20   L(10,11,13,7,-2)      180.0            estimate D2E/DX2                !
 ! D1    D(5,1,2,3)              0.0323         estimate D2E/DX2                !
 ! D2    D(5,1,2,7)            179.9532         estimate D2E/DX2                !
 ! D3    D(6,1,2,3)           -179.9729         estimate D2E/DX2                !
 ! D4    D(6,1,2,7)             -0.052          estimate D2E/DX2                !
 ! D5    D(2,1,5,4)              0.0149         estimate D2E/DX2                !
 ! D6    D(2,1,5,9)            179.9892         estimate D2E/DX2                !
 ! D7    D(6,1,5,4)           -179.9798         estimate D2E/DX2                !
 ! D8    D(6,1,5,9)             -0.0056         estimate D2E/DX2                !
 ! D9    D(1,2,3,10)           179.9619         estimate D2E/DX2                !
 ! D10   D(1,2,3,12)            -0.0568         estimate D2E/DX2                !
 ! D11   D(7,2,3,10)             0.041          estimate D2E/DX2                !
 ! D12   D(7,2,3,12)          -179.9777         estimate D2E/DX2                !
 ! D13   D(2,3,12,4)             0.0341         estimate D2E/DX2                !
 ! D14   D(10,3,12,4)         -179.9846         estimate D2E/DX2                !
 ! D15   D(8,4,5,1)            179.975          estimate D2E/DX2                !
 ! D16   D(8,4,5,9)              0.0007         estimate D2E/DX2                !
 ! D17   D(12,4,5,1)            -0.0376         estimate D2E/DX2                !
 ! D18   D(12,4,5,9)           179.9881         estimate D2E/DX2                !
 ! D19   D(5,4,12,3)             0.0131         estimate D2E/DX2                !
 ! D20   D(8,4,12,3)          -179.9995         estimate D2E/DX2                !
 --------------------------------------------------------------------------------
 Trust Radius=3.00D-01 FncErr=1.00D-07 GrdErr=1.00D-06
 Number of steps in this run=     63 maximum allowed number of steps=    100.
 GradGradGradGradGradGradGradGradGradGradGradGradGradGradGradGradGradGrad

                          Input orientation:                          
 ---------------------------------------------------------------------
 Center     Atomic      Atomic             Coordinates (Angstroms)
 Number     Number       Type             X           Y           Z
 ---------------------------------------------------------------------
      1          6           0       -3.578412   -0.550608    0.000000
      2          6           0       -2.183252   -0.550608    0.000000
      3          6           0       -1.485714    0.657143    0.000000
      4          6           0       -3.578193    1.865574   -0.001678
      5          6           0       -4.275794    0.657368   -0.000682
      6          1           0       -4.128171   -1.502925    0.000450
      7          1           0       -1.633744   -1.503121    0.001315
      8          1           0       -4.128315    2.817855   -0.002631
      9          1           0       -5.375398    0.657551   -0.000862
     10          6           0        0.054285    0.657255    0.000888
     11          6           0        1.255485    0.657342    0.001580
     12          7           0       -2.183368    1.865652   -0.001199
     13         35           0        3.165485    0.657481    0.002682
 ---------------------------------------------------------------------
                    Distance matrix (angstroms):
                    1          2          3          4          5
     1  C    0.000000
     2  C    1.395160   0.000000
     3  C    2.416205   1.394712   0.000000
     4  C    2.416183   2.789946   2.416356   0.000000
     5  C    1.394829   2.416183   2.790080   1.395138   0.000000
     6  H    1.099610   2.165553   3.412986   3.413102   2.165331
     7  H    2.165414   1.099655   2.165330   3.889601   3.412938
     8  H    3.413055   3.889707   3.413506   1.099761   2.165516
     9  H    2.165365   3.413128   3.889684   2.165471   1.099604
    10  C    3.828241   2.542737   1.540000   3.828178   4.330080
    11  C    4.982541   3.644731   2.741200   4.982397   5.531280
    12  N    2.790065   2.416260   1.395427   1.394825   2.416236
    13  Br   6.851251   5.483473   4.651200   6.851037   7.441280
                    6          7          8          9         10
     6  H    0.000000
     7  H    2.494427   0.000000
     8  H    4.320781   4.989362   0.000000
     9  H    2.494641   4.320704   2.494420   0.000000
    10  C    4.707369   2.741654   4.707691   5.429684   0.000000
    11  C    5.800906   3.607665   5.801133   6.630884   1.201200
    12  N    3.889675   3.413316   2.165528   3.412999   2.543093
    13  Br   7.606890   5.263155   7.607021   8.540884   3.111200
                   11         12         13
    11  C    0.000000
    12  N    3.644960   0.000000
    13  Br   1.910000   5.483605   0.000000
 Symmetry turned off by external request.
 Stoichiometry    C7H4BrN
 Framework group  C1[X(C7H4BrN)]
 Deg. of freedom    33
 Full point group                 C1      NOp   1
 Rotational constants (GHZ):      5.8028662      0.3271269      0.3096698
 Standard basis: 6-31G (6D, 7F)
   104 basis functions,   269 primitive gaussians,   104 cartesian basis functions
    44 alpha electrons       44 beta electrons
       nuclear repulsion energy       507.0649340086 Hartrees.
 NAtoms=   13 NActive=   13 NUniq=   13 SFac= 1.00D+00 NAtFMM=   60 NAOKFM=F Big=F
 Integral buffers will be    131072 words long.
 Raffenetti 2 integral format.
 Two-electron integral symmetry is turned off.
 Nuclear repulsion after empirical dispersion term =      507.0576165073 Hartrees.
 One-electron integrals computed using PRISM.
 NBasis=   104 RedAO= T EigKep=  4.70D-04  NBF=   104
 NBsUse=   104 1.00D-06 EigRej= -1.00D+00 NBFU=   104
 ExpMin= 1.43D-01 ExpMax= 5.74D+05 ExpMxC= 5.74D+03 IAcc=2 IRadAn=         4 AccDes= 0.00D+00
 Harris functional with IExCor=  402 and IRadAn=       4 diagonalized for initial guess.
 HarFok:  IExCor=  402 AccDes= 0.00D+00 IRadAn=         4 IDoV= 1 UseB2=F ITyADJ=14
 ICtDFT=  3500011 ScaDFX=  1.000000  1.000000  1.000000  1.000000
 FoFCou: FMM=F IPFlag=           0 FMFlag=      100000 FMFlg1=           0
         NFxFlg=           0 DoJE=T BraDBF=F KetDBF=T FulRan=T
         wScrn=  0.000000 ICntrl=     500 IOpCl=  0 I1Cent=   200000004 NGrid=           0
         NMat0=    1 NMatS0=      1 NMatT0=    0 NMatD0=    1 NMtDS0=    0 NMtDT0=    0
 Symmetry not used in FoFCou.
 Keep R1 ints in memory in canonical form, NReq=16004320.
 Requested convergence on RMS density matrix=1.00D-08 within 128 cycles.
 Requested convergence on MAX density matrix=1.00D-06.
 Requested convergence on             energy=1.00D-06.
 No special actions if energy rises.
 Integral accuracy reduced to 1.0D-05 until final iterations.
 Initial convergence to 1.0D-05 achieved.  Increase integral accuracy.
 SCF Done:  E(RB3LYP) =  -2895.29539786     A.U. after   16 cycles
            NFock= 16  Conv=0.71D-08     -V/T= 2.0045

 **********************************************************************

            Population analysis using the SCF density.

 **********************************************************************

 Alpha  occ. eigenvalues -- -482.81925 -61.79988 -56.34962 -56.34391 -56.34390
 Alpha  occ. eigenvalues --  -14.35107 -10.27269 -10.24167 -10.23927 -10.22019
 Alpha  occ. eigenvalues --  -10.21546 -10.21340 -10.21261  -8.57363  -6.54599
 Alpha  occ. eigenvalues --   -6.52840  -6.52832  -2.66183  -2.65653  -2.65649
 Alpha  occ. eigenvalues --   -2.64244  -2.64244  -0.94604  -0.82701  -0.81548
 Alpha  occ. eigenvalues --   -0.79303  -0.74697  -0.65008  -0.64059  -0.55080
 Alpha  occ. eigenvalues --   -0.50241  -0.49505  -0.47381  -0.45620  -0.41544
 Alpha  occ. eigenvalues --   -0.40936  -0.38617  -0.35525  -0.35258  -0.30708
 Alpha  occ. eigenvalues --   -0.29054  -0.27511  -0.25462  -0.25413
 Alpha virt. eigenvalues --   -0.04899  -0.04060  -0.03123   0.04460   0.07502
 Alpha virt. eigenvalues --    0.08224   0.12480   0.14950   0.14979   0.16615
 Alpha virt. eigenvalues --    0.18547   0.24543   0.29652   0.30203   0.31970
 Alpha virt. eigenvalues --    0.33822   0.44969   0.47273   0.47952   0.48140
 Alpha virt. eigenvalues --    0.48834   0.50365   0.52187   0.54827   0.55756
 Alpha virt. eigenvalues --    0.56776   0.58959   0.60343   0.61161   0.61521
 Alpha virt. eigenvalues --    0.62413   0.66227   0.66301   0.67391   0.68537
 Alpha virt. eigenvalues --    0.71889   0.77234   0.81040   0.82294   0.83371
 Alpha virt. eigenvalues --    0.86143   0.87302   0.87755   0.89870   0.90910
 Alpha virt. eigenvalues --    0.95701   0.97266   1.01036   1.04958   1.12198
 Alpha virt. eigenvalues --    1.15368   1.19325   1.28453   1.34236   1.46860
 Alpha virt. eigenvalues --    1.52102   1.63873   1.84045   6.58842  39.73156
          Condensed to atoms (all electrons):
               1          2          3          4          5          6
     1  C    4.915058   0.511024  -0.051591  -0.050657   0.529499   0.357942
     2  C    0.511024   5.104953   0.450837  -0.039879  -0.051900  -0.031154
     3  C   -0.051591   0.450837   5.163955  -0.050455  -0.028999   0.003410
     4  C   -0.050657  -0.039879  -0.050455   4.901438   0.440158   0.004155
     5  C    0.529499  -0.051900  -0.028999   0.440158   5.037995  -0.034715
     6  H    0.357942  -0.031154   0.003410   0.004155  -0.034715   0.560577
     7  H   -0.033111   0.343459  -0.025865   0.000134   0.004722  -0.004403
     8  H    0.003403  -0.000268   0.004398   0.378166  -0.061461  -0.000150
     9  H   -0.034702   0.004761   0.000819  -0.024386   0.340445  -0.004553
    10  C    0.002752  -0.110904   0.262828   0.006394  -0.000011  -0.000248
    11  C   -0.000123  -0.016317  -0.366405  -0.000017   0.000032  -0.000007
    12  N   -0.041662  -0.078730   0.446197   0.395335  -0.050164   0.000062
    13  Br   0.000000  -0.000069   0.001260   0.000000   0.000000   0.000000
               7          8          9         10         11         12
     1  C   -0.033111   0.003403  -0.034702   0.002752  -0.000123  -0.041662
     2  C    0.343459  -0.000268   0.004761  -0.110904  -0.016317  -0.078730
     3  C   -0.025865   0.004398   0.000819   0.262828  -0.366405   0.446197
     4  C    0.000134   0.378166  -0.024386   0.006394  -0.000017   0.395335
     5  C    0.004722  -0.061461   0.340445  -0.000011   0.000032  -0.050164
     6  H   -0.004403  -0.000150  -0.004553  -0.000248  -0.000007   0.000062
     7  H    0.553517   0.000015  -0.000095   0.000859   0.000151   0.004275
     8  H    0.000015   0.558651  -0.000216   0.000032   0.000001  -0.040653
     9  H   -0.000095  -0.000216   0.570672   0.000028   0.000000   0.004476
    10  C    0.000859   0.000032   0.000028   6.115011  -0.053389  -0.078302
    11  C    0.000151   0.000001   0.000000  -0.053389   6.694456  -0.010428
    12  N    0.004275  -0.040653   0.004476  -0.078302  -0.010428   6.856571
    13  Br   0.000001   0.000000   0.000000   0.028845   0.069816  -0.000030
              13
     1  C    0.000000
     2  C   -0.000069
     3  C    0.001260
     4  C    0.000000
     5  C    0.000000
     6  H    0.000000
     7  H    0.000001
     8  H    0.000000
     9  H    0.000000
    10  C    0.028845
    11  C    0.069816
    12  N   -0.000030
    13  Br  34.517800
 Mulliken charges:
               1
     1  C   -0.107833
     2  C   -0.085812
     3  C    0.189611
     4  C    0.039614
     5  C   -0.125600
     6  H    0.149084
     7  H    0.156340
     8  H    0.158081
     9  H    0.142750
    10  C   -0.173895
    11  C   -0.317771
    12  N   -0.406948
    13  Br   0.382377
 Sum of Mulliken charges =   0.00000
 Mulliken charges with hydrogens summed into heavy atoms:
               1
     1  C    0.041250
     2  C    0.070528
     3  C    0.189611
     4  C    0.197695
     5  C    0.017151
    10  C   -0.173895
    11  C   -0.317771
    12  N   -0.406948
    13  Br   0.382377
 Electronic spatial extent (au):  <R**2>=           3170.9980
 Charge=              0.0000 electrons
 Dipole moment (field-independent basis, Debye):
    X=             -2.1086    Y=             -2.1137    Z=              0.0011  Tot=              2.9857
 Quadrupole moment (field-independent basis, Debye-Ang):
   XX=            -43.4910   YY=            -65.1472   ZZ=            -65.7308
   XY=              1.2408   XZ=              0.0054   YZ=             -0.0023
 Traceless Quadrupole moment (field-independent basis, Debye-Ang):
   XX=             14.6320   YY=             -7.0243   ZZ=             -7.6078
   XY=              1.2408   XZ=              0.0054   YZ=             -0.0023
 Octapole moment (field-independent basis, Debye-Ang**2):
  XXX=             55.6510  YYY=           -132.5176  ZZZ=             -0.1252  XYY=             26.9284
  XXY=            -27.3978  XXZ=             -0.0431  XZZ=             42.4591  YZZ=            -41.4194
  YYZ=             -0.0412  XYZ=              0.0188
 Hexadecapole moment (field-independent basis, Debye-Ang**3):
 XXXX=          -2640.3779 YYYY=           -473.7660 ZZZZ=            -68.4208 XXXY=             16.2778
 XXXZ=             -0.4644 YYYX=             59.4167 YYYZ=             -0.0257 ZZZX=             -0.7162
 ZZZY=             -0.0033 XXYY=           -546.5791 XXZZ=           -573.8696 YYZZ=            -92.2101
 XXYZ=             -0.0713 YYXZ=             -0.2053 ZZXY=             24.6217
 N-N= 5.070576165073D+02 E-N=-7.904132173983D+03  KE= 2.882255802541D+03
 Calling FoFJK, ICntrl=      2127 FMM=F ISym2X=0 I1Cent= 0 IOpClX= 0 NMat=1 NMatS=1 NMatT=0.
 -------------------------------------------------------------------
 Center     Atomic                   Forces (Hartrees/Bohr)
 Number     Number              X              Y              Z
 -------------------------------------------------------------------
      1        6          -0.004552672   -0.009554678   -0.000016402
      2        6           0.007544589   -0.020538958    0.000139648
      3        6           0.023196355    0.029139214   -0.000060880
      4        6           0.037439942   -0.013096535    0.000050054
      5        6          -0.018023034    0.000784037   -0.000053000
      6        1           0.005448525    0.008288367    0.000000608
      7        1          -0.004268339    0.008886618   -0.000052961
      8        1           0.013571763   -0.005331891    0.000009208
      9        1           0.009185689    0.000346208    0.000009588
     10        6          -0.086932865    0.008004262   -0.000055945
     11        6           0.054588129   -0.001260703    0.000032480
     12        7          -0.005485254   -0.005639418    0.000015314
     13       35          -0.031712828   -0.000026523   -0.000017711
 -------------------------------------------------------------------
 Cartesian Forces:  Max     0.086932865 RMS     0.020279986

 GradGradGradGradGradGradGradGradGradGradGradGradGradGradGradGradGradGrad
 Berny optimization.
 FormGI is forming the generalized inverse of G from B-inverse, IUseBI=4.
 GSVD:  received Info=                   1 from GESDD.
 Internal  Forces:  Max     0.064057202 RMS     0.014334004
 Search for a local minimum.
 Step number   1 out of a maximum of   63
 All quantities printed in internal units (Hartrees-Bohrs-Radians)
 Mixed Optimization -- RFO/linear search
 Second derivative matrix not updated -- first step.
 ITU=  0
     Eigenvalues ---    0.00230   0.00230   0.01839   0.02005   0.02037
     Eigenvalues ---    0.02110   0.02154   0.02155   0.02155   0.02156
     Eigenvalues ---    0.04718   0.04718   0.16000   0.16000   0.16000
     Eigenvalues ---    0.16000   0.17771   0.22000   0.22409   0.24406
     Eigenvalues ---    0.25000   0.28519   0.33709   0.33720   0.33725
     Eigenvalues ---    0.33726   0.42262   0.42805   0.46412   0.46453
     Eigenvalues ---    0.46466   0.46497   1.04222
 RFO step:  Lambda=-3.22194431D-02 EMin= 2.30000000D-03
 Linear search not attempted -- first point.
 Maximum step size (   0.300) exceeded in Quadratic search.
    -- Step size scaled by   0.922
 Iteration  1 RMS(Cart)=  0.07991673 RMS(Int)=  0.00082185
 Iteration  2 RMS(Cart)=  0.00108865 RMS(Int)=  0.00004702
 Iteration  3 RMS(Cart)=  0.00000125 RMS(Int)=  0.00004701
 Iteration  4 RMS(Cart)=  0.00000000 RMS(Int)=  0.00004701
 Variable       Old X    -DE/DX   Delta X   Delta X   Delta X     New X
                                 (Linear)    (Quad)   (Total)
    R1        2.63647  -0.00321   0.00000  -0.00257  -0.00251   2.63396
    R2        2.63584  -0.00062   0.00000   0.00159   0.00165   2.63750
    R3        2.07796  -0.00990   0.00000  -0.02471  -0.02471   2.05325
    R4        2.63562   0.00741   0.00000   0.01438   0.01437   2.65000
    R5        2.07805  -0.00983   0.00000  -0.02453  -0.02453   2.05351
    R6        2.91018  -0.06406   0.00000  -0.18607  -0.18607   2.72411
    R7        2.63697  -0.03759   0.00000  -0.07260  -0.07267   2.56430
    R8        2.63643   0.00513   0.00000   0.00888   0.00889   2.64531
    R9        2.07825  -0.01141   0.00000  -0.02848  -0.02848   2.04977
   R10        2.63584  -0.03986   0.00000  -0.07731  -0.07737   2.55846
   R11        2.07795  -0.00919   0.00000  -0.02292  -0.02292   2.05503
   R12        2.26994   0.02288   0.00000   0.01963   0.01963   2.28957
   R13        3.60938  -0.03171   0.00000  -0.13928  -0.13928   3.47010
    A1        2.09437  -0.01024   0.00000  -0.02416  -0.02401   2.07036
    A2        2.09435   0.00452   0.00000   0.00921   0.00914   2.10348
    A3        2.09447   0.00572   0.00000   0.01495   0.01487   2.10934
    A4        2.09455  -0.00818   0.00000  -0.02083  -0.02076   2.07378
    A5        2.09406   0.00487   0.00000   0.01413   0.01409   2.10815
    A6        2.09458   0.00332   0.00000   0.00671   0.00667   2.10125
    A7        2.09462  -0.00098   0.00000  -0.00180  -0.00177   2.09285
    A8        2.09429   0.01853   0.00000   0.05772   0.05766   2.15195
    A9        2.09427  -0.01755   0.00000  -0.05592  -0.05589   2.03839
   A10        2.09411   0.00063   0.00000   0.01659   0.01661   2.11073
   A11        2.09448   0.01761   0.00000   0.05738   0.05733   2.15181
   A12        2.09459  -0.01825   0.00000  -0.07397  -0.07394   2.02065
   A13        2.09440  -0.00634   0.00000  -0.01794  -0.01786   2.07654
   A14        2.09453   0.00353   0.00000   0.01070   0.01066   2.10519
   A15        2.09426   0.00281   0.00000   0.00724   0.00720   2.10145
   A16        2.09429  -0.01138   0.00000  -0.05217  -0.05236   2.04193
   A17        3.14159  -0.00300   0.00000  -0.03488  -0.03488   3.10671
   A18        3.14159  -0.00008   0.00000  -0.00222  -0.00222   3.13938
   A19        3.14159   0.00000   0.00000   0.00003   0.00003   3.14162
   A20        3.14159   0.00000   0.00000   0.00003   0.00003   3.14162
    D1        0.00056  -0.00003   0.00000  -0.00031  -0.00030   0.00026
    D2        3.14078   0.00001   0.00000   0.00033   0.00034   3.14112
    D3       -3.14112  -0.00002   0.00000  -0.00029  -0.00028  -3.14140
    D4       -0.00091   0.00002   0.00000   0.00035   0.00036  -0.00055
    D5        0.00026  -0.00002   0.00000  -0.00015  -0.00014   0.00012
    D6        3.14140   0.00000   0.00000   0.00012   0.00012   3.14153
    D7       -3.14124  -0.00002   0.00000  -0.00017  -0.00016  -3.14140
    D8       -0.00010   0.00000   0.00000   0.00009   0.00010   0.00000
    D9        3.14093   0.00002   0.00000   0.00027   0.00027   3.14120
   D10       -0.00099   0.00002   0.00000   0.00048   0.00049  -0.00050
   D11        0.00072  -0.00002   0.00000  -0.00038  -0.00037   0.00034
   D12       -3.14120  -0.00002   0.00000  -0.00017  -0.00015  -3.14136
   D13        0.00060  -0.00001   0.00000  -0.00028  -0.00028   0.00031
   D14       -3.14132   0.00000   0.00000  -0.00006  -0.00006  -3.14138
   D15        3.14116   0.00001   0.00000   0.00017   0.00016   3.14132
   D16        0.00001  -0.00001   0.00000  -0.00010  -0.00010  -0.00008
   D17       -0.00066   0.00002   0.00000   0.00033   0.00033  -0.00032
   D18        3.14138   0.00000   0.00000   0.00006   0.00007   3.14146
   D19        0.00023   0.00000   0.00000  -0.00012  -0.00012   0.00011
   D20       -3.14158   0.00000   0.00000   0.00006   0.00005  -3.14153
         Item               Value     Threshold  Converged?
 Maximum Force            0.064057     0.000450     NO 
 RMS     Force            0.014334     0.000300     NO 
 Maximum Displacement     0.336968     0.001800     NO 
 RMS     Displacement     0.079937     0.001200     NO 
 Predicted change in Energy=-1.745895D-02
 GradGradGradGradGradGradGradGradGradGradGradGradGradGradGradGradGradGrad

                          Input orientation:                          
 ---------------------------------------------------------------------
 Center     Atomic      Atomic             Coordinates (Angstroms)
 Number     Number       Type             X           Y           Z
 ---------------------------------------------------------------------
      1          6           0       -3.564843   -0.574408    0.000038
      2          6           0       -2.171029   -0.566978    0.000289
      3          6           0       -1.501607    0.665243    0.000004
      4          6           0       -3.496194    1.833051   -0.001529
      5          6           0       -4.239962    0.647150   -0.000812
      6          1           0       -4.111643   -1.513326    0.000429
      7          1           0       -1.609834   -1.497524    0.001390
      8          1           0       -3.988116    2.799782   -0.002452
      9          1           0       -5.326963    0.679231   -0.001093
     10          6           0       -0.060499    0.700403    0.000749
     11          6           0        1.151021    0.687696    0.001430
     12          7           0       -2.142607    1.861274   -0.001077
     13         35           0        2.987169    0.664364    0.002497
 ---------------------------------------------------------------------
                    Distance matrix (angstroms):
                    1          2          3          4          5
     1  C    0.000000
     2  C    1.393833   0.000000
     3  C    2.407006   1.402318   0.000000
     4  C    2.408438   2.741570   2.311310   0.000000
     5  C    1.395705   2.398873   2.738415   1.399840   0.000000
     6  H    1.086535   2.159063   3.399772   3.402502   2.164284
     7  H    2.161991   1.086672   2.165474   3.827674   3.393701
     8  H    3.400636   3.825819   3.277040   1.084693   2.167315
     9  H    2.162564   3.393075   3.825382   2.164028   1.087475
    10  C    3.729017   2.461827   1.441537   3.617581   4.179802
    11  C    4.881831   3.551088   2.652724   4.786278   5.391136
    12  N    2.820514   2.428419   1.356972   1.353880   2.423426
    13  Br   6.668090   5.303133   4.488777   6.587855   7.227152
                    6          7          8          9         10
     6  H    0.000000
     7  H    2.501859   0.000000
     8  H    4.314878   4.911526   0.000000
     9  H    2.506853   4.307589   2.507838   0.000000
    10  C    4.616531   2.689112   4.453490   5.266507   0.000000
    11  C    5.704396   3.521009   5.556227   6.477990   1.211587
    12  N    3.907048   3.400791   2.070435   3.396667   2.383862
    13  Br   7.425326   5.079980   7.294836   8.314146   3.047882
                   11         12         13
    11  C    0.000000
    12  N    3.496467   0.000000
    13  Br   1.836296   5.267562   0.000000
 Symmetry turned off by external request.
 Stoichiometry    C7H4BrN
 Framework group  C1[X(C7H4BrN)]
 Deg. of freedom    33
 Full point group                 C1      NOp   1
 Rotational constants (GHZ):      5.7989949      0.3499682      0.3300498
 Standard basis: 6-31G (6D, 7F)
   104 basis functions,   269 primitive gaussians,   104 cartesian basis functions
    44 alpha electrons       44 beta electrons
       nuclear repulsion energy       519.4950194956 Hartrees.
 NAtoms=   13 NActive=   13 NUniq=   13 SFac= 1.00D+00 NAtFMM=   60 NAOKFM=F Big=F
 Integral buffers will be    131072 words long.
 Raffenetti 2 integral format.
 Two-electron integral symmetry is turned off.
 Nuclear repulsion after empirical dispersion term =      519.4875956724 Hartrees.
 One-electron integrals computed using PRISM.
 NBasis=   104 RedAO= T EigKep=  3.72D-04  NBF=   104
 NBsUse=   104 1.00D-06 EigRej= -1.00D+00 NBFU=   104
 Initial guess from the checkpoint file:  "E:\PROJECT- VIT group\ML\Substrates\molecule_21.chk"
 B after Tr=    -0.132006    0.004446   -0.000100
         Rot=    0.999999    0.000006   -0.000009   -0.001130 Ang=   0.13 deg.
 ExpMin= 1.43D-01 ExpMax= 5.74D+05 ExpMxC= 5.74D+03 IAcc=2 IRadAn=         4 AccDes= 0.00D+00
 Harris functional with IExCor=  402 and IRadAn=       4 diagonalized for initial guess.
 HarFok:  IExCor=  402 AccDes= 0.00D+00 IRadAn=         4 IDoV= 1 UseB2=F ITyADJ=14
 ICtDFT=  3500011 ScaDFX=  1.000000  1.000000  1.000000  1.000000
 FoFCou: FMM=F IPFlag=           0 FMFlag=      100000 FMFlg1=           0
         NFxFlg=           0 DoJE=T BraDBF=F KetDBF=T FulRan=T
         wScrn=  0.000000 ICntrl=     500 IOpCl=  0 I1Cent=   200000004 NGrid=           0
         NMat0=    1 NMatS0=      1 NMatT0=    0 NMatD0=    1 NMtDS0=    0 NMtDT0=    0
 Symmetry not used in FoFCou.
 Keep R1 ints in memory in canonical form, NReq=16005111.
 Requested convergence on RMS density matrix=1.00D-08 within 128 cycles.
 Requested convergence on MAX density matrix=1.00D-06.
 Requested convergence on             energy=1.00D-06.
 No special actions if energy rises.
 Integral accuracy reduced to 1.0D-05 until final iterations.
 Initial convergence to 1.0D-05 achieved.  Increase integral accuracy.
 SCF Done:  E(RB3LYP) =  -2895.31184747     A.U. after   16 cycles
            NFock= 16  Conv=0.69D-08     -V/T= 2.0044
 Calling FoFJK, ICntrl=      2127 FMM=F ISym2X=0 I1Cent= 0 IOpClX= 0 NMat=1 NMatS=1 NMatT=0.
 -------------------------------------------------------------------
 Center     Atomic                   Forces (Hartrees/Bohr)
 Number     Number              X              Y              Z
 -------------------------------------------------------------------
      1        6           0.000031594   -0.001961575   -0.000012301
      2        6          -0.001860385   -0.006517823    0.000065539
      3        6           0.018497818    0.002356745   -0.000017511
      4        6           0.003351353    0.000226319    0.000008490
      5        6          -0.005871856    0.002539820   -0.000025175
      6        1           0.000627689    0.001141981    0.000003728
      7        1           0.000098441    0.002496562   -0.000024777
      8        1           0.000014529    0.000110599    0.000003520
      9        1           0.002063331    0.000943725    0.000002009
     10        6          -0.009646043   -0.000833208   -0.000006090
     11        6           0.005349932   -0.000515053    0.000004287
     12        7          -0.009256851   -0.000405247    0.000001112
     13       35          -0.003399552    0.000417153   -0.000002830
 -------------------------------------------------------------------
 Cartesian Forces:  Max     0.018497818 RMS     0.004184975

 GradGradGradGradGradGradGradGradGradGradGradGradGradGradGradGradGradGrad
 Berny optimization.
 Using GEDIIS/GDIIS optimizer.
 FormGI is forming the generalized inverse of G from B-inverse, IUseBI=4.
 Internal  Forces:  Max     0.007716203 RMS     0.002073232
 Search for a local minimum.
 Step number   2 out of a maximum of   63
 All quantities printed in internal units (Hartrees-Bohrs-Radians)
 Mixed Optimization -- RFO/linear search
 Update second derivatives using D2CorX and points    1    2
 DE= -1.64D-02 DEPred=-1.75D-02 R= 9.42D-01
 TightC=F SS=  1.41D+00  RLast= 3.00D-01 DXNew= 5.0454D-01 9.0000D-01
 Trust test= 9.42D-01 RLast= 3.00D-01 DXMaxT set to 5.05D-01
 ITU=  1  0
 Use linear search instead of GDIIS.
     Eigenvalues ---    0.00230   0.00230   0.01845   0.02013   0.02043
     Eigenvalues ---    0.02108   0.02154   0.02155   0.02155   0.02156
     Eigenvalues ---    0.04718   0.04742   0.15944   0.16000   0.16000
     Eigenvalues ---    0.16118   0.17934   0.21913   0.22455   0.24877
     Eigenvalues ---    0.25559   0.29511   0.33582   0.33722   0.33724
     Eigenvalues ---    0.33844   0.41679   0.43122   0.46255   0.46447
     Eigenvalues ---    0.46478   0.49404   1.04079
 RFO step:  Lambda=-1.27714275D-03 EMin= 2.29999715D-03
 Quartic linear search produced a step of  0.04243.
 Iteration  1 RMS(Cart)=  0.08516945 RMS(Int)=  0.02838694
 Iteration  2 RMS(Cart)=  0.07672207 RMS(Int)=  0.00764717
 Iteration  3 RMS(Cart)=  0.00746730 RMS(Int)=  0.00000885
 Iteration  4 RMS(Cart)=  0.00000484 RMS(Int)=  0.00000867
 Iteration  5 RMS(Cart)=  0.00000000 RMS(Int)=  0.00000867
 Variable       Old X    -DE/DX   Delta X   Delta X   Delta X     New X
                                 (Linear)    (Quad)   (Total)
    R1        2.63396   0.00299  -0.00011   0.00717   0.00706   2.64102
    R2        2.63750   0.00377   0.00007   0.00834   0.00839   2.64589
    R3        2.05325  -0.00130  -0.00105  -0.00368  -0.00473   2.04852
    R4        2.65000   0.00452   0.00061   0.01047   0.01109   2.66108
    R5        2.05351  -0.00209  -0.00104  -0.00610  -0.00714   2.04637
    R6        2.72411  -0.00772  -0.00790  -0.02519  -0.03308   2.69103
    R7        2.56430   0.00385  -0.00308   0.00943   0.00636   2.57066
    R8        2.64531  -0.00094   0.00038  -0.00269  -0.00233   2.64299
    R9        2.04977   0.00009  -0.00121   0.00066  -0.00055   2.04923
   R10        2.55846  -0.00324  -0.00328  -0.00694  -0.01022   2.54824
   R11        2.05503  -0.00203  -0.00097  -0.00596  -0.00693   2.04810
   R12        2.28957   0.00195   0.00083   0.00185   0.00268   2.29225
   R13        3.47010  -0.00340  -0.00591  -0.01645  -0.02236   3.44773
    A1        2.07036   0.00144  -0.00102   0.00810   0.00707   2.07742
    A2        2.10348  -0.00069   0.00039  -0.00377  -0.00337   2.10011
    A3        2.10934  -0.00075   0.00063  -0.00434  -0.00370   2.10565
    A4        2.07378  -0.00024  -0.00088   0.00136   0.00048   2.07427
    A5        2.10815   0.00153   0.00060   0.00834   0.00894   2.11709
    A6        2.10125  -0.00129   0.00028  -0.00970  -0.00942   2.09183
    A7        2.09285   0.00197  -0.00008   0.00767   0.00758   2.10043
    A8        2.15195  -0.00482   0.00245  -0.01994  -0.01747   2.13448
    A9        2.03839   0.00285  -0.00237   0.01227   0.00989   2.04828
   A10        2.11073  -0.00021   0.00070  -0.00054   0.00017   2.11090
   A11        2.15181   0.00054   0.00243  -0.00052   0.00190   2.15370
   A12        2.02065  -0.00033  -0.00314   0.00106  -0.00207   2.01858
   A13        2.07654  -0.00154  -0.00076  -0.00807  -0.00886   2.06768
   A14        2.10519   0.00180   0.00045   0.01065   0.01112   2.11631
   A15        2.10145  -0.00026   0.00031  -0.00258  -0.00226   2.09920
   A16        2.04193   0.00463  -0.00222   0.01908   0.01688   2.05882
   A17        3.10671   0.00113  -0.00148   0.02741   0.02593   3.13264
   A18        3.13938   0.00130  -0.00009   0.38256   0.38246   3.52184
   A19        3.14162   0.00000   0.00000  -0.00003  -0.00003   3.14159
   A20        3.14162   0.00000   0.00000  -0.00041  -0.00041   3.14121
    D1        0.00026  -0.00001  -0.00001  -0.00031  -0.00032  -0.00006
    D2        3.14112   0.00001   0.00001   0.00049   0.00050  -3.14157
    D3       -3.14140  -0.00001  -0.00001  -0.00027  -0.00029   3.14150
    D4       -0.00055   0.00001   0.00002   0.00052   0.00054  -0.00001
    D5        0.00012   0.00000  -0.00001  -0.00014  -0.00014  -0.00002
    D6        3.14153   0.00000   0.00001   0.00013   0.00014  -3.14152
    D7       -3.14140   0.00000  -0.00001  -0.00017  -0.00018  -3.14158
    D8        0.00000   0.00000   0.00000   0.00010   0.00010   0.00010
    D9        3.14120   0.00001   0.00001   0.00042   0.00043  -3.14156
   D10       -0.00050   0.00002   0.00002   0.00059   0.00061   0.00011
   D11        0.00034  -0.00001  -0.00002  -0.00038  -0.00039  -0.00005
   D12       -3.14136  -0.00001  -0.00001  -0.00021  -0.00022  -3.14157
   D13        0.00031  -0.00001  -0.00001  -0.00036  -0.00037  -0.00006
   D14       -3.14138   0.00000   0.00000  -0.00020  -0.00020  -3.14159
   D15        3.14132   0.00001   0.00001   0.00026   0.00027   3.14159
   D16       -0.00008   0.00000   0.00000   0.00000  -0.00001  -0.00009
   D17       -0.00032   0.00001   0.00001   0.00037   0.00039   0.00006
   D18        3.14146   0.00000   0.00000   0.00011   0.00011   3.14157
   D19        0.00011   0.00000  -0.00001  -0.00013  -0.00013  -0.00002
   D20       -3.14153   0.00000   0.00000  -0.00002  -0.00002  -3.14155
         Item               Value     Threshold  Converged?
 Maximum Force            0.007716     0.000450     NO 
 RMS     Force            0.002073     0.000300     NO 
 Maximum Displacement     0.885394     0.001800     NO 
 RMS     Displacement     0.158828     0.001200     NO 
 Predicted change in Energy=-7.767150D-04
 GradGradGradGradGradGradGradGradGradGradGradGradGradGradGradGradGradGrad

                          Input orientation:                          
 ---------------------------------------------------------------------
 Center     Atomic      Atomic             Coordinates (Angstroms)
 Number     Number       Type             X           Y           Z
 ---------------------------------------------------------------------
      1          6           0       -3.604921   -0.568437    0.000007
      2          6           0       -2.208834   -0.632754    0.000739
      3          6           0       -1.473384    0.568120    0.000261
      4          6           0       -3.422231    1.829501   -0.001411
      5          6           0       -4.227253    0.685802   -0.001102
      6          1           0       -4.194778   -1.477938    0.000264
      7          1           0       -1.689429   -1.582952    0.001579
      8          1           0       -3.861804    2.820816   -0.002263
      9          1           0       -5.307153    0.777731   -0.001630
     10          6           0       -0.049635    0.539822    0.000941
     11          6           0        1.162868    0.504860    0.001528
     12          7           0       -2.074383    1.788493   -0.000767
     13         35           0        2.875829    1.132895    0.001716
 ---------------------------------------------------------------------
                    Distance matrix (angstroms):
                    1          2          3          4          5
     1  C    0.000000
     2  C    1.397568   0.000000
     3  C    2.415618   1.408185   0.000000
     4  C    2.404887   2.745002   2.321441   0.000000
     5  C    1.400147   2.410935   2.756382   1.398609   0.000000
     6  H    1.084031   2.158312   3.404752   3.396466   2.163984
     7  H    2.167569   1.082893   2.161894   3.827198   3.404086
     8  H    3.398974   3.828768   3.283168   1.084403   2.166065
     9  H    2.170199   3.404270   3.839495   2.158507   1.083806
    10  C    3.724016   2.457046   1.424030   3.610772   4.180168
    11  C    4.887103   3.558447   2.637011   4.772610   5.393158
    12  N    2.810278   2.424978   1.360336   1.348471   2.418838
    13  Br   6.700347   5.382501   4.385731   6.336468   7.117140
                    6          7          8          9         10
     6  H    0.000000
     7  H    2.507550   0.000000
     8  H    4.311631   4.910438   0.000000
     9  H    2.515040   4.319811   2.502644   0.000000
    10  C    4.610159   2.682367   4.442474   5.262899   0.000000
    11  C    5.712781   3.534764   5.532720   6.475773   1.213007
    12  N    3.894310   3.393352   2.064113   3.387099   2.378821
    13  Br   7.537237   5.312006   6.945847   8.190687   2.984976
                   11         12         13
    11  C    0.000000
    12  N    3.482458   0.000000
    13  Br   1.824463   4.993438   0.000000
 Symmetry turned off by external request.
 Stoichiometry    C7H4BrN
 Framework group  C1[X(C7H4BrN)]
 Deg. of freedom    33
 Full point group                 C1      NOp   1
 Rotational constants (GHZ):      5.6178631      0.3617507      0.3398658
 Standard basis: 6-31G (6D, 7F)
   104 basis functions,   269 primitive gaussians,   104 cartesian basis functions
    44 alpha electrons       44 beta electrons
       nuclear repulsion energy       523.1766829437 Hartrees.
 NAtoms=   13 NActive=   13 NUniq=   13 SFac= 1.00D+00 NAtFMM=   60 NAOKFM=F Big=F
 Integral buffers will be    131072 words long.
 Raffenetti 2 integral format.
 Two-electron integral symmetry is turned off.
 Nuclear repulsion after empirical dispersion term =      523.1692835002 Hartrees.
 One-electron integrals computed using PRISM.
 NBasis=   104 RedAO= T EigKep=  5.56D-04  NBF=   104
 NBsUse=   104 1.00D-06 EigRej= -1.00D+00 NBFU=   104
 Initial guess from the checkpoint file:  "E:\PROJECT- VIT group\ML\Substrates\molecule_21.chk"
 B after Tr=     0.011736    0.297278   -0.000386
         Rot=    0.999491    0.000034   -0.000054   -0.031906 Ang=   3.66 deg.
 ExpMin= 1.43D-01 ExpMax= 5.74D+05 ExpMxC= 5.74D+03 IAcc=2 IRadAn=         4 AccDes= 0.00D+00
 Harris functional with IExCor=  402 and IRadAn=       4 diagonalized for initial guess.
 HarFok:  IExCor=  402 AccDes= 0.00D+00 IRadAn=         4 IDoV= 1 UseB2=F ITyADJ=14
 ICtDFT=  3500011 ScaDFX=  1.000000  1.000000  1.000000  1.000000
 FoFCou: FMM=F IPFlag=           0 FMFlag=      100000 FMFlg1=           0
         NFxFlg=           0 DoJE=T BraDBF=F KetDBF=T FulRan=T
         wScrn=  0.000000 ICntrl=     500 IOpCl=  0 I1Cent=   200000004 NGrid=           0
         NMat0=    1 NMatS0=      1 NMatT0=    0 NMatD0=    1 NMtDS0=    0 NMtDT0=    0
 Symmetry not used in FoFCou.
 Keep R1 ints in memory in canonical form, NReq=16005561.
 Requested convergence on RMS density matrix=1.00D-08 within 128 cycles.
 Requested convergence on MAX density matrix=1.00D-06.
 Requested convergence on             energy=1.00D-06.
 No special actions if energy rises.
 Integral accuracy reduced to 1.0D-05 until final iterations.
 Initial convergence to 1.0D-05 achieved.  Increase integral accuracy.
 SCF Done:  E(RB3LYP) =  -2895.30498076     A.U. after   17 cycles
            NFock= 17  Conv=0.46D-08     -V/T= 2.0043
 Calling FoFJK, ICntrl=      2127 FMM=F ISym2X=0 I1Cent= 0 IOpClX= 0 NMat=1 NMatS=1 NMatT=0.
 -------------------------------------------------------------------
 Center     Atomic                   Forces (Hartrees/Bohr)
 Number     Number              X              Y              Z
 -------------------------------------------------------------------
      1        6           0.001334149    0.000483028   -0.000001524
      2        6          -0.004049641    0.000378774   -0.000011951
      3        6          -0.001902846   -0.005184162    0.000014952
      4        6           0.001437693    0.000175570   -0.000005661
      5        6           0.000079042   -0.001064359    0.000008673
      6        1          -0.000276750   -0.000506044    0.000002771
      7        1           0.000291122   -0.000558531    0.000001678
      8        1          -0.000261283    0.000454155    0.000001932
      9        1          -0.000272210   -0.000106556   -0.000003381
     10        6          -0.004502174   -0.005138125    0.000002259
     11        6          -0.000115889    0.017332722   -0.000016765
     12        7           0.000077444    0.000771738   -0.000003430
     13       35           0.008161342   -0.007038208    0.000010447
 -------------------------------------------------------------------
 Cartesian Forces:  Max     0.017332722 RMS     0.003641752

 GradGradGradGradGradGradGradGradGradGradGradGradGradGradGradGradGradGrad
 Berny optimization.
 Using GEDIIS/GDIIS optimizer.
 FormGI is forming the generalized inverse of G from B-inverse, IUseBI=4.
 Internal  Forces:  Max     0.032489283 RMS     0.004856377
 Search for a local minimum.
 Step number   3 out of a maximum of   63
 All quantities printed in internal units (Hartrees-Bohrs-Radians)
 Mixed Optimization -- RFO/linear search
 Update second derivatives using D2CorX and points    1    3    2
 DE=  6.87D-03 DEPred=-7.77D-04 R=-8.84D+00
 Trust test=-8.84D+00 RLast= 3.88D-01 DXMaxT set to 2.52D-01
 ITU= -1  1  0
 Use linear search instead of GDIIS.
 Energy rises -- skip Quadratic/GDIIS search.
 Quartic linear search produced a step of -0.93558.
 Iteration  1 RMS(Cart)=  0.08130847 RMS(Int)=  0.02606071
 Iteration  2 RMS(Cart)=  0.07114249 RMS(Int)=  0.00660231
 Iteration  3 RMS(Cart)=  0.00654089 RMS(Int)=  0.00000165
 Iteration  4 RMS(Cart)=  0.00000416 RMS(Int)=  0.00000061
 Iteration  5 RMS(Cart)=  0.00000000 RMS(Int)=  0.00000061
 Variable       Old X    -DE/DX   Delta X   Delta X   Delta X     New X
                                 (Linear)    (Quad)   (Total)
    R1        2.64102  -0.00150  -0.00660   0.00000  -0.00660   2.63442
    R2        2.64589  -0.00054  -0.00785   0.00000  -0.00785   2.63804
    R3        2.04852   0.00057   0.00443   0.00000   0.00443   2.05295
    R4        2.66108   0.00169  -0.01037   0.00000  -0.01037   2.65071
    R5        2.04637   0.00063   0.00668   0.00000   0.00668   2.05305
    R6        2.69103   0.00344   0.03095   0.00000   0.03095   2.72198
    R7        2.57066   0.00028  -0.00595   0.00000  -0.00595   2.56471
    R8        2.64299   0.00099   0.00218   0.00000   0.00218   2.64517
    R9        2.04923   0.00052   0.00051   0.00000   0.00051   2.04974
   R10        2.54824  -0.00057   0.00956   0.00000   0.00956   2.55780
   R11        2.04810   0.00026   0.00649   0.00000   0.00649   2.05458
   R12        2.29225   0.00775  -0.00251   0.00000  -0.00251   2.28974
   R13        3.44773   0.00524   0.02092   0.00000   0.02092   3.46866
    A1        2.07742  -0.00010  -0.00661   0.00000  -0.00661   2.07081
    A2        2.10011   0.00001   0.00315   0.00000   0.00315   2.10327
    A3        2.10565   0.00009   0.00346   0.00000   0.00346   2.10911
    A4        2.07427   0.00051  -0.00045   0.00000  -0.00045   2.07381
    A5        2.11709  -0.00027  -0.00836   0.00000  -0.00836   2.10872
    A6        2.09183  -0.00024   0.00881   0.00000   0.00881   2.10065
    A7        2.10043   0.00308  -0.00710   0.00000  -0.00709   2.09334
    A8        2.13448  -0.00053   0.01635   0.00000   0.01635   2.15082
    A9        2.04828  -0.00255  -0.00925   0.00000  -0.00925   2.03903
   A10        2.11090  -0.00012  -0.00016   0.00000  -0.00016   2.11074
   A11        2.15370   0.00014  -0.00178   0.00000  -0.00177   2.15193
   A12        2.01858  -0.00002   0.00194   0.00000   0.00194   2.02052
   A13        2.06768   0.00015   0.00829   0.00000   0.00829   2.07597
   A14        2.11631  -0.00021  -0.01040   0.00000  -0.01040   2.10591
   A15        2.09920   0.00005   0.00211   0.00000   0.00211   2.10131
   A16        2.05882  -0.00017  -0.01580   0.00000  -0.01580   2.04302
   A17        3.13264  -0.00839  -0.02426   0.00000  -0.02426   3.10838
   A18        3.52184  -0.03249  -0.35782   0.00000  -0.35782   3.16402
   A19        3.14159   0.00000   0.00002   0.00000   0.00002   3.14162
   A20        3.14121   0.00001   0.00038   0.00000   0.00038   3.14159
    D1       -0.00006   0.00000   0.00030   0.00000   0.00030   0.00024
    D2       -3.14157   0.00000  -0.00047   0.00000  -0.00047   3.14115
    D3        3.14150   0.00000   0.00027   0.00000   0.00027  -3.14142
    D4       -0.00001   0.00000  -0.00050   0.00000  -0.00050  -0.00051
    D5       -0.00002   0.00000   0.00013   0.00000   0.00013   0.00011
    D6       -3.14152   0.00000  -0.00013   0.00000  -0.00013   3.14153
    D7       -3.14158   0.00000   0.00017   0.00000   0.00017  -3.14141
    D8        0.00010   0.00000  -0.00009   0.00000  -0.00009   0.00001
    D9       -3.14156   0.00000  -0.00040   0.00000  -0.00040   3.14123
   D10        0.00011   0.00000  -0.00057   0.00000  -0.00057  -0.00046
   D11       -0.00005   0.00000   0.00037   0.00000   0.00037   0.00032
   D12       -3.14157   0.00000   0.00020   0.00000   0.00020  -3.14137
   D13       -0.00006   0.00000   0.00035   0.00000   0.00035   0.00029
   D14       -3.14159   0.00000   0.00019   0.00000   0.00019  -3.14140
   D15        3.14159   0.00000  -0.00025   0.00000  -0.00025   3.14134
   D16       -0.00009   0.00000   0.00001   0.00000   0.00000  -0.00009
   D17        0.00006   0.00000  -0.00036   0.00000  -0.00036  -0.00030
   D18        3.14157   0.00000  -0.00010   0.00000  -0.00010   3.14147
   D19       -0.00002   0.00000   0.00012   0.00000   0.00012   0.00010
   D20       -3.14155   0.00000   0.00002   0.00000   0.00002  -3.14153
         Item               Value     Threshold  Converged?
 Maximum Force            0.032489     0.000450     NO 
 RMS     Force            0.004856     0.000300     NO 
 Maximum Displacement     0.826627     0.001800     NO 
 RMS     Displacement     0.148738     0.001200     NO 
 Predicted change in Energy=-1.054967D-03
 GradGradGradGradGradGradGradGradGradGradGradGradGradGradGradGradGradGrad

                          Input orientation:                          
 ---------------------------------------------------------------------
 Center     Atomic      Atomic             Coordinates (Angstroms)
 Number     Number       Type             X           Y           Z
 ---------------------------------------------------------------------
      1          6           0       -3.568078   -0.574153    0.000046
      2          6           0       -2.174007   -0.571365    0.000332
      3          6           0       -1.500265    0.658930    0.000021
      4          6           0       -3.492018    1.832858   -0.001538
      5          6           0       -4.239822    0.649592   -0.000835
      6          1           0       -4.117717   -1.511225    0.000439
      7          1           0       -1.615502   -1.503244    0.001428
      8          1           0       -3.980590    2.801266   -0.002469
      9          1           0       -5.326465    0.685566   -0.001135
     10          6           0       -0.060190    0.689928    0.000764
     11          6           0        1.151406    0.675763    0.001442
     12          7           0       -2.138694    1.856581   -0.001072
     13         35           0        2.986834    0.695462    0.002441
 ---------------------------------------------------------------------
                    Distance matrix (angstroms):
                    1          2          3          4          5
     1  C    0.000000
     2  C    1.394074   0.000000
     3  C    2.407560   1.402696   0.000000
     4  C    2.408213   2.741796   2.311966   0.000000
     5  C    1.395992   2.399652   2.739573   1.399761   0.000000
     6  H    1.086373   2.159015   3.400092   3.402117   2.164265
     7  H    2.162352   1.086429   2.165244   3.827649   3.394372
     8  H    3.400533   3.826015   3.277441   1.084674   2.167235
     9  H    2.163058   3.393799   3.826293   2.163672   1.087238
    10  C    3.728697   2.461520   1.440409   3.617145   4.179827
    11  C    4.882194   3.551577   2.651725   4.785421   5.391292
    12  N    2.819860   2.428203   1.357188   1.353532   2.423131
    13  Br   6.676736   5.314051   4.487248   6.577933   7.226802
                    6          7          8          9         10
     6  H    0.000000
     7  H    2.502227   0.000000
     8  H    4.314672   4.911463   0.000000
     9  H    2.507382   4.308380   2.507502   0.000000
    10  C    4.616123   2.688680   4.452785   5.266277   0.000000
    11  C    5.704960   3.521911   5.554742   6.477879   1.211679
    12  N    3.906232   3.400318   2.070028   3.396051   2.383539
    13  Br   7.439362   5.100570   7.278697   8.313306   3.047029
                   11         12         13
    11  C    0.000000
    12  N    3.495582   0.000000
    13  Br   1.835534   5.255401   0.000000
 Symmetry turned off by external request.
 Stoichiometry    C7H4BrN
 Framework group  C1[X(C7H4BrN)]
 Deg. of freedom    33
 Full point group                 C1      NOp   1
 Rotational constants (GHZ):      5.8031177      0.3500337      0.3301214
 Standard basis: 6-31G (6D, 7F)
   104 basis functions,   269 primitive gaussians,   104 cartesian basis functions
    44 alpha electrons       44 beta electrons
       nuclear repulsion energy       519.5499742286 Hartrees.
 NAtoms=   13 NActive=   13 NUniq=   13 SFac= 1.00D+00 NAtFMM=   60 NAOKFM=F Big=F
 Integral buffers will be    131072 words long.
 Raffenetti 2 integral format.
 Two-electron integral symmetry is turned off.
 Nuclear repulsion after empirical dispersion term =      519.5425523734 Hartrees.
 One-electron integrals computed using PRISM.
 NBasis=   104 RedAO= T EigKep=  3.72D-04  NBF=   104
 NBsUse=   104 1.00D-06 EigRej= -1.00D+00 NBFU=   104
 Lowest energy guess from the checkpoint file:  "E:\PROJECT- VIT group\ML\Substrates\molecule_21.chk"
 B after Tr=     0.005389    0.019612   -0.000015
         Rot=    0.999998    0.000008   -0.000004   -0.002086 Ang=   0.24 deg.
 B after Tr=    -0.024086   -0.276442    0.000356
         Rot=    0.999555   -0.000025    0.000051    0.029833 Ang=  -3.42 deg.
 Keep R1 ints in memory in canonical form, NReq=16005208.
 Requested convergence on RMS density matrix=1.00D-08 within 128 cycles.
 Requested convergence on MAX density matrix=1.00D-06.
 Requested convergence on             energy=1.00D-06.
 No special actions if energy rises.
 Integral accuracy reduced to 1.0D-05 until final iterations.
 Initial convergence to 1.0D-05 achieved.  Increase integral accuracy.
 SCF Done:  E(RB3LYP) =  -2895.31189090     A.U. after   13 cycles
            NFock= 13  Conv=0.64D-08     -V/T= 2.0044
 Calling FoFJK, ICntrl=      2127 FMM=F ISym2X=0 I1Cent= 0 IOpClX= 0 NMat=1 NMatS=1 NMatT=0.
 -------------------------------------------------------------------
 Center     Atomic                   Forces (Hartrees/Bohr)
 Number     Number              X              Y              Z
 -------------------------------------------------------------------
      1        6           0.000100726   -0.001802134   -0.000011601
      2        6          -0.002035347   -0.006056843    0.000060645
      3        6           0.017253464    0.001886434   -0.000015572
      4        6           0.003241168    0.000209310    0.000007616
      5        6          -0.005472314    0.002321807   -0.000023118
      6        1           0.000572840    0.001032345    0.000003669
      7        1           0.000117012    0.002303239   -0.000023054
      8        1          -0.000005843    0.000131547    0.000003410
      9        1           0.001916913    0.000867660    0.000001695
     10        6          -0.008872969   -0.001727409   -0.000003983
     11        6           0.004922568    0.001763204    0.000000740
     12        7          -0.008673032   -0.000315065    0.000000767
     13       35          -0.003065185   -0.000614096   -0.000001215
 -------------------------------------------------------------------
 Cartesian Forces:  Max     0.017253464 RMS     0.003910939

 GradGradGradGradGradGradGradGradGradGradGradGradGradGradGradGradGradGrad
 Berny optimization.
 Using GEDIIS/GDIIS optimizer.
 FormGI is forming the generalized inverse of G from B-inverse, IUseBI=4.
 Internal  Forces:  Max     0.007026563 RMS     0.001933394
 Search for a local minimum.
 Step number   4 out of a maximum of   63
 All quantities printed in internal units (Hartrees-Bohrs-Radians)
 Mixed Optimization -- RFO/linear search
 Update second derivatives using D2CorX and points    1    3    2    4
 ITU=  0 -1  1  0
 Use linear search instead of GDIIS.
     Eigenvalues ---    0.00230   0.01844   0.02013   0.02043   0.02108
     Eigenvalues ---    0.02154   0.02155   0.02155   0.02156   0.03997
     Eigenvalues ---    0.04718   0.08985   0.14187   0.16000   0.16001
     Eigenvalues ---    0.16093   0.16807   0.19193   0.22309   0.22557
     Eigenvalues ---    0.25229   0.29533   0.33298   0.33722   0.33725
     Eigenvalues ---    0.33835   0.39539   0.43132   0.45556   0.46447
     Eigenvalues ---    0.46481   0.47434   1.04253
 RFO step:  Lambda=-2.10853911D-03 EMin= 2.29999907D-03
 Quartic linear search produced a step of  0.00386.
 Iteration  1 RMS(Cart)=  0.03188677 RMS(Int)=  0.00069955
 Iteration  2 RMS(Cart)=  0.00101142 RMS(Int)=  0.00009963
 Iteration  3 RMS(Cart)=  0.00000013 RMS(Int)=  0.00009963
 Variable       Old X    -DE/DX   Delta X   Delta X   Delta X     New X
                                 (Linear)    (Quad)   (Total)
    R1        2.63442   0.00270   0.00000   0.01994   0.01992   2.65434
    R2        2.63804   0.00347   0.00000   0.02330   0.02314   2.66118
    R3        2.05295  -0.00118   0.00000  -0.01019  -0.01019   2.04276
    R4        2.65071   0.00434   0.00000   0.02957   0.02971   2.68042
    R5        2.05305  -0.00192   0.00000  -0.01698  -0.01698   2.03607
    R6        2.72198  -0.00703  -0.00001  -0.06998  -0.06999   2.65199
    R7        2.56471   0.00362   0.00000   0.02671   0.02687   2.59158
    R8        2.64517  -0.00081   0.00000  -0.00748  -0.00760   2.63756
    R9        2.04974   0.00012   0.00000   0.00198   0.00198   2.05172
   R10        2.55780  -0.00308   0.00000  -0.01936  -0.01934   2.53846
   R11        2.05458  -0.00189   0.00000  -0.01664  -0.01664   2.03794
   R12        2.28974   0.00184   0.00000   0.00505   0.00505   2.29480
   R13        3.46866  -0.00307  -0.00001  -0.04619  -0.04620   3.42246
    A1        2.07081   0.00133   0.00000   0.02258   0.02237   2.09318
    A2        2.10327  -0.00064   0.00000  -0.01053  -0.01042   2.09284
    A3        2.10911  -0.00069   0.00000  -0.01205  -0.01195   2.09716
    A4        2.07381  -0.00017   0.00000   0.00400   0.00409   2.07791
    A5        2.10872   0.00141   0.00000   0.02318   0.02313   2.13186
    A6        2.10065  -0.00123   0.00000  -0.02718  -0.02723   2.07342
    A7        2.09334   0.00204   0.00000   0.02223   0.02209   2.11543
    A8        2.15082  -0.00456   0.00000  -0.05595  -0.05567   2.09515
    A9        2.03903   0.00251   0.00000   0.03372   0.03358   2.07261
   A10        2.11074  -0.00021   0.00000  -0.00133  -0.00127   2.10946
   A11        2.15193   0.00052   0.00000  -0.00129  -0.00140   2.15053
   A12        2.02052  -0.00031   0.00000   0.00262   0.00268   2.02320
   A13        2.07597  -0.00144   0.00000  -0.02259  -0.02290   2.05307
   A14        2.10591   0.00167   0.00000   0.02969   0.02986   2.13576
   A15        2.10131  -0.00024   0.00000  -0.00711  -0.00695   2.09436
   A16        2.04302   0.00432   0.00000   0.05325   0.05352   2.09654
   A17        3.10838   0.00068   0.00001   0.06640   0.06641   3.17479
   A18        3.16402  -0.00201   0.00010  -0.05513  -0.05504   3.10898
   A19        3.14162   0.00000   0.00000  -0.00008  -0.00008   3.14154
   A20        3.14159   0.00000   0.00000  -0.00040  -0.00040   3.14120
    D1        0.00024  -0.00001   0.00000  -0.00083  -0.00085  -0.00061
    D2        3.14115   0.00001   0.00000   0.00130   0.00131  -3.14072
    D3       -3.14142  -0.00001   0.00000  -0.00073  -0.00075   3.14101
    D4       -0.00051   0.00001   0.00000   0.00140   0.00141   0.00090
    D5        0.00011   0.00000   0.00000  -0.00036  -0.00037  -0.00025
    D6        3.14153   0.00000   0.00000   0.00035   0.00036  -3.14129
    D7       -3.14141   0.00000   0.00000  -0.00046  -0.00047   3.14131
    D8        0.00001   0.00000   0.00000   0.00025   0.00026   0.00027
    D9        3.14123   0.00001   0.00000   0.00112   0.00110  -3.14086
   D10       -0.00046   0.00001   0.00000   0.00157   0.00155   0.00109
   D11        0.00032  -0.00001   0.00000  -0.00102  -0.00101  -0.00069
   D12       -3.14137   0.00000   0.00000  -0.00057  -0.00056   3.14125
   D13        0.00029  -0.00001   0.00000  -0.00096  -0.00096  -0.00068
   D14       -3.14140   0.00000   0.00000  -0.00052  -0.00053   3.14126
   D15        3.14134   0.00001   0.00000   0.00071   0.00071  -3.14114
   D16       -0.00009   0.00000   0.00000  -0.00001   0.00000  -0.00009
   D17       -0.00030   0.00001   0.00000   0.00100   0.00100   0.00070
   D18        3.14147   0.00000   0.00000   0.00029   0.00029  -3.14143
   D19        0.00010   0.00000   0.00000  -0.00034  -0.00034  -0.00024
   D20       -3.14153   0.00000   0.00000  -0.00006  -0.00005  -3.14159
         Item               Value     Threshold  Converged?
 Maximum Force            0.007027     0.000450     NO 
 RMS     Force            0.001933     0.000300     NO 
 Maximum Displacement     0.100974     0.001800     NO 
 RMS     Displacement     0.032011     0.001200     NO 
 Predicted change in Energy=-1.084635D-03
 GradGradGradGradGradGradGradGradGradGradGradGradGradGradGradGradGradGrad

                          Input orientation:                          
 ---------------------------------------------------------------------
 Center     Atomic      Atomic             Coordinates (Angstroms)
 Number     Number       Type             X           Y           Z
 ---------------------------------------------------------------------
      1          6           0       -3.577941   -0.572263    0.000024
      2          6           0       -2.173590   -0.599402    0.001439
      3          6           0       -1.460900    0.626968    0.000503
      4          6           0       -3.485609    1.824793   -0.001311
      5          6           0       -4.256871    0.661506   -0.001546
      6          1           0       -4.134980   -1.498667    0.000172
      7          1           0       -1.618032   -1.522571    0.001869
      8          1           0       -3.954599    2.803996   -0.002053
      9          1           0       -5.333236    0.728219   -0.002392
     10          6           0       -0.057761    0.652503    0.000964
     11          6           0        1.154989    0.714886    0.001288
     12          7           0       -2.142335    1.817093   -0.000464
     13         35           0        2.965756    0.748896    0.001369
 ---------------------------------------------------------------------
                    Distance matrix (angstroms):
                    1          2          3          4          5
     1  C    0.000000
     2  C    1.404614   0.000000
     3  C    2.433108   1.418418   0.000000
     4  C    2.398834   2.756469   2.352495   0.000000
     5  C    1.408238   2.435150   2.796184   1.395737   0.000000
     6  H    1.080980   2.157715   3.415996   3.386307   2.163610
     7  H    2.178148   1.077444   2.155275   3.833106   3.425445
     8  H    3.397205   3.841240   3.310286   1.085721   2.163708
     9  H    2.184564   3.427237   3.873660   2.148535   1.078431
    10  C    3.727160   2.458454   1.403372   3.622763   4.199120
    11  C    4.904832   3.578657   2.617367   4.771483   5.412124
    12  N    2.787470   2.416698   1.371405   1.343297   2.409698
    13  Br   6.675735   5.313265   4.428336   6.540465   7.223156
                    6          7          8          9         10
     6  H    0.000000
     7  H    2.517062   0.000000
     8  H    4.306443   4.917188   0.000000
     9  H    2.528803   4.343824   2.491884   0.000000
    10  C    4.609908   2.676825   4.451324   5.276020   0.000000
    11  C    5.734422   3.563125   5.520171   6.488240   1.214353
    12  N    3.868450   3.380570   2.063561   3.371573   2.387828
    13  Br   7.447953   5.115728   7.219056   8.299019   3.025053
                   11         12         13
    11  C    0.000000
    12  N    3.476666   0.000000
    13  Br   1.811087   5.218586   0.000000
 Symmetry turned off by external request.
 Stoichiometry    C7H4BrN
 Framework group  C1[X(C7H4BrN)]
 Deg. of freedom    33
 Full point group                 C1      NOp   1
 Rotational constants (GHZ):      5.8507222      0.3520188      0.3320410
 Standard basis: 6-31G (6D, 7F)
   104 basis functions,   269 primitive gaussians,   104 cartesian basis functions
    44 alpha electrons       44 beta electrons
       nuclear repulsion energy       520.9632954637 Hartrees.
 NAtoms=   13 NActive=   13 NUniq=   13 SFac= 1.00D+00 NAtFMM=   60 NAOKFM=F Big=F
 Integral buffers will be    131072 words long.
 Raffenetti 2 integral format.
 Two-electron integral symmetry is turned off.
 Nuclear repulsion after empirical dispersion term =      520.9558998922 Hartrees.
 One-electron integrals computed using PRISM.
 NBasis=   104 RedAO= T EigKep=  3.34D-04  NBF=   104
 NBsUse=   104 1.00D-06 EigRej= -1.00D+00 NBFU=   104
 Initial guess from the checkpoint file:  "E:\PROJECT- VIT group\ML\Substrates\molecule_21.chk"
 B after Tr=    -0.002289    0.029972   -0.000581
         Rot=    0.999990    0.000014   -0.000086   -0.004362 Ang=   0.50 deg.
 ExpMin= 1.43D-01 ExpMax= 5.74D+05 ExpMxC= 5.74D+03 IAcc=2 IRadAn=         4 AccDes= 0.00D+00
 Harris functional with IExCor=  402 and IRadAn=       4 diagonalized for initial guess.
 HarFok:  IExCor=  402 AccDes= 0.00D+00 IRadAn=         4 IDoV= 1 UseB2=F ITyADJ=14
 ICtDFT=  3500011 ScaDFX=  1.000000  1.000000  1.000000  1.000000
 FoFCou: FMM=F IPFlag=           0 FMFlag=      100000 FMFlg1=           0
         NFxFlg=           0 DoJE=T BraDBF=F KetDBF=T FulRan=T
         wScrn=  0.000000 ICntrl=     500 IOpCl=  0 I1Cent=   200000004 NGrid=           0
         NMat0=    1 NMatS0=      1 NMatT0=    0 NMatD0=    1 NMtDS0=    0 NMtDT0=    0
 Symmetry not used in FoFCou.
 Keep R1 ints in memory in canonical form, NReq=16005434.
 Requested convergence on RMS density matrix=1.00D-08 within 128 cycles.
 Requested convergence on MAX density matrix=1.00D-06.
 Requested convergence on             energy=1.00D-06.
 No special actions if energy rises.
 Integral accuracy reduced to 1.0D-05 until final iterations.
 Initial convergence to 1.0D-05 achieved.  Increase integral accuracy.
 SCF Done:  E(RB3LYP) =  -2895.31055149     A.U. after   16 cycles
            NFock= 16  Conv=0.65D-08     -V/T= 2.0044
 Calling FoFJK, ICntrl=      2127 FMM=F ISym2X=0 I1Cent= 0 IOpClX= 0 NMat=1 NMatS=1 NMatT=0.
 -------------------------------------------------------------------
 Center     Atomic                   Forces (Hartrees/Bohr)
 Number     Number              X              Y              Z
 -------------------------------------------------------------------
      1        6           0.002781523    0.004757330    0.000013952
      2        6          -0.004311806    0.010532843   -0.000140918
      3        6          -0.034800250   -0.002611247    0.000059833
      4        6           0.002780846   -0.001040409   -0.000025586
      5        6           0.009347187   -0.008010927    0.000071430
      6        1          -0.001161091   -0.002718127    0.000000755
      7        1           0.000145287   -0.005491522    0.000042443
      8        1           0.000572181    0.000201643    0.000000788
      9        1          -0.003963734   -0.002119504   -0.000014116
     10        6           0.018379813    0.008421969    0.000013021
     11        6          -0.010465344   -0.005875466   -0.000021390
     12        7           0.012388207    0.002507077   -0.000009476
     13       35           0.008307181    0.001446339    0.000009262
 -------------------------------------------------------------------
 Cartesian Forces:  Max     0.034800250 RMS     0.007814027

 GradGradGradGradGradGradGradGradGradGradGradGradGradGradGradGradGradGrad
 Berny optimization.
 Using GEDIIS/GDIIS optimizer.
 FormGI is forming the generalized inverse of G from B-inverse, IUseBI=4.
 Internal  Forces:  Max     0.016291579 RMS     0.004400235
 Search for a local minimum.
 Step number   5 out of a maximum of   63
 All quantities printed in internal units (Hartrees-Bohrs-Radians)
 Mixed Optimization -- RFO/linear search
 Update second derivatives using D2CorX and points    1    3    2    5    4
 DE=  1.34D-03 DEPred=-1.08D-03 R=-1.23D+00
 Trust test=-1.23D+00 RLast= 1.71D-01 DXMaxT set to 1.26D-01
 ITU= -1  0 -1  1  0
 Use linear search instead of GDIIS.
 Energy rises -- skip Quadratic/GDIIS search.
 Quartic linear search produced a step of -0.69175.
 Iteration  1 RMS(Cart)=  0.02222736 RMS(Int)=  0.00033300
 Iteration  2 RMS(Cart)=  0.00048384 RMS(Int)=  0.00002123
 Iteration  3 RMS(Cart)=  0.00000001 RMS(Int)=  0.00002123
 Variable       Old X    -DE/DX   Delta X   Delta X   Delta X     New X
                                 (Linear)    (Quad)   (Total)
    R1        2.65434  -0.01001  -0.01378   0.00000  -0.01377   2.64056
    R2        2.66118  -0.00912  -0.01601   0.00000  -0.01597   2.64521
    R3        2.04276   0.00293   0.00705   0.00000   0.00705   2.04981
    R4        2.68042  -0.00398  -0.02055   0.00000  -0.02058   2.65984
    R5        2.03607   0.00478   0.01175   0.00000   0.01175   2.04782
    R6        2.65199   0.01629   0.04841   0.00000   0.04841   2.70040
    R7        2.59158  -0.00865  -0.01859   0.00000  -0.01862   2.57296
    R8        2.63756   0.00520   0.00526   0.00000   0.00529   2.64285
    R9        2.05172  -0.00007  -0.00137   0.00000  -0.00137   2.05035
   R10        2.53846  -0.00045   0.01338   0.00000   0.01337   2.55184
   R11        2.03794   0.00383   0.01151   0.00000   0.01151   2.04945
   R12        2.29480  -0.00238  -0.00350   0.00000  -0.00350   2.29130
   R13        3.42246   0.00833   0.03196   0.00000   0.03196   3.45442
    A1        2.09318  -0.00356  -0.01547   0.00000  -0.01543   2.07775
    A2        2.09284   0.00137   0.00721   0.00000   0.00719   2.10003
    A3        2.09716   0.00219   0.00826   0.00000   0.00824   2.10540
    A4        2.07791   0.00125  -0.00283   0.00000  -0.00285   2.07506
    A5        2.13186  -0.00338  -0.01600   0.00000  -0.01599   2.11586
    A6        2.07342   0.00213   0.01883   0.00000   0.01884   2.09226
    A7        2.11543  -0.00216  -0.01528   0.00000  -0.01525   2.10018
    A8        2.09515   0.00865   0.03851   0.00000   0.03845   2.13360
    A9        2.07261  -0.00649  -0.02323   0.00000  -0.02320   2.04941
   A10        2.10946  -0.00010   0.00088   0.00000   0.00087   2.11033
   A11        2.15053   0.00143   0.00097   0.00000   0.00099   2.15152
   A12        2.02320  -0.00133  -0.00185   0.00000  -0.00186   2.02133
   A13        2.05307   0.00250   0.01584   0.00000   0.01591   2.06898
   A14        2.13576  -0.00366  -0.02065   0.00000  -0.02069   2.11508
   A15        2.09436   0.00116   0.00481   0.00000   0.00477   2.09913
   A16        2.09654  -0.01027  -0.03702   0.00000  -0.03708   2.05946
   A17        3.17479  -0.00548  -0.04594   0.00000  -0.04594   3.12885
   A18        3.10898   0.00442   0.03807   0.00000   0.03807   3.14705
   A19        3.14154   0.00000   0.00005   0.00000   0.00005   3.14159
   A20        3.14120   0.00002   0.00027   0.00000   0.00027   3.14147
    D1       -0.00061   0.00002   0.00059   0.00000   0.00059  -0.00002
    D2       -3.14072  -0.00002  -0.00091   0.00000  -0.00091   3.14155
    D3        3.14101   0.00002   0.00052   0.00000   0.00052   3.14154
    D4        0.00090  -0.00002  -0.00098   0.00000  -0.00098  -0.00008
    D5       -0.00025   0.00001   0.00025   0.00000   0.00025   0.00000
    D6       -3.14129  -0.00001  -0.00025   0.00000  -0.00025  -3.14154
    D7        3.14131   0.00001   0.00032   0.00000   0.00032  -3.14155
    D8        0.00027  -0.00001  -0.00018   0.00000  -0.00018   0.00009
    D9       -3.14086  -0.00001  -0.00076   0.00000  -0.00076   3.14157
   D10        0.00109  -0.00003  -0.00107   0.00000  -0.00107   0.00002
   D11       -0.00069   0.00002   0.00070   0.00000   0.00069   0.00000
   D12        3.14125   0.00001   0.00039   0.00000   0.00039  -3.14155
   D13       -0.00068   0.00002   0.00067   0.00000   0.00067  -0.00001
   D14        3.14126   0.00000   0.00036   0.00000   0.00037  -3.14156
   D15       -3.14114  -0.00001  -0.00049   0.00000  -0.00049   3.14155
   D16       -0.00009   0.00001   0.00000   0.00000   0.00000  -0.00009
   D17        0.00070  -0.00002  -0.00069   0.00000  -0.00069   0.00001
   D18       -3.14143   0.00000  -0.00020   0.00000  -0.00020   3.14155
   D19       -0.00024   0.00001   0.00023   0.00000   0.00023  -0.00001
   D20       -3.14159   0.00000   0.00004   0.00000   0.00004  -3.14155
         Item               Value     Threshold  Converged?
 Maximum Force            0.016292     0.000450     NO 
 RMS     Force            0.004400     0.000300     NO 
 Maximum Displacement     0.069821     0.001800     NO 
 RMS     Displacement     0.022174     0.001200     NO 
 Predicted change in Energy=-3.458513D-04
 GradGradGradGradGradGradGradGradGradGradGradGradGradGradGradGradGradGrad

                          Input orientation:                          
 ---------------------------------------------------------------------
 Center     Atomic      Atomic             Coordinates (Angstroms)
 Number     Number       Type             X           Y           Z
 ---------------------------------------------------------------------
      1          6           0       -3.571213   -0.573624    0.000040
      2          6           0       -2.173902   -0.580080    0.000674
      3          6           0       -1.488154    0.649098    0.000174
      4          6           0       -3.490152    1.830449   -0.001469
      5          6           0       -4.245175    0.653231   -0.001052
      6          1           0       -4.123175   -1.507399    0.000355
      7          1           0       -1.616338   -1.509295    0.001561
      8          1           0       -3.972788    2.802189   -0.002346
      9          1           0       -5.328744    0.698706   -0.001523
     10          6           0       -0.059462    0.678388    0.000828
     11          6           0        1.153004    0.687793    0.001396
     12          7           0       -2.139852    1.844554   -0.000882
     13         35           0        2.980843    0.711948    0.002108
 ---------------------------------------------------------------------
                    Distance matrix (angstroms):
                    1          2          3          4          5
     1  C    0.000000
     2  C    1.397326   0.000000
     3  C    2.415406   1.407527   0.000000
     4  C    2.405439   2.746483   2.324561   0.000000
     5  C    1.399785   2.410649   2.757024   1.398536   0.000000
     6  H    1.084711   2.158607   3.404969   3.397344   2.164072
     7  H    2.167260   1.083659   2.162196   3.829500   3.404013
     8  H    3.399615   3.830894   3.287736   1.084997   2.166153
     9  H    2.169733   3.404163   3.840911   2.158996   1.084523
    10  C    3.728261   2.460609   1.428992   3.618961   4.185788
    11  C    4.889724   3.560311   2.641442   4.781691   5.398290
    12  N    2.810050   2.424874   1.361552   1.350374   2.419015
    13  Br   6.676985   5.314201   4.469439   6.566950   7.226257
                    6          7          8          9         10
     6  H    0.000000
     7  H    2.506837   0.000000
     8  H    4.312212   4.913427   0.000000
     9  H    2.514021   4.319402   2.502651   0.000000
    10  C    4.614263   2.685110   4.452489   5.269321   0.000000
    11  C    5.714625   3.535032   5.544766   6.481758   1.212503
    12  N    3.894760   3.394462   2.068024   3.388510   2.384946
    13  Br   7.442618   5.105682   7.260999   8.309598   3.040490
                   11         12         13
    11  C    0.000000
    12  N    3.490129   0.000000
    13  Br   1.827998   5.244456   0.000000
 Symmetry turned off by external request.
 Stoichiometry    C7H4BrN
 Framework group  C1[X(C7H4BrN)]
 Deg. of freedom    33
 Full point group                 C1      NOp   1
[...]
    A9        2.04916   0.00000   0.00000  -0.00004  -0.00004   2.04912
   A10        2.10913  -0.00001   0.00000  -0.00009  -0.00009   2.10903
   A11        2.15436   0.00000   0.00000   0.00003   0.00003   2.15439
   A12        2.01970   0.00000   0.00000   0.00007   0.00007   2.01976
   A13        2.06695   0.00000   0.00000  -0.00002  -0.00002   2.06693
   A14        2.11596   0.00001   0.00000   0.00008   0.00008   2.11605
   A15        2.10027  -0.00001   0.00000  -0.00006  -0.00006   2.10021
   A16        2.05960   0.00000   0.00000   0.00001   0.00001   2.05961
   A17        3.11678   0.00000   0.00000  -0.00002  -0.00002   3.11676
   A18        3.14773   0.00001   0.00000   0.00004   0.00004   3.14777
   A19        3.14159   0.00000   0.00000   0.00000   0.00000   3.14159
   A20        3.14160   0.00000   0.00000  -0.00002  -0.00002   3.14159
    D1        0.00000   0.00000   0.00000   0.00000   0.00000   0.00000
    D2        3.14159   0.00000   0.00000   0.00000   0.00000   3.14159
    D3       -3.14159   0.00000   0.00000   0.00000   0.00000  -3.14159
    D4        0.00000   0.00000   0.00000   0.00000   0.00000   0.00000
    D5        0.00000   0.00000   0.00000   0.00000   0.00000   0.00000
    D6       -3.14159   0.00000   0.00000   0.00000   0.00000  -3.14159
    D7        3.14159   0.00000   0.00000   0.00000   0.00000   3.14159
    D8        0.00000   0.00000   0.00000   0.00000   0.00000   0.00000
    D9       -3.14159   0.00000   0.00000   0.00000   0.00000  -3.14159
   D10        0.00000   0.00000   0.00000   0.00000   0.00000   0.00000
   D11        0.00001   0.00000   0.00000   0.00000   0.00000   0.00001
   D12       -3.14159   0.00000   0.00000   0.00000   0.00000  -3.14159
   D13        0.00000   0.00000   0.00000   0.00000   0.00000   0.00000
   D14        3.14159   0.00000   0.00000   0.00000   0.00000   3.14159
   D15        3.14159   0.00000   0.00000   0.00000   0.00000   3.14159
   D16        0.00000   0.00000   0.00000   0.00000   0.00000   0.00000
   D17        0.00000   0.00000   0.00000   0.00000   0.00000   0.00000
   D18       -3.14159   0.00000   0.00000   0.00000   0.00000   3.14159
   D19        0.00000   0.00000   0.00000   0.00000   0.00000   0.00000
   D20       -3.14159   0.00000   0.00000   0.00000   0.00000  -3.14159
         Item               Value     Threshold  Converged?
 Maximum Force            0.000029     0.000450     YES
 RMS     Force            0.000008     0.000300     YES
 Maximum Displacement     0.000211     0.001800     YES
 RMS     Displacement     0.000053     0.001200     YES
 Predicted change in Energy=-8.124285D-09
 Optimization completed.
    -- Stationary point found.
                           ----------------------------
                           !   Optimized Parameters   !
                           ! (Angstroms and Degrees)  !
 --------------------------                            --------------------------
 ! Name  Definition              Value          Derivative Info.                !
 --------------------------------------------------------------------------------
 ! R1    R(1,2)                  1.3959         -DE/DX =    0.0                 !
 ! R2    R(1,5)                  1.3992         -DE/DX =    0.0                 !
 ! R3    R(1,6)                  1.0849         -DE/DX =    0.0                 !
 ! R4    R(2,3)                  1.4095         -DE/DX =    0.0                 !
 ! R5    R(2,7)                  1.0839         -DE/DX =    0.0                 !
 ! R6    R(3,10)                 1.4279         -DE/DX =    0.0                 !
 ! R7    R(3,12)                 1.3618         -DE/DX =    0.0                 !
 ! R8    R(4,5)                  1.3998         -DE/DX =    0.0                 !
 ! R9    R(4,8)                  1.0852         -DE/DX =    0.0                 !
 ! R10   R(4,12)                 1.3475         -DE/DX =    0.0                 !
 ! R11   R(5,9)                  1.0842         -DE/DX =    0.0                 !
 ! R12   R(10,11)                1.2127         -DE/DX =    0.0                 !
 ! R13   R(11,13)                1.8286         -DE/DX =    0.0                 !
 ! A1    A(2,1,5)              119.0428         -DE/DX =    0.0                 !
 ! A2    A(2,1,6)              120.2647         -DE/DX =    0.0                 !
 ! A3    A(5,1,6)              120.6925         -DE/DX =    0.0                 !
 ! A4    A(1,2,3)              118.9981         -DE/DX =    0.0                 !
 ! A5    A(1,2,7)              121.2427         -DE/DX =    0.0                 !
 ! A6    A(3,2,7)              119.7592         -DE/DX =    0.0                 !
 ! A7    A(2,3,10)             120.5022         -DE/DX =    0.0                 !
 ! A8    A(2,3,12)             122.0894         -DE/DX =    0.0                 !
 ! A9    A(10,3,12)            117.4084         -DE/DX =    0.0                 !
 ! A10   A(5,4,8)              120.8441         -DE/DX =    0.0                 !
 ! A11   A(5,4,12)             123.4359         -DE/DX =    0.0                 !
 ! A12   A(8,4,12)             115.72           -DE/DX =    0.0                 !
 ! A13   A(1,5,4)              118.4275         -DE/DX =    0.0                 !
 ! A14   A(1,5,9)              121.2357         -DE/DX =    0.0                 !
 ! A15   A(4,5,9)              120.3368         -DE/DX =    0.0                 !
 ! A16   A(3,12,4)             118.0063         -DE/DX =    0.0                 !
 ! A17   L(3,10,11,7,-1)       178.5784         -DE/DX =    0.0                 !
 ! A18   L(10,11,13,7,-1)      180.3515         -DE/DX =    0.0                 !
 ! A19   L(3,10,11,7,-2)       179.9996         -DE/DX =    0.0                 !
 ! A20   L(10,11,13,7,-2)      180.0006         -DE/DX =    0.0                 !
 ! D1    D(5,1,2,3)             -0.0001         -DE/DX =    0.0                 !
 ! D2    D(5,1,2,7)            179.9997         -DE/DX =    0.0                 !
 ! D3    D(6,1,2,3)           -179.9999         -DE/DX =    0.0                 !
 ! D4    D(6,1,2,7)             -0.0001         -DE/DX =    0.0                 !
 ! D5    D(2,1,5,4)              0.0            -DE/DX =    0.0                 !
 ! D6    D(2,1,5,9)           -180.0            -DE/DX =    0.0                 !
 ! D7    D(6,1,5,4)            179.9999         -DE/DX =    0.0                 !
 ! D8    D(6,1,5,9)             -0.0002         -DE/DX =    0.0                 !
 ! D9    D(1,2,3,10)          -179.9998         -DE/DX =    0.0                 !
 ! D10   D(1,2,3,12)             0.0002         -DE/DX =    0.0                 !
 ! D11   D(7,2,3,10)             0.0003         -DE/DX =    0.0                 !
 ! D12   D(7,2,3,12)          -179.9997         -DE/DX =    0.0                 !
 ! D13   D(2,3,12,4)            -0.0001         -DE/DX =    0.0                 !
 ! D14   D(10,3,12,4)          179.9998         -DE/DX =    0.0                 !
 ! D15   D(8,4,5,1)            179.9999         -DE/DX =    0.0                 !
 ! D16   D(8,4,5,9)             -0.0001         -DE/DX =    0.0                 !
 ! D17   D(12,4,5,1)             0.0            -DE/DX =    0.0                 !
 ! D18   D(12,4,5,9)           180.0            -DE/DX =    0.0                 !
 ! D19   D(5,4,12,3)             0.0001         -DE/DX =    0.0                 !
 ! D20   D(8,4,12,3)          -179.9998         -DE/DX =    0.0                 !
 --------------------------------------------------------------------------------
 GradGradGradGradGradGradGradGradGradGradGradGradGradGradGradGradGradGrad

 1|1|UNPC-LAPTOP-H4OM2LBP|Freq|RB3LYP|6-31G|C7H4Br1N1|SREEKALA P NAIR|1
 3-Sep-2023|0||#N Geom=AllCheck Guess=TCheck SCRF=Check GenChk RB3LYP/6
 -31G Freq||molecule_15||0,1|C,-3.569709751,-0.5737783681,0.0000644405|
 C,-2.173838166,-0.5769788957,0.0006950201|C,-1.4877372176,0.6542097702
 ,0.0001847193|C,-3.490751018,1.8295212248,-0.001495683|C,-4.2461772707
 ,0.6510637068,-0.0010530423|H,-4.1186198356,-1.5095183791,0.0004409964
 |H,-1.6137886564,-1.5049699977,0.0015671561|H,-3.9748973017,2.80078773
 64,-0.0023607363|H,-5.3294848858,0.6950334368,-0.0015698654|C,-0.06021
 77311,0.6884180696,0.0008008034|C,1.1524760446,0.6873835393,0.00133789
 47|N,-2.1433753478,1.8477428588,-0.000901425|Br,2.981013237,0.69704291
 77,0.0021525416||Version=EM64W-G09RevD.01|HF=-2895.3122423|RMSD=1.907e
 -009|RMSF=1.666e-005|ZeroPoint=0.091025|Thermal=0.0981836|Dipole=-0.68
 79148,-0.8305133,0.0002443|DipoleDeriv=0.247303,0.0766772,0.0001061,0.
 0416875,0.1800801,-0.0001685,0.0001277,-0.0001535,-0.1017253,-0.456792
 7,-0.1007508,-0.0000964,-0.239376,0.0269236,-0.0001866,-0.0000042,-0.0
 001254,-0.0912635,1.1918702,0.0205051,0.0004661,0.1723697,0.1756155,0.
 00004,0.0003631,-0.0000282,0.1190867,0.0988578,-0.0573421,0.0000835,-0
 .308307,0.4038108,-0.0004066,0.0002492,-0.0002953,0.0002594,0.0046983,
 -0.0384167,0.0000657,0.1979594,-0.2617383,0.0002068,-0.0000906,0.00010
 1,-0.0837556,0.0160448,-0.0711302,-0.0000023,-0.0909906,-0.0466619,0.0
 000742,0.0000112,0.0000838,0.1264136,0.044206,0.0705499,-0.000086,0.08
 03777,-0.0270022,0.0001411,-0.0000924,0.0001378,0.1308871,-0.0109582,0
 .0828655,-0.0001066,0.1057075,-0.0644435,0.0001593,-0.0001225,0.00015,
 0.1038189,-0.1094749,0.0139521,-0.0001172,0.0081648,0.0790579,0.000037
 8,-0.0001133,0.0000403,0.1302672,-0.7244286,0.0048313,-0.0003579,-0.06
 99876,0.0050134,0.0000102,-0.0003072,0.0000426,0.0671399,0.6348289,-0.
 0005865,0.0003907,0.0235577,-0.1993749,-0.0000153,0.000378,-0.0000252,
 -0.2379929,-0.5456329,0.0137859,-0.000123,0.0808394,-0.3948801,0.00010
 44,-0.0001651,0.0000749,-0.2927334,-0.3905217,-0.0149406,-0.0002227,-0
 .0020025,0.1235997,0.0000031,-0.0002339,-0.0000029,0.1295976|Polar=171
 .4792902,-0.1203702,70.856267,0.0643621,-0.0287022,27.7628355|PG=C01 [
 X(C7H4Br1N1)]|NImag=0||0.70247961,0.03986462,0.74422320,0.00022269,-0.
 00037890,0.14651967,-0.35187056,-0.03068553,-0.00010751,0.71657665,0.0
 2937878,-0.13467073,0.00005876,-0.05434475,0.72004869,-0.00014724,0.00
 003134,-0.06585921,0.00029506,-0.00041009,0.13997340,-0.03056446,-0.03
 395915,0.00000581,-0.16466241,-0.09701243,0.00002601,0.71527226,-0.075
 39677,0.03716706,-0.00005398,-0.04557876,-0.25943233,0.00009958,0.0110
 3699,0.61135652,0.00003362,-0.00003538,0.00703144,-0.00000831,0.000076
 70,-0.07879738,0.00022456,-0.00026981,0.19810796,0.07164433,-0.0243212
 9,0.00004434,-0.05294345,-0.03739426,0.00000504,-0.06140141,0.08147068
 ,-0.00008253,0.67108890,0.01730246,-0.06175375,0.00005436,-0.02437865,
 -0.01742117,-0.00000531,0.04813137,0.01385152,0.00001368,-0.05393233,0
 .75543028,0.00001669,0.00003545,0.00862435,-0.00000343,-0.00001128,-0.
 00887161,-0.00006048,0.00002860,0.00169591,0.00026478,-0.00041810,0.16
 112553,-0.18244612,0.11870656,-0.00013092,-0.02699048,0.03783654,-0.00
 004075,0.00495490,-0.00957282,0.00001303,-0.18460717,-0.11397577,0.000
 02599,0.76815705,0.05738363,-0.29629440,0.00017792,0.07280352,0.033473
 19,0.00001486,0.00525478,-0.07161117,0.00004337,-0.04772659,-0.2789036
 4,0.00011515,-0.01083415,0.66959006,-0.00009071,0.00020621,-0.06676703
 ,-0.00006331,-0.00000104,0.00666888,0.00000352,0.00003666,-0.01011931,
 -0.00001841,0.00008492,-0.07317171,0.00029062,-0.00035781,0.13805247,-
 0.13394235,-0.12373747,0.00004119,-0.01187049,-0.03058353,0.00001276,-
 0.00490332,0.00185015,-0.00000750,-0.00122548,0.00352982,-0.00000680,0
 .01203627,0.01682708,-0.00000815,0.13904175,-0.12389801,-0.27237020,0.
 00009762,0.00394514,0.00417227,0.00000237,0.00144736,0.00198444,0.0000
 0537,0.00438502,-0.00278383,0.00000958,-0.01768239,-0.01879253,0.00000
 800,0.13208494,0.28657316,0.00004146,0.00009763,-0.04222565,-0.0000102
 4,-0.00001319,0.00511575,-0.00000728,0.00000550,0.00905175,-0.00000735
 ,0.00000923,0.00866757,0.00001481,0.00002350,0.00521364,-0.00003788,-0
 .00011318,0.02738674,-0.01137377,0.02977376,-0.00002688,-0.13604712,0.
 12767589,-0.00012904,0.01073581,-0.01668536,0.00001480,-0.00107999,-0.
 00086235,0.00000026,-0.00514552,-0.00173133,-0.00000492,0.00077233,-0.
 00039832,0.00000256,0.14227853,-0.00446278,0.00496860,-0.00000266,0.12
 640252,-0.27220888,0.00021252,0.01921410,-0.01755536,0.00002208,-0.001
 94342,0.00061676,-0.00000152,-0.00109827,0.00191334,0.00000380,0.00048
 951,0.00086582,-0.00000324,-0.13507441,0.28512051,-0.00000376,0.000012
 62,0.00398069,-0.00012848,0.00021313,-0.03930953,-0.00000912,0.0000059
 1,0.00255191,0.00000098,-0.00000099,-0.00034470,-0.00000538,0.00000350
 ,0.00836988,0.00000202,-0.00000363,-0.00434012,0.00014276,-0.00023370,
 0.02632002,-0.00177483,-0.00320441,-0.00000189,-0.00064444,0.00017542,
 -0.00000024,-0.00342636,0.00071374,-0.00000687,-0.10237970,0.10544997,
 -0.00009693,0.01097593,-0.01830332,0.00001392,0.00042294,-0.00085440,0
 .00000091,0.00018581,0.00021867,0.00000083,0.12494556,-0.00396198,-0.0
 0248335,0.00000460,-0.00071459,0.00057729,-0.00000095,-0.00274796,0.00
 272634,0.00000416,0.10684078,-0.29363064,0.00021477,0.01467924,-0.0180
 4665,0.00002332,0.00072691,-0.00097887,0.00000075,0.00007748,-0.000062
 24,-0.00000124,-0.11634416,0.30462644,-0.00000140,0.00000496,0.0071410
 6,0.00000033,-0.00000056,-0.00037380,-0.00000462,0.00000575,0.01084010
 ,-0.00009788,0.00021412,-0.04273259,-0.00000798,0.00000842,0.00702980,
 -0.00000013,0.00000003,-0.00034705,0.00000092,-0.00000118,-0.00197901,
 0.00012130,-0.00023662,0.02732508,-0.00970569,-0.00368745,-0.00000343,
 0.00120236,0.00245077,-0.00000473,0.00155118,-0.00051139,0.00000112,-0
 .01194784,0.00666232,-0.00001062,-0.34673101,0.01086178,-0.00014553,0.
 00077065,0.00049034,0.00000183,-0.00047780,-0.00026788,-0.00000016,0.0
 0049511,-0.00070235,0.00000209,0.36517660,0.03098422,0.00321042,0.0000
 1413,0.00191863,-0.00472742,0.00000937,0.00062902,-0.00218333,0.000001
 64,-0.02934731,0.00701691,-0.00001667,0.01056779,-0.06137852,0.0000199
 2,-0.00048903,0.00085755,-0.00000347,0.00135687,0.00013815,0.00000070,
 0.00058637,0.00027909,-0.00000194,-0.01235782,0.06046312,-0.00002645,-
 0.00000145,0.00342730,-0.00000439,0.00000958,0.00806759,0.00000033,0.0
 0000115,-0.00014498,0.00001326,-0.00000047,0.00181664,-0.00014544,0.00
 002019,-0.03857131,0.00000255,-0.00000312,-0.00410749,-0.00000124,-0.0
 0000003,0.00028095,0.00000124,-0.00000259,-0.00310670,0.00016033,-0.00
 002833,0.02637417,0.00646206,-0.00457219,0.00000251,-0.03953558,-0.016
 45825,-0.00001140,-0.30720550,-0.02037139,-0.00008063,0.00708056,0.001
 41949,-0.00000327,-0.00372839,0.00067502,-0.00000182,-0.00052497,-0.00
 009449,-0.00000006,0.00036674,0.00024887,0.00000143,-0.00031798,0.0002
 7194,-0.00000052,-0.00008416,-0.00015590,0.00000096,1.45886624,-0.0014
 7230,-0.00502255,0.00000770,-0.03457207,0.00065325,-0.00000896,-0.0142
 7474,-0.08106402,-0.00001759,0.00269348,-0.00375087,0.00001192,0.00052
 735,-0.00020560,-0.00000007,-0.00133492,0.00019023,-0.00000091,-0.0001
 3878,0.00051845,-0.00000253,0.00102442,0.00007282,0.00000071,0.0000447
 5,0.00036319,-0.00000155,0.00808391,0.14541813,0.00000039,0.00000650,0
 .00762724,0.00000064,-0.00000088,0.01032099,-0.00008342,-0.00002024,-0
 .09786761,-0.00000403,0.00001118,0.01239498,-0.00000166,0.,-0.00069023
 ,0.00000078,-0.00000034,-0.00026216,0.00000168,-0.00000237,-0.00320728
 ,-0.00000102,0.00000036,0.00043964,0.00000083,-0.00000164,-0.00200011,
 0.00057073,0.00001577,0.16384142,-0.00277507,0.00036539,-0.00000116,0.
 00551744,0.00855819,-0.00000304,-0.02062635,-0.00042558,-0.00002146,-0
 .00252225,-0.00007135,-0.00000050,0.00240714,-0.00045344,0.00000137,-0
 .00021936,0.00012171,-0.00000015,-0.00003155,-0.00069735,0.00000031,-0
 .00019457,-0.00010477,0.,-0.00003559,-0.00003914,-0.00000004,-1.068593
 22,-0.00160851,-0.00042693,1.33018845,0.00030401,-0.00016785,-0.000000
 25,-0.00023166,-0.00028359,-0.00000033,-0.00140309,0.01373926,0.000009
 97,-0.00019760,-0.00000264,-0.00000100,0.00015121,0.00060036,-0.000000
 30,0.00006722,-0.00015050,0.00000009,-0.00016359,0.00004367,0.00000012
 ,-0.00013563,-0.00002771,-0.00000005,-0.00000218,-0.00001626,0.0000000
 9,-0.00101201,-0.06834025,-0.00002503,0.00336894,0.08267825,-0.0000010
 8,-0.00000033,-0.00077410,0.00000284,0.00000361,-0.00048850,-0.0000219
 8,0.00001032,0.02969954,-0.00000045,-0.00000083,-0.00138983,0.00000093
 ,-0.00000058,0.00005638,-0.00000012,0.00000011,-0.00006186,-0.00000005
 ,-0.00000012,0.00032566,0.00000001,-0.00000003,-0.00001877,-0.00000007
 ,0.00000008,0.00012505,-0.00042694,-0.00002531,-0.10562126,0.00053540,
 0.00001728,0.10619128,-0.05703325,0.03582796,-0.00004550,0.06362374,0.
 03015972,-0.00000167,-0.14681313,0.07366842,-0.00008305,-0.33183692,0.
 01134076,-0.00012635,-0.04826603,-0.08536102,0.00002412,-0.00019611,0.
 00053990,0.00000140,-0.00021878,-0.00306044,-0.00000139,-0.02809005,0.
 00185207,-0.00001192,-0.00012651,-0.00363658,-0.00000106,-0.04780174,0
 .04143259,-0.00004759,0.00638972,0.00053096,0.00000171,0.59227223,0.03
 393909,-0.01705686,0.00002098,-0.01523818,-0.06991890,0.00005512,0.063
 05039,-0.25139630,0.00014700,-0.00052361,-0.11873996,0.00003343,-0.029
 22315,0.03969352,-0.00002363,0.00051274,0.00041944,-0.00000273,-0.0038
 2902,-0.00435274,0.00000607,0.03070739,0.00695230,0.00000639,-0.002977
 35,-0.00400746,0.00000645,0.03161577,-0.00187422,0.00001321,-0.0072488
 0,-0.00102584,-0.00000132,-0.10211315,0.42113449,-0.00004469,0.0000218
 1,-0.00851310,0.00002830,0.00007527,0.02356445,-0.00007606,0.00015213,
 -0.07221303,-0.00011802,0.00003884,-0.06739743,-0.00001300,-0.00004887
 ,0.02387188,0.00000141,-0.00000279,-0.00410810,-0.00000084,0.00000636,
 0.00729535,-0.00003120,-0.00000659,-0.00420939,-0.00000159,0.00000617,
 0.00776855,-0.00004087,0.00001765,-0.00313508,0.00000692,0.00000208,0.
 00172034,0.00029147,-0.00026156,0.09514205,0.00090010,-0.00037080,0.00
 000074,-0.00235565,-0.00044209,-0.00000075,0.00708881,-0.00019791,0.00
 000324,0.00013043,-0.00061574,0.00000066,-0.00061658,0.00060404,-0.000
 00070,-0.00016186,-0.00008681,-0.00000002,0.00003530,0.00003089,-0.000
 00003,-0.00019742,0.00012740,-0.00000017,-0.00008730,-0.00001712,-0.00
 000006,-0.00498406,-0.00040518,-0.00001040,-0.24950479,-0.00127658,-0.
 00009021,-0.00190316,0.00132787,-0.00000182,0.25165619,0.00003504,0.00
 025042,-0.00000029,0.00067439,-0.00026168,0.00000048,0.00063336,0.0024
 1737,-0.00000120,-0.00000355,0.00007105,-0.00000033,-0.00008216,-0.000
 03795,0.00000003,0.00005659,0.00001303,0.00000003,-0.00000085,-0.00000
 608,0.00000004,-0.00003406,-0.00000482,-0.00000002,-0.00000354,-0.0000
 1543,0.00000006,0.00034923,0.01304145,0.00000349,-0.00176528,-0.027046
 88,-0.00000289,-0.00118119,0.00017252,-0.00000050,0.00132202,0.0114070
 0,0.00000048,-0.00000046,-0.00021266,-0.00000150,-0.00000002,-0.000011
 03,0.00000272,-0.00000157,0.00016371,0.00000026,-0.00000063,-0.0004171
 1,-0.00000025,0.00000034,0.00005665,-0.00000012,-0.00000004,0.00001698
 ,-0.00000001,0.00000006,0.00005617,-0.00000006,0.00000005,-0.00000838,
 -0.00000007,0.00000005,0.00007036,-0.00001012,0.00000317,0.01815946,-0
 .00009071,-0.00000268,-0.02976393,-0.00000015,0.00000060,0.00021350,0.
 00009953,0.00000111,0.01167628||0.00003487,-0.00001158,0.00000008,-0.0
 0002951,-0.00000588,-0.00000010,-0.00000346,0.00003857,-0.00000030,-0.
 00005051,-0.00002422,0.,0.00001750,0.00003416,0.00000006,-0.00000293,-
 0.00000129,0.00000008,0.00000410,-0.00000777,0.00000016,0.00000436,0.0
 0000474,-0.00000013,-0.00000609,-0.00000723,-0.00000005,-0.00000338,-0
 .00000860,0.00000103,-0.00000089,0.00000604,-0.00000129,0.00004221,-0.
 00001694,0.00000002,-0.00000628,-0.00000002,0.00000045|||@


 HIGGLEDY-PIGGLEDY
 NIC'LAUS COPERNICUS
 LOOKED AT THE UNIVERSE,
 SPOKE TO THE THRONG;
 GIVE UP YOUR PTOLOMY,
 RISE UP AND FOLLOW ME,
 HELIOCENTRICALLY
 PTOLEMY'S WRONG.
   -- NANCY L. STARK
 Job cpu time:       0 days  0 hours  1 minutes 17.0 seconds.
 File lengths (MBytes):  RWF=     27 Int=      0 D2E=      0 Chk=      2 Scr=      1
 Normal termination of Gaussian 09 at Wed Sep 13 21:27:54 2023.
