 Entering Link 1 = C:\G09W\l1.exe PID=      3032.
  
 Copyright (c) 1988,1990,1992,1993,1995,1998,2003,2009,2013,
            Gaussian, Inc.  All Rights Reserved.
  
 This is part of the Gaussian(R) 09 program.  It is based on
 the Gaussian(R) 03 system (copyright 2003, Gaussian, Inc.),
 the Gaussian(R) 98 system (copyright 1998, Gaussian, Inc.),
 the Gaussian(R) 94 system (copyright 1995, Gaussian, Inc.),
 the Gaussian 92(TM) system (copyright 1992, Gaussian, Inc.),
 the Gaussian 90(TM) system (copyright 1990, Gaussian, Inc.),
 the Gaussian 88(TM) system (copyright 1988, Gaussian, Inc.),
 the Gaussian 86(TM) system (copyright 1986, Carnegie Mellon
 University), and the Gaussian 82(TM) system (copyright 1983,
 Carnegie Mellon University). Gaussian is a federally registered
 trademark of Gaussian, Inc.
  
 This software contains proprietary and confidential information,
 including trade secrets, belonging to Gaussian, Inc.
  
 This software is provided under written license and may be
 used, copied, transmitted, or stored only in accord with that
 written license.
  
 The following legend is applicable only to US Government
 contracts under FAR:
  
                    RESTRICTED RIGHTS LEGEND
  
 Use, reproduction and disclosure by the US Government is
 subject to restrictions as set forth in subparagraphs (a)
 and (c) of the Commercial Computer Software - Restricted
 Rights clause in FAR 52.227-19.
  
 Gaussian, Inc.
 340 Quinnipiac St., Bldg. 40, Wallingford CT 06492
  
  
 ---------------------------------------------------------------
 Warning -- This program may not be used in any manner that
 competes with the business of Gaussian, Inc. or will provide
 assistance to any competitor of Gaussian, Inc.  The licensee
 of this program is prohibited from giving any competitor of
 Gaussian, Inc. access to this program.  By using this program,
 the user acknowledges that Gaussian, Inc. is engaged in the
 business of creating and licensing software in the field of
 computational chemistry and represents and warrants to the
 licensee that it is not a competitor of Gaussian, Inc. and that
 it will not use this program in any manner prohibited above.
 ---------------------------------------------------------------
  

 Cite this work as:
 Gaussian 09, Revision D.01,
 M. J. Frisch, G. W. Trucks, H. B. Schlegel, G. E. Scuseria, 
 M. A. Robb, J. R. Cheeseman, G. Scalmani, V. Barone, B. Mennucci, 
 G. A. Petersson, H. Nakatsuji, M. Caricato, X. Li, H. P. Hratchian, 
 A. F. Izmaylov, J. Bloino, G. Zheng, J. L. Sonnenberg, M. Hada, 
 M. Ehara, K. Toyota, R. Fukuda, J. Hasegawa, M. Ishida, T. Nakajima, 
 Y. Honda, O. Kitao, H. Nakai, T. Vreven, J. A. Montgomery, Jr., 
 J. E. Peralta, F. Ogliaro, M. Bearpark, J. J. Heyd, E. Brothers, 
 K. N. Kudin, V. N. Staroverov, T. Keith, R. Kobayashi, J. Normand, 
 K. Raghavachari, A. Rendell, J. C. Burant, S. S. Iyengar, J. Tomasi, 
 M. Cossi, N. Rega, J. M. Millam, M. Klene, J. E. Knox, J. B. Cross, 
 V. Bakken, C. Adamo, J. Jaramillo, R. Gomperts, R. E. Stratmann, 
 O. Yazyev, A. J. Austin, R. Cammi, C. Pomelli, J. W. Ochterski, 
 R. L. Martin, K. Morokuma, V. G. Zakrzewski, G. A. Voth, 
 P. Salvador, J. J. Dannenberg, S. Dapprich, A. D. Daniels, 
 O. Farkas, J. B. Foresman, J. V. Ortiz, J. Cioslowski, 
 and D. J. Fox, Gaussian, Inc., Wallingford CT, 2013.
 
 ******************************************
 Gaussian 09:  EM64W-G09RevD.01 13-Apr-2013
                13-Sep-2023 
 ******************************************
 %chk=E:\PROJECT- VIT group\ML\Substrates\molecule_19.chk
 ----------------------------------------------
 # opt freq b3lyp/6-31g empiricaldispersion=gd3
 ----------------------------------------------
 1/14=-1,18=20,19=15,26=3,38=1/1,3;
 2/9=110,12=2,17=6,18=5,40=1/2;
 3/5=1,6=6,11=2,16=1,25=1,30=1,71=1,74=-5,124=31/1,2,3;
 4//1;
 5/5=2,38=5/2;
 6/7=2,8=2,9=2,10=2,28=1/1;
 7//1,2,3,16;
 1/14=-1,18=20,19=15,26=3/3(2);
 2/9=110/2;
 99//99;
 2/9=110/2;
 3/5=1,6=6,11=2,16=1,25=1,30=1,71=1,74=-5,124=31/1,2,3;
 4/5=5,16=3,69=1/1;
 5/5=2,38=5/2;
 7//1,2,3,16;
 1/14=-1,18=20,19=15,26=3/3(-5);
 2/9=110/2;
 6/7=2,8=2,9=2,10=2,19=2,28=1/1;
 99/9=1/99;
 -------------------
 Title Card Required
 -------------------
 Symbolic Z-matrix:
 Charge =  0 Multiplicity = 1
 C                    -0.39682  -1.11403   0.02147 
 C                     0.99892  -1.11405   0.02149 
 C                     1.70043   0.09488   0.0229 
 C                     0.99873   1.30289   0.01995 
 C                    -0.39661   1.3028    0.01968 
 C                    -1.09412   0.09428   0.02078 
 H                    -0.94624  -2.06572   0.02202 
 H                     1.54783  -2.06591   0.02294 
 H                     1.54841   2.25437   0.02016 
 H                    -0.94635   2.25446   0.01876 
 C                    -2.63397   0.09453   0.0205 
 C                    -3.82911   0.09473   0.02029 
 Br                   -5.73905   0.09505   0.01996 
 C                     3.24042   0.09523   0.02769 
 H                     3.59394   0.10543   1.03755 
 H                     3.59882  -0.78335  -0.46682 
 H                     3.59848   0.96386  -0.48434 
 

 GradGradGradGradGradGradGradGradGradGradGradGradGradGradGradGradGradGrad
 Berny optimization.
 Initialization pass.
                           ----------------------------
                           !    Initial Parameters    !
                           ! (Angstroms and Degrees)  !
 --------------------------                            --------------------------
 ! Name  Definition              Value          Derivative Info.                !
 --------------------------------------------------------------------------------
 ! R1    R(1,2)                  1.3957         estimate D2E/DX2                !
 ! R2    R(1,6)                  1.3951         estimate D2E/DX2                !
 ! R3    R(1,7)                  1.0989         estimate D2E/DX2                !
 ! R4    R(2,3)                  1.3977         estimate D2E/DX2                !
 ! R5    R(2,8)                  1.0988         estimate D2E/DX2                !
 ! R6    R(3,4)                  1.397          estimate D2E/DX2                !
 ! R7    R(3,14)                 1.54           estimate D2E/DX2                !
 ! R8    R(4,5)                  1.3953         estimate D2E/DX2                !
 ! R9    R(4,9)                  1.0988         estimate D2E/DX2                !
 ! R10   R(5,6)                  1.3954         estimate D2E/DX2                !
 ! R11   R(5,10)                 1.099          estimate D2E/DX2                !
 ! R12   R(6,11)                 1.5399         estimate D2E/DX2                !
 ! R13   R(11,12)                1.1951         estimate D2E/DX2                !
 ! R14   R(12,13)                1.9099         estimate D2E/DX2                !
 ! R15   R(14,15)                1.07           estimate D2E/DX2                !
 ! R16   R(14,16)                1.07           estimate D2E/DX2                !
 ! R17   R(14,17)                1.07           estimate D2E/DX2                !
 ! A1    A(2,1,6)              119.9892         estimate D2E/DX2                !
 ! A2    A(2,1,7)              119.9974         estimate D2E/DX2                !
 ! A3    A(6,1,7)              120.0134         estimate D2E/DX2                !
 ! A4    A(1,2,3)              120.1245         estimate D2E/DX2                !
 ! A5    A(1,2,8)              119.9712         estimate D2E/DX2                !
 ! A6    A(3,2,8)              119.9042         estimate D2E/DX2                !
 ! A7    A(2,3,4)              119.7237         estimate D2E/DX2                !
 ! A8    A(2,3,14)             120.1382         estimate D2E/DX2                !
 ! A9    A(4,3,14)             120.1382         estimate D2E/DX2                !
 ! A10   A(3,4,5)              120.1474         estimate D2E/DX2                !
 ! A11   A(3,4,9)              119.8335         estimate D2E/DX2                !
 ! A12   A(5,4,9)              120.019          estimate D2E/DX2                !
 ! A13   A(4,5,6)              119.9955         estimate D2E/DX2                !
 ! A14   A(4,5,10)             120.01           estimate D2E/DX2                !
 ! A15   A(6,5,10)             119.9944         estimate D2E/DX2                !
 ! A16   A(1,6,5)              120.0195         estimate D2E/DX2                !
 ! A17   A(1,6,11)             119.9978         estimate D2E/DX2                !
 ! A18   A(5,6,11)             119.9827         estimate D2E/DX2                !
 ! A19   A(3,14,15)            109.4712         estimate D2E/DX2                !
 ! A20   A(3,14,16)            109.4712         estimate D2E/DX2                !
 ! A21   A(3,14,17)            109.4712         estimate D2E/DX2                !
 ! A22   A(15,14,16)           109.4713         estimate D2E/DX2                !
 ! A23   A(15,14,17)           109.4712         estimate D2E/DX2                !
 ! A24   A(16,14,17)           109.4712         estimate D2E/DX2                !
 ! A25   L(6,11,12,10,-1)      179.9995         estimate D2E/DX2                !
 ! A26   L(11,12,13,10,-1)     180.0            estimate D2E/DX2                !
 ! A27   L(6,11,12,10,-2)      180.0003         estimate D2E/DX2                !
 ! A28   L(11,12,13,10,-2)     180.0006         estimate D2E/DX2                !
 ! D1    D(6,1,2,3)              0.0985         estimate D2E/DX2                !
 ! D2    D(6,1,2,8)            179.9449         estimate D2E/DX2                !
 ! D3    D(7,1,2,3)           -179.9001         estimate D2E/DX2                !
 ! D4    D(7,1,2,8)             -0.0537         estimate D2E/DX2                !
 ! D5    D(2,1,6,5)              0.0208         estimate D2E/DX2                !
 ! D6    D(2,1,6,11)           179.9888         estimate D2E/DX2                !
 ! D7    D(7,1,6,5)           -179.9806         estimate D2E/DX2                !
 ! D8    D(7,1,6,11)            -0.0126         estimate D2E/DX2                !
 ! D9    D(1,2,3,4)             -0.205          estimate D2E/DX2                !
 ! D10   D(1,2,3,14)           179.795          estimate D2E/DX2                !
 ! D11   D(8,2,3,4)            179.9485         estimate D2E/DX2                !
 ! D12   D(8,2,3,14)            -0.0515         estimate D2E/DX2                !
 ! D13   D(2,3,4,5)              0.1931         estimate D2E/DX2                !
 ! D14   D(2,3,4,9)           -179.9465         estimate D2E/DX2                !
 ! D15   D(14,3,4,5)          -179.8069         estimate D2E/DX2                !
 ! D16   D(14,3,4,9)             0.0535         estimate D2E/DX2                !
 ! D17   D(2,3,14,15)          -90.5382         estimate D2E/DX2                !
 ! D18   D(2,3,14,16)           29.4618         estimate D2E/DX2                !
 ! D19   D(2,3,14,17)          149.4618         estimate D2E/DX2                !
 ! D20   D(4,3,14,15)           89.4618         estimate D2E/DX2                !
 ! D21   D(4,3,14,16)         -150.5382         estimate D2E/DX2                !
 ! D22   D(4,3,14,17)          -30.5382         estimate D2E/DX2                !
 ! D23   D(3,4,5,6)             -0.0746         estimate D2E/DX2                !
 ! D24   D(3,4,5,10)           179.9155         estimate D2E/DX2                !
 ! D25   D(9,4,5,6)           -179.9347         estimate D2E/DX2                !
 ! D26   D(9,4,5,10)             0.0553         estimate D2E/DX2                !
 ! D27   D(4,5,6,1)             -0.0328         estimate D2E/DX2                !
 ! D28   D(4,5,6,11)           179.9992         estimate D2E/DX2                !
 ! D29   D(10,5,6,1)           179.9772         estimate D2E/DX2                !
 ! D30   D(10,5,6,11)            0.0091         estimate D2E/DX2                !
 --------------------------------------------------------------------------------
 Trust Radius=3.00D-01 FncErr=1.00D-07 GrdErr=1.00D-06
 Number of steps in this run=     85 maximum allowed number of steps=    102.
 GradGradGradGradGradGradGradGradGradGradGradGradGradGradGradGradGradGrad

                          Input orientation:                          
 ---------------------------------------------------------------------
 Center     Atomic      Atomic             Coordinates (Angstroms)
 Number     Number       Type             X           Y           Z
 ---------------------------------------------------------------------
      1          6           0       -0.396823   -1.114034    0.021468
      2          6           0        0.998923   -1.114050    0.021487
      3          6           0        1.700426    0.094884    0.022900
      4          6           0        0.998731    1.302892    0.019950
      5          6           0       -0.396606    1.302804    0.019678
      6          6           0       -1.094122    0.094280    0.020783
      7          1           0       -0.946237   -2.065722    0.022015
      8          1           0        1.547830   -2.065913    0.022943
      9          1           0        1.548410    2.254374    0.020165
     10          1           0       -0.946347    2.254460    0.018759
     11          6           0       -2.633974    0.094528    0.020501
     12          6           0       -3.829108    0.094731    0.020288
     13         35           0       -5.739048    0.095054    0.019958
     14          6           0        3.240418    0.095234    0.027687
     15          1           0        3.593945    0.105432    1.037546
     16          1           0        3.598823   -0.783351   -0.466817
     17          1           0        3.598481    0.963864   -0.484341
 ---------------------------------------------------------------------
                    Distance matrix (angstroms):
                    1          2          3          4          5
     1  C    0.000000
     2  C    1.395746   0.000000
     3  C    2.420730   1.397722   0.000000
     4  C    2.790896   2.416942   1.397021   0.000000
     5  C    2.416839   2.790823   2.420047   1.395337   0.000000
     6  C    1.395081   2.416796   2.794549   2.416770   1.395371
     7  H    1.098893   2.165486   3.416584   3.889790   3.413074
     8  H    2.165121   1.098792   2.166178   3.413263   3.889614
     9  H    3.889744   3.412948   2.164836   1.098848   2.165311
    10  H    3.413025   3.889852   3.416020   2.165367   1.099029
    11  C    2.542729   3.828655   4.334400   3.828405   2.542783
    12  C    3.638914   4.977051   5.529534   4.976714   3.638889
    13  Br   5.477341   6.845596   7.439474   6.845183   5.477257
    14  C    3.833000   2.546901   1.540000   2.546303   3.832263
    15  H    4.294850   3.041981   2.148263   3.033899   4.288852
    16  H    4.038931   2.665949   2.148263   3.368951   4.533451
    17  H    4.531661   3.366198   2.148263   2.669822   4.040995
                    6          7          8          9         10
     6  C    0.000000
     7  H    2.165059   0.000000
     8  H    3.412674   2.494067   0.000000
     9  H    3.413061   4.988637   4.320288   0.000000
    10  H    2.165230   4.320184   4.988643   2.494758   0.000000
    11  C    1.539852   2.741376   4.706909   4.707151   2.741057
    12  C    2.734986   3.602569   5.794812   5.794977   3.602047
    13  Br   4.644926   5.257375   7.600550   7.600638   5.256712
    14  C    4.334546   4.711459   2.745074   2.743143   4.710769
    15  H    4.797072   5.134050   3.151309   3.136435   5.125475
    16  H    4.799138   4.747737   2.468077   3.697177   5.488411
    17  H    4.799151   5.485367   3.693515   2.474416   4.751233
                   11         12         13         14         15
    11  C    0.000000
    12  C    1.195134   0.000000
    13  Br   3.105074   1.909940   0.000000
    14  C    5.874396   7.069530   8.979469   0.000000
    15  H    6.310425   7.492439   9.388309   1.070000   0.000000
    16  H    6.313154   7.495496   9.391719   1.070000   1.747303
    17  H    6.313011   7.495273   9.391411   1.070000   1.747303
                   16         17
    16  H    0.000000
    17  H    1.747303   0.000000
 Stoichiometry    C9H7Br
 Framework group  C1[X(C9H7Br)]
 Deg. of freedom    45
 Full point group                 C1      NOp   1
 Largest Abelian subgroup         C1      NOp   1
 Largest concise Abelian subgroup C1      NOp   1
                         Standard orientation:                         
 ---------------------------------------------------------------------
 Center     Atomic      Atomic             Coordinates (Angstroms)
 Number     Number       Type             X           Y           Z
 ---------------------------------------------------------------------
      1          6           0       -1.658895    1.208739   -0.001415
      2          6           0       -3.054641    1.208702   -0.002090
      3          6           0       -3.756099   -0.000257   -0.000192
      4          6           0       -3.054357   -1.208240   -0.001958
      5          6           0       -1.659020   -1.208100   -0.001535
      6          6           0       -0.961550    0.000451   -0.000918
      7          1           0       -1.109516    2.160448   -0.001251
      8          1           0       -3.603583    2.160545   -0.001566
      9          1           0       -3.604001   -2.159742   -0.001359
     10          1           0       -1.109244   -2.159736   -0.001522
     11          6           0        0.578301    0.000260   -0.000433
     12          6           0        1.773435    0.000102   -0.000051
     13         35           0        3.683375   -0.000149    0.000571
     14          6           0       -5.296093   -0.000661    0.003829
     15          1           0       -5.650122   -0.010175    1.013518
     16          1           0       -5.654285    0.877568   -0.491461
     17          1           0       -5.653869   -0.869658   -0.507778
 ---------------------------------------------------------------------
 Rotational constants (GHZ):      5.4941928      0.2491696      0.2387061
 Standard basis: 6-31G (6D, 7F)
 There are   119 symmetry adapted cartesian basis functions of A   symmetry.
 There are   119 symmetry adapted basis functions of A   symmetry.
   119 basis functions,   303 primitive gaussians,   119 cartesian basis functions
    48 alpha electrons       48 beta electrons
       nuclear repulsion energy       596.0451946176 Hartrees.
 NAtoms=   17 NActive=   17 NUniq=   17 SFac= 1.00D+00 NAtFMM=   60 NAOKFM=F Big=F
 Integral buffers will be    131072 words long.
 Raffenetti 2 integral format.
 Two-electron integral symmetry is turned on.
 Nuclear repulsion after empirical dispersion term =      596.0343490514 Hartrees.
 One-electron integrals computed using PRISM.
 NBasis=   119 RedAO= T EigKep=  4.37D-04  NBF=   119
 NBsUse=   119 1.00D-06 EigRej= -1.00D+00 NBFU=   119
 ExpMin= 1.43D-01 ExpMax= 5.74D+05 ExpMxC= 5.74D+03 IAcc=2 IRadAn=         4 AccDes= 0.00D+00
 Harris functional with IExCor=  402 and IRadAn=       4 diagonalized for initial guess.
 HarFok:  IExCor=  402 AccDes= 0.00D+00 IRadAn=         4 IDoV= 1 UseB2=F ITyADJ=14
 ICtDFT=  3500011 ScaDFX=  1.000000  1.000000  1.000000  1.000000
 FoFCou: FMM=F IPFlag=           0 FMFlag=      100000 FMFlg1=           0
         NFxFlg=           0 DoJE=T BraDBF=F KetDBF=T FulRan=T
         wScrn=  0.000000 ICntrl=     500 IOpCl=  0 I1Cent=   200000004 NGrid=           0
         NMat0=    1 NMatS0=      1 NMatT0=    0 NMatD0=    1 NMtDS0=    0 NMtDT0=    0
 Petite list used in FoFCou.
 Keep R1 ints in memory in canonical form, NReq=26623970.
 Requested convergence on RMS density matrix=1.00D-08 within 128 cycles.
 Requested convergence on MAX density matrix=1.00D-06.
 Requested convergence on             energy=1.00D-06.
 No special actions if energy rises.
 Integral accuracy reduced to 1.0D-05 until final iterations.
 EnCoef did   100 forward-backward iterations
 Initial convergence to 1.0D-05 achieved.  Increase integral accuracy.
 SCF Done:  E(RB3LYP) =  -2918.59561462     A.U. after   16 cycles
            NFock= 16  Conv=0.46D-08     -V/T= 2.0044

 **********************************************************************

            Population analysis using the SCF density.

 **********************************************************************

 Orbital symmetries:
       Occupied  (A) (A) (A) (A) (A) (A) (A) (A) (A) (A) (A) (A)
                 (A) (A) (A) (A) (A) (A) (A) (A) (A) (A) (A) (A)
                 (A) (A) (A) (A) (A) (A) (A) (A) (A) (A) (A) (A)
                 (A) (A) (A) (A) (A) (A) (A) (A) (A) (A) (A) (A)
       Virtual   (A) (A) (A) (A) (A) (A) (A) (A) (A) (A) (A) (A)
                 (A) (A) (A) (A) (A) (A) (A) (A) (A) (A) (A) (A)
                 (A) (A) (A) (A) (A) (A) (A) (A) (A) (A) (A) (A)
                 (A) (A) (A) (A) (A) (A) (A) (A) (A) (A) (A) (A)
                 (A) (A) (A) (A) (A) (A) (A) (A) (A) (A) (A) (A)
                 (A) (A) (A) (A) (A) (A) (A) (A) (A) (A) (A)
 The electronic state is 1-A.
 Alpha  occ. eigenvalues -- -482.81309 -61.79371 -56.34343 -56.33775 -56.33774
 Alpha  occ. eigenvalues --  -10.22710 -10.22587 -10.20439 -10.20301 -10.19843
 Alpha  occ. eigenvalues --  -10.19841 -10.19325 -10.19316 -10.17737  -8.56745
 Alpha  occ. eigenvalues --   -6.53969  -6.52224  -6.52223  -2.65556  -2.65029
 Alpha  occ. eigenvalues --   -2.65027  -2.63636  -2.63636  -0.87331  -0.82040
 Alpha  occ. eigenvalues --   -0.79073  -0.75655  -0.74469  -0.69648  -0.61820
 Alpha  occ. eigenvalues --   -0.59846  -0.53693  -0.47668  -0.47328  -0.45903
 Alpha  occ. eigenvalues --   -0.43298  -0.43177  -0.42708  -0.39989  -0.37785
 Alpha  occ. eigenvalues --   -0.35379  -0.35103  -0.34533  -0.34471  -0.28881
 Alpha  occ. eigenvalues --   -0.26805  -0.26007  -0.23445
 Alpha virt. eigenvalues --   -0.03323  -0.01997  -0.00717   0.05935   0.08551
 Alpha virt. eigenvalues --    0.09084   0.11963   0.12814   0.15474   0.16742
 Alpha virt. eigenvalues --    0.17239   0.19171   0.19678   0.21459   0.22958
 Alpha virt. eigenvalues --    0.30695   0.32699   0.33438   0.34370   0.35241
 Alpha virt. eigenvalues --    0.47644   0.48408   0.48585   0.49581   0.51126
 Alpha virt. eigenvalues --    0.51355   0.52637   0.54069   0.55963   0.58090
 Alpha virt. eigenvalues --    0.58710   0.60062   0.60244   0.60684   0.61640
 Alpha virt. eigenvalues --    0.64582   0.66212   0.66268   0.69453   0.71218
 Alpha virt. eigenvalues --    0.72062   0.75015   0.75241   0.77172   0.80464
 Alpha virt. eigenvalues --    0.80613   0.84398   0.87012   0.87741   0.88985
 Alpha virt. eigenvalues --    0.90867   0.93125   0.95146   0.97503   0.98357
 Alpha virt. eigenvalues --    0.99629   1.04208   1.06690   1.15096   1.18107
 Alpha virt. eigenvalues --    1.21899   1.23313   1.25356   1.29044   1.46012
 Alpha virt. eigenvalues --    1.46186   1.51447   1.65656   1.91075   6.59486
 Alpha virt. eigenvalues --   39.74165
          Condensed to atoms (all electrons):
               1          2          3          4          5          6
     1  C    4.948517   0.484627  -0.054862  -0.045569  -0.066146   0.527726
     2  C    0.484627   4.986081   0.545253  -0.047399  -0.045559  -0.041086
     3  C   -0.054862   0.545253   4.782845   0.544871  -0.054721  -0.016903
     4  C   -0.045569  -0.047399   0.544871   4.986655   0.484769  -0.041114
     5  C   -0.066146  -0.045559  -0.054721   0.484769   4.948224   0.527601
     6  C    0.527726  -0.041086  -0.016903  -0.041114   0.527601   5.020177
     7  H    0.348352  -0.029074   0.003580   0.000581   0.004320  -0.032212
     8  H   -0.030111   0.350091  -0.037733   0.004519   0.000747   0.003182
     9  H    0.000746   0.004516  -0.038023   0.350229  -0.030017   0.003185
    10  H    0.004324   0.000580   0.003575  -0.029082   0.348350  -0.032203
    11  C   -0.028406   0.006771   0.001510   0.006772  -0.028350   0.300767
    12  C   -0.000393   0.000145   0.000046   0.000145  -0.000391  -0.299988
    13  Br  -0.000018   0.000000   0.000000   0.000000  -0.000018   0.002074
    14  C    0.006606  -0.047636   0.319260  -0.048061   0.006588   0.000109
    15  H   -0.000168  -0.001892  -0.033067  -0.001962  -0.000164   0.000039
    16  H    0.000247  -0.002376  -0.035231   0.002973  -0.000242   0.000015
    17  H   -0.000242   0.002909  -0.035224  -0.002393   0.000243   0.000015
               7          8          9         10         11         12
     1  C    0.348352  -0.030111   0.000746   0.004324  -0.028406  -0.000393
     2  C   -0.029074   0.350091   0.004516   0.000580   0.006771   0.000145
     3  C    0.003580  -0.037733  -0.038023   0.003575   0.001510   0.000046
     4  C    0.000581   0.004519   0.350229  -0.029082   0.006772   0.000145
     5  C    0.004320   0.000747  -0.030017   0.348350  -0.028350  -0.000391
     6  C   -0.032212   0.003182   0.003185  -0.032203   0.300767  -0.299988
     7  H    0.566776  -0.003618   0.000014  -0.000161  -0.005077  -0.001250
     8  H   -0.003618   0.584453  -0.000171   0.000014  -0.000264  -0.000006
     9  H    0.000014  -0.000171   0.584519  -0.003621  -0.000264  -0.000006
    10  H   -0.000161   0.000014  -0.003621   0.566772  -0.005075  -0.001249
    11  C   -0.005077  -0.000264  -0.000264  -0.005075   5.874226   0.080864
    12  C   -0.001250  -0.000006  -0.000006  -0.001249   0.080864   6.497835
    13  Br  -0.000009   0.000000   0.000000  -0.000009   0.047237   0.054335
    14  C   -0.000160  -0.006767  -0.006730  -0.000160  -0.000010   0.000000
    15  H    0.000002   0.000494   0.000519   0.000002   0.000000   0.000000
    16  H   -0.000002   0.003943   0.000105   0.000002   0.000000   0.000000
    17  H    0.000002   0.000106   0.003866  -0.000002   0.000000   0.000000
              13         14         15         16         17
     1  C   -0.000018   0.006606  -0.000168   0.000247  -0.000242
     2  C    0.000000  -0.047636  -0.001892  -0.002376   0.002909
     3  C    0.000000   0.319260  -0.033067  -0.035231  -0.035224
     4  C    0.000000  -0.048061  -0.001962   0.002973  -0.002393
     5  C   -0.000018   0.006588  -0.000164  -0.000242   0.000243
     6  C    0.002074   0.000109   0.000039   0.000015   0.000015
     7  H   -0.000009  -0.000160   0.000002  -0.000002   0.000002
     8  H    0.000000  -0.006767   0.000494   0.003943   0.000106
     9  H    0.000000  -0.006730   0.000519   0.000105   0.003866
    10  H   -0.000009  -0.000160   0.000002   0.000002  -0.000002
    11  C    0.047237  -0.000010   0.000000   0.000000   0.000000
    12  C    0.054335   0.000000   0.000000   0.000000   0.000000
    13  Br  34.528056   0.000000   0.000000   0.000000   0.000000
    14  C    0.000000   5.130288   0.371821   0.371846   0.371906
    15  H    0.000000   0.371821   0.561003  -0.029747  -0.029826
    16  H    0.000000   0.371846  -0.029747   0.568053  -0.029043
    17  H    0.000000   0.371906  -0.029826  -0.029043   0.567974
 Mulliken charges:
               1
     1  C   -0.095228
     2  C   -0.165953
     3  C    0.104825
     4  C   -0.165933
     5  C   -0.095233
     6  C    0.078618
     7  H    0.147935
     8  H    0.131121
     9  H    0.131132
    10  H    0.147942
    11  C   -0.250701
    12  C   -0.330087
    13  Br   0.368352
    14  C   -0.468899
    15  H    0.162946
    16  H    0.149455
    17  H    0.149707
 Sum of Mulliken charges =   0.00000
 Mulliken charges with hydrogens summed into heavy atoms:
               1
     1  C    0.052707
     2  C   -0.034831
     3  C    0.104825
     4  C   -0.034801
     5  C    0.052709
     6  C    0.078618
    11  C   -0.250701
    12  C   -0.330087
    13  Br   0.368352
    14  C   -0.006791
 Electronic spatial extent (au):  <R**2>=           4003.7003
 Charge=              0.0000 electrons
 Dipole moment (field-independent basis, Debye):
    X=             -1.9446    Y=             -0.0012    Z=              0.0458  Tot=              1.9451
 Quadrupole moment (field-independent basis, Debye-Ang):
   XX=            -57.2382   YY=            -65.7242   ZZ=            -73.4034
   XY=              0.0068   XZ=             -0.2233   YZ=              0.0001
 Traceless Quadrupole moment (field-independent basis, Debye-Ang):
   XX=              8.2170   YY=             -0.2689   ZZ=             -7.9481
   XY=              0.0068   XZ=             -0.2233   YZ=              0.0001
 Octapole moment (field-independent basis, Debye-Ang**2):
  XXX=             97.6322  YYY=              0.0170  ZZZ=              0.6194  XYY=             26.8291
  XXY=             -0.0472  XXZ=              1.1371  XZZ=             43.6613  YZZ=             -0.0193
  YYZ=             -0.4470  XYZ=              0.0007
 Hexadecapole moment (field-independent basis, Debye-Ang**3):
 XXXX=          -3821.5585 YYYY=           -309.7005 ZZZZ=            -83.8272 XXXY=              0.1871
 XXXZ=             -5.6062 YYYX=             -0.1093 YYYZ=              0.0021 ZZZX=             -3.2636
 ZZZY=             -0.0008 XXYY=           -732.4618 XXZZ=           -739.9125 YYZZ=            -75.4367
 XXYZ=             -0.0045 YYXZ=              2.6949 ZZXY=              0.0874
 N-N= 5.960343490514D+02 E-N=-8.135343802566D+03  KE= 2.905793338598D+03
 Calling FoFJK, ICntrl=      2127 FMM=F ISym2X=0 I1Cent= 0 IOpClX= 0 NMat=1 NMatS=1 NMatT=0.
 ***** Axes restored to original set *****
 -------------------------------------------------------------------
 Center     Atomic                   Forces (Hartrees/Bohr)
 Number     Number              X              Y              Z
 -------------------------------------------------------------------
      1        6          -0.002415609   -0.018380039    0.000414587
      2        6          -0.000967928   -0.007846729    0.000509624
      3        6           0.023740239   -0.000615166   -0.001392224
      4        6          -0.000811784    0.008346484    0.000474262
      5        6          -0.002889920    0.018334125    0.000407564
      6        6          -0.066051315    0.000184250    0.000000480
      7        1           0.004076589    0.008785812   -0.000123232
      8        1          -0.004504858    0.007529403   -0.000310066
      9        1          -0.004632057   -0.007466712   -0.000300977
     10        1           0.004132465   -0.008852408   -0.000106755
     11        6           0.097623611   -0.000022329   -0.000099389
     12        6          -0.069258319    0.000011440   -0.000002633
     13       35           0.030518278   -0.000004951    0.000010744
     14        6          -0.035337578   -0.000082737   -0.002173137
     15        1           0.009132288    0.000176627    0.016349733
     16        1           0.008823813   -0.013055875   -0.006695235
     17        1           0.008822086    0.012958806   -0.006963346
 -------------------------------------------------------------------
 Cartesian Forces:  Max     0.097623611 RMS     0.021486091

 GradGradGradGradGradGradGradGradGradGradGradGradGradGradGradGradGradGrad
 Berny optimization.
 FormGI is forming the generalized inverse of G from B-inverse, IUseBI=4.
 GSVD:  received Info=                   1 from GESDD.
 Internal  Forces:  Max     0.058883554 RMS     0.010057235
 Search for a local minimum.
 Step number   1 out of a maximum of   85
 All quantities printed in internal units (Hartrees-Bohrs-Radians)
 Mixed Optimization -- RFO/linear search
 Second derivative matrix not updated -- first step.
 ITU=  0
     Eigenvalues ---    0.00230   0.00230   0.00237   0.01367   0.02126
     Eigenvalues ---    0.02132   0.02139   0.02144   0.02149   0.02150
     Eigenvalues ---    0.02151   0.02152   0.04799   0.04799   0.07243
     Eigenvalues ---    0.07243   0.16000   0.16000   0.16000   0.16000
     Eigenvalues ---    0.16000   0.16000   0.16000   0.17774   0.22000
     Eigenvalues ---    0.22980   0.24000   0.25000   0.25000   0.28519
     Eigenvalues ---    0.28532   0.33790   0.33805   0.33810   0.33816
     Eigenvalues ---    0.37230   0.37230   0.37230   0.41999   0.42317
     Eigenvalues ---    0.46104   0.46255   0.46364   0.46417   1.07306
 RFO step:  Lambda=-2.19775661D-02 EMin= 2.30000000D-03
 Linear search not attempted -- first point.
 Iteration  1 RMS(Cart)=  0.04034921 RMS(Int)=  0.00015699
 Iteration  2 RMS(Cart)=  0.00013094 RMS(Int)=  0.00005799
 Iteration  3 RMS(Cart)=  0.00000006 RMS(Int)=  0.00005799
 Variable       Old X    -DE/DX   Delta X   Delta X   Delta X     New X
                                 (Linear)    (Quad)   (Total)
    R1        2.63758   0.00200   0.00000   0.00410   0.00410   2.64168
    R2        2.63632   0.00747   0.00000   0.01555   0.01554   2.65186
    R3        2.07661  -0.00965   0.00000  -0.02680  -0.02680   2.04981
    R4        2.64131   0.00669   0.00000   0.01366   0.01368   2.65499
    R5        2.07642  -0.00877   0.00000  -0.02436  -0.02436   2.05205
    R6        2.63999   0.00734   0.00000   0.01500   0.01502   2.65501
    R7        2.91018  -0.00856   0.00000  -0.02786  -0.02786   2.88232
    R8        2.63680   0.00226   0.00000   0.00468   0.00468   2.64148
    R9        2.07652  -0.00878   0.00000  -0.02439  -0.02439   2.05213
   R10        2.63687   0.00725   0.00000   0.01513   0.01512   2.65199
   R11        2.07686  -0.00973   0.00000  -0.02704  -0.02704   2.04982
   R12        2.90990  -0.05888   0.00000  -0.19162  -0.19162   2.71828
   R13        2.25848   0.03874   0.00000   0.03538   0.03538   2.29385
   R14        3.60926  -0.03052   0.00000  -0.15281  -0.15281   3.45645
   R15        2.02201   0.01845   0.00000   0.04679   0.04679   2.06880
   R16        2.02201   0.01677   0.00000   0.04253   0.04253   2.06454
   R17        2.02201   0.01680   0.00000   0.04262   0.04262   2.06463
    A1        2.09421  -0.00104   0.00000  -0.00437  -0.00438   2.08983
    A2        2.09435   0.00141   0.00000   0.00710   0.00711   2.10146
    A3        2.09463  -0.00038   0.00000  -0.00274  -0.00273   2.09190
    A4        2.09657   0.00368   0.00000   0.01431   0.01433   2.11090
    A5        2.09389  -0.00199   0.00000  -0.00796  -0.00797   2.08592
    A6        2.09272  -0.00170   0.00000  -0.00635  -0.00636   2.08637
    A7        2.08957  -0.00479   0.00000  -0.01870  -0.01868   2.07089
    A8        2.09681   0.00241   0.00000   0.00941   0.00937   2.10618
    A9        2.09681   0.00238   0.00000   0.00929   0.00925   2.10606
   A10        2.09697   0.00359   0.00000   0.01411   0.01412   2.11109
   A11        2.09149  -0.00151   0.00000  -0.00547  -0.00548   2.08601
   A12        2.09473  -0.00208   0.00000  -0.00863  -0.00864   2.08609
   A13        2.09432  -0.00114   0.00000  -0.00461  -0.00463   2.08969
   A14        2.09457   0.00145   0.00000   0.00716   0.00716   2.10173
   A15        2.09430  -0.00031   0.00000  -0.00254  -0.00254   2.09176
   A16        2.09473  -0.00031   0.00000  -0.00073  -0.00076   2.09397
   A17        2.09436   0.00014   0.00000   0.00033   0.00035   2.09470
   A18        2.09409   0.00016   0.00000   0.00040   0.00042   2.09451
   A19        1.91063   0.00296   0.00000   0.01517   0.01503   1.92566
   A20        1.91063   0.00359   0.00000   0.02032   0.02011   1.93075
   A21        1.91063   0.00357   0.00000   0.02017   0.01996   1.93059
   A22        1.91063  -0.00354   0.00000  -0.02052  -0.02066   1.88997
   A23        1.91063  -0.00355   0.00000  -0.02064  -0.02078   1.88986
   A24        1.91063  -0.00304   0.00000  -0.01449  -0.01475   1.89588
   A25        3.14158   0.00000   0.00000   0.00001   0.00001   3.14159
   A26        3.14159   0.00000   0.00000  -0.00001  -0.00001   3.14158
   A27        3.14160   0.00005   0.00000   0.00074   0.00074   3.14233
   A28        3.14160   0.00002   0.00000   0.00063   0.00063   3.14223
    D1        0.00172   0.00002   0.00000  -0.00004  -0.00003   0.00169
    D2        3.14063   0.00008   0.00000   0.00146   0.00147  -3.14109
    D3       -3.13985  -0.00009   0.00000  -0.00242  -0.00242   3.14092
    D4       -0.00094  -0.00003   0.00000  -0.00092  -0.00092  -0.00186
    D5        0.00036  -0.00003   0.00000  -0.00096  -0.00095  -0.00059
    D6        3.14140  -0.00010   0.00000  -0.00226  -0.00226   3.13914
    D7       -3.14125   0.00008   0.00000   0.00142   0.00142  -3.13983
    D8       -0.00022   0.00001   0.00000   0.00012   0.00012  -0.00010
    D9       -0.00358   0.00000   0.00000   0.00096   0.00092  -0.00266
   D10        3.13801  -0.00039   0.00000  -0.00993  -0.00989   3.12812
   D11        3.14069  -0.00005   0.00000  -0.00054  -0.00057   3.14012
   D12       -0.00090  -0.00044   0.00000  -0.01143  -0.01139  -0.01229
   D13        0.00337   0.00000   0.00000  -0.00083  -0.00079   0.00258
   D14       -3.14066   0.00005   0.00000   0.00051   0.00054  -3.14012
   D15       -3.13822   0.00039   0.00000   0.01006   0.01003  -3.12820
   D16        0.00093   0.00044   0.00000   0.01140   0.01136   0.01229
   D17       -1.58019   0.00019   0.00000   0.00540   0.00545  -1.57474
   D18        0.51421  -0.00013   0.00000   0.00200   0.00200   0.51620
   D19        2.60860   0.00053   0.00000   0.00904   0.00914   2.61775
   D20        1.56140  -0.00020   0.00000  -0.00554  -0.00559   1.55582
   D21       -2.62739  -0.00052   0.00000  -0.00894  -0.00904  -2.63643
   D22       -0.53299   0.00014   0.00000  -0.00189  -0.00189  -0.53488
   D23       -0.00130  -0.00003   0.00000  -0.00022  -0.00023  -0.00153
   D24        3.14012   0.00009   0.00000   0.00228   0.00228  -3.14079
   D25       -3.14045  -0.00008   0.00000  -0.00156  -0.00157   3.14116
   D26        0.00097   0.00003   0.00000   0.00094   0.00095   0.00191
   D27       -0.00057   0.00004   0.00000   0.00109   0.00108   0.00051
   D28        3.14158   0.00011   0.00000   0.00239   0.00239  -3.13922
   D29        3.14119  -0.00008   0.00000  -0.00142  -0.00142   3.13978
   D30        0.00016  -0.00001   0.00000  -0.00011  -0.00011   0.00005
         Item               Value     Threshold  Converged?
 Maximum Force            0.058884     0.000450     NO 
 RMS     Force            0.010057     0.000300     NO 
 Maximum Displacement     0.251921     0.001800     NO 
 RMS     Displacement     0.040344     0.001200     NO 
 Predicted change in Energy=-1.181966D-02
 GradGradGradGradGradGradGradGradGradGradGradGradGradGradGradGradGradGrad

                          Input orientation:                          
 ---------------------------------------------------------------------
 Center     Atomic      Atomic             Coordinates (Angstroms)
 Number     Number       Type             X           Y           Z
 ---------------------------------------------------------------------
      1          6           0       -0.422377   -1.120583    0.020593
      2          6           0        0.975517   -1.113823    0.016785
      3          6           0        1.692144    0.094629    0.015658
      4          6           0        0.975308    1.302969    0.015165
      5          6           0       -0.422484    1.309768    0.018871
      6          6           0       -1.124356    0.094524    0.021283
      7          1           0       -0.966826   -2.058762    0.020806
      8          1           0        1.515040   -2.056210    0.015786
      9          1           0        1.515032    2.245285    0.012899
     10          1           0       -0.967170    2.247814    0.017701
     11          6           0       -2.562808    0.094579    0.022141
     12          6           0       -3.776662    0.094628    0.023589
     13         35           0       -5.605737    0.094722    0.026479
     14          6           0        3.217341    0.094859    0.029172
     15          1           0        3.588622    0.105317    1.058998
     16          1           0        3.606695   -0.797453   -0.466569
     17          1           0        3.606445    0.977202   -0.484388
 ---------------------------------------------------------------------
                    Distance matrix (angstroms):
                    1          2          3          4          5
     1  C    0.000000
     2  C    1.397915   0.000000
     3  C    2.438845   1.404960   0.000000
     4  C    2.797706   2.416792   1.404969   0.000000
     5  C    2.430352   2.797893   2.438898   1.397814   0.000000
     6  C    1.403303   2.422723   2.816505   2.422595   1.403371
     7  H    1.084714   2.160005   3.421584   3.882416   3.412230
     8  H    2.151512   1.085900   2.158118   3.402263   3.883789
     9  H    3.883643   3.402160   2.157938   1.085941   2.151557
    10  H    3.412171   3.882607   3.421718   2.160083   1.084718
    11  C    2.461314   3.738984   4.254956   3.738786   2.461236
    12  C    3.567629   4.903428   5.468812   4.903201   3.567506
    13  Br   5.323929   6.691306   7.297889   6.691049   5.323768
    14  C    3.837306   2.546927   1.525257   2.546848   3.837243
    15  H    4.320790   3.066077   2.164556   3.058327   4.315268
    16  H    4.071260   2.693848   2.166532   3.401181   4.572780
    17  H    4.570243   3.397844   2.166456   2.697881   4.073836
                    6          7          8          9         10
     6  C    0.000000
     7  H    2.159041   0.000000
     8  H    3.404717   2.481872   0.000000
     9  H    3.404734   4.968350   4.301495   0.000000
    10  H    2.159023   4.306578   4.968500   2.482208   0.000000
    11  C    1.438452   2.680306   4.610290   4.610250   2.680019
    12  C    2.652308   3.540096   5.712117   5.712046   3.539702
    13  Br   4.481384   5.114394   7.438554   7.438445   5.113921
    14  C    4.341704   4.705890   2.743192   2.742709   4.705898
    15  H    4.825881   5.149095   3.171786   3.158094   5.140995
    16  H    4.839056   4.769227   2.488404   3.723331   5.516195
    17  H    4.838936   5.512450   3.718297   2.495864   4.773312
                   11         12         13         14         15
    11  C    0.000000
    12  C    1.213855   0.000000
    13  Br   3.042932   1.829077   0.000000
    14  C    5.780153   6.994005   8.823078   0.000000
    15  H    6.238211   7.437714   9.252158   1.094761   0.000000
    16  H    6.252785   7.453189   9.268655   1.092508   1.772759
    17  H    6.252622   7.453003   9.268444   1.092554   1.772722
                   16         17
    16  H    0.000000
    17  H    1.774744   0.000000
 Stoichiometry    C9H7Br
 Framework group  C1[X(C9H7Br)]
 Deg. of freedom    45
 Full point group                 C1      NOp   1
 Largest Abelian subgroup         C1      NOp   1
 Largest concise Abelian subgroup C1      NOp   1
                         Standard orientation:                         
 ---------------------------------------------------------------------
 Center     Atomic      Atomic             Coordinates (Angstroms)
 Number     Number       Type             X           Y           Z
 ---------------------------------------------------------------------
      1          6           0       -1.587977    1.215237   -0.002206
      2          6           0       -2.985873    1.208467   -0.005151
      3          6           0       -3.702493    0.000010   -0.005003
      4          6           0       -2.985652   -1.208325   -0.005101
      5          6           0       -1.587857   -1.215115   -0.002248
      6          6           0       -0.885991    0.000134   -0.001106
      7          1           0       -1.043534    2.153419   -0.002975
      8          1           0       -3.525402    2.150850   -0.006470
      9          1           0       -3.525372   -2.150645   -0.006383
     10          1           0       -1.043167   -2.153158   -0.003103
     11          6           0        0.552461    0.000087   -0.001130
     12          6           0        1.766316    0.000045   -0.000428
     13         35           0        3.595392   -0.000036    0.001340
     14          6           0       -5.227682   -0.000217    0.009447
     15          1           0       -5.598331   -0.009966    1.039508
     16          1           0       -5.617345    0.891749   -0.486671
     17          1           0       -5.617096   -0.882917   -0.503264
 ---------------------------------------------------------------------
 Rotational constants (GHZ):      5.4737820      0.2599182      0.2485226
 Standard basis: 6-31G (6D, 7F)
 There are   119 symmetry adapted cartesian basis functions of A   symmetry.
 There are   119 symmetry adapted basis functions of A   symmetry.
   119 basis functions,   303 primitive gaussians,   119 cartesian basis functions
    48 alpha electrons       48 beta electrons
       nuclear repulsion energy       604.6014485361 Hartrees.
 NAtoms=   17 NActive=   17 NUniq=   17 SFac= 1.00D+00 NAtFMM=   60 NAOKFM=F Big=F
 Integral buffers will be    131072 words long.
 Raffenetti 2 integral format.
 Two-electron integral symmetry is turned on.
 Nuclear repulsion after empirical dispersion term =      604.5905267101 Hartrees.
 One-electron integrals computed using PRISM.
 NBasis=   119 RedAO= T EigKep=  3.64D-04  NBF=   119
 NBsUse=   119 1.00D-06 EigRej= -1.00D+00 NBFU=   119
 Initial guess from the checkpoint file:  "E:\PROJECT- VIT group\ML\Substrates\molecule_19.chk"
 B after Tr=     0.000000    0.000000    0.000000
         Rot=    1.000000    0.000000   -0.000010   -0.000002 Ang=   0.00 deg.
 ExpMin= 1.43D-01 ExpMax= 5.74D+05 ExpMxC= 5.74D+03 IAcc=2 IRadAn=         4 AccDes= 0.00D+00
 Harris functional with IExCor=  402 and IRadAn=       4 diagonalized for initial guess.
 HarFok:  IExCor=  402 AccDes= 0.00D+00 IRadAn=         4 IDoV= 1 UseB2=F ITyADJ=14
 ICtDFT=  3500011 ScaDFX=  1.000000  1.000000  1.000000  1.000000
 FoFCou: FMM=F IPFlag=           0 FMFlag=      100000 FMFlg1=           0
         NFxFlg=           0 DoJE=T BraDBF=F KetDBF=T FulRan=T
         wScrn=  0.000000 ICntrl=     500 IOpCl=  0 I1Cent=   200000004 NGrid=           0
         NMat0=    1 NMatS0=      1 NMatT0=    0 NMatD0=    1 NMtDS0=    0 NMtDT0=    0
 Petite list used in FoFCou.
 Keep R1 ints in memory in canonical form, NReq=26624432.
 Requested convergence on RMS density matrix=1.00D-08 within 128 cycles.
 Requested convergence on MAX density matrix=1.00D-06.
 Requested convergence on             energy=1.00D-06.
 No special actions if energy rises.
 Integral accuracy reduced to 1.0D-05 until final iterations.
 Initial convergence to 1.0D-05 achieved.  Increase integral accuracy.
 SCF Done:  E(RB3LYP) =  -2918.60807854     A.U. after   16 cycles
            NFock= 16  Conv=0.25D-08     -V/T= 2.0044
 Calling FoFJK, ICntrl=      2127 FMM=F ISym2X=0 I1Cent= 0 IOpClX= 0 NMat=1 NMatS=1 NMatT=0.
 ***** Axes restored to original set *****
 -------------------------------------------------------------------
 Center     Atomic                   Forces (Hartrees/Bohr)
 Number     Number              X              Y              Z
 -------------------------------------------------------------------
      1        6           0.008208424   -0.002475078    0.000154016
      2        6          -0.002916677   -0.000062543    0.000295035
      3        6           0.007203579   -0.000086294   -0.000724740
      4        6          -0.002831664    0.000158779    0.000287090
      5        6           0.008192842    0.002436418    0.000155273
      6        6          -0.018821470    0.000006925    0.000003823
      7        1          -0.000202278    0.000543049   -0.000051309
      8        1           0.000260259   -0.000049254   -0.000232678
      9        1           0.000228598    0.000051403   -0.000234116
     10        1          -0.000179437   -0.000536976   -0.000047755
     11        6           0.006113832   -0.000013502    0.000025129
     12        6           0.001152682    0.000001241   -0.000006097
     13       35          -0.001300584   -0.000000083   -0.000008129
     14        6          -0.011196760   -0.000000975   -0.000722712
     15        1           0.002199174    0.000019346    0.001222750
     16        1           0.001938565   -0.000837497   -0.000052452
     17        1           0.001950915    0.000845039   -0.000063128
 -------------------------------------------------------------------
 Cartesian Forces:  Max     0.018821470 RMS     0.003841237

 GradGradGradGradGradGradGradGradGradGradGradGradGradGradGradGradGradGrad
 Berny optimization.
 Using GEDIIS/GDIIS optimizer.
 FormGI is forming the generalized inverse of G from B-inverse, IUseBI=4.
 GSVD:  received Info=                   1 from GESDD.
 Internal  Forces:  Max     0.005965916 RMS     0.001670225
 Search for a local minimum.
 Step number   2 out of a maximum of   85
 All quantities printed in internal units (Hartrees-Bohrs-Radians)
 Mixed Optimization -- RFO/linear search
 Update second derivatives using D2CorX and points    1    2
 DE= -1.25D-02 DEPred=-1.18D-02 R= 1.05D+00
 TightC=F SS=  1.41D+00  RLast= 2.75D-01 DXNew= 5.0454D-01 8.2484D-01
 Trust test= 1.05D+00 RLast= 2.75D-01 DXMaxT set to 5.05D-01
 ITU=  1  0
 Use linear search instead of GDIIS.
     Eigenvalues ---    0.00230   0.00230   0.00237   0.01355   0.02126
     Eigenvalues ---    0.02132   0.02139   0.02144   0.02149   0.02150
     Eigenvalues ---    0.02151   0.02152   0.04799   0.04799   0.07000
     Eigenvalues ---    0.07057   0.15687   0.16000   0.16000   0.16000
     Eigenvalues ---    0.16000   0.16000   0.16001   0.18798   0.22000
     Eigenvalues ---    0.22963   0.23267   0.24998   0.25000   0.27231
     Eigenvalues ---    0.29431   0.33788   0.33802   0.33813   0.34028
     Eigenvalues ---    0.36948   0.37230   0.37235   0.41998   0.42827
     Eigenvalues ---    0.45870   0.46121   0.46408   0.46525   1.07644
 RFO step:  Lambda=-6.85380761D-04 EMin= 2.30000000D-03
 Quartic linear search produced a step of  0.07038.
 Iteration  1 RMS(Cart)=  0.00683920 RMS(Int)=  0.00006683
 Iteration  2 RMS(Cart)=  0.00006170 RMS(Int)=  0.00002313
 Iteration  3 RMS(Cart)=  0.00000000 RMS(Int)=  0.00002313
 Variable       Old X    -DE/DX   Delta X   Delta X   Delta X     New X
                                 (Linear)    (Quad)   (Total)
    R1        2.64168  -0.00159   0.00029  -0.00388  -0.00359   2.63808
    R2        2.65186   0.00533   0.00109   0.01193   0.01304   2.66490
    R3        2.04981  -0.00037  -0.00189   0.00029  -0.00159   2.04822
    R4        2.65499   0.00019   0.00096  -0.00068   0.00027   2.65525
    R5        2.05205   0.00017  -0.00171   0.00187   0.00015   2.05221
    R6        2.65501   0.00023   0.00106  -0.00067   0.00037   2.65538
    R7        2.88232  -0.00510  -0.00196  -0.01751  -0.01948   2.86284
    R8        2.64148  -0.00158   0.00033  -0.00386  -0.00354   2.63795
    R9        2.05213   0.00016  -0.00172   0.00183   0.00011   2.05224
   R10        2.65199   0.00535   0.00106   0.01201   0.01309   2.66507
   R11        2.04982  -0.00037  -0.00190   0.00029  -0.00162   2.04821
   R12        2.71828  -0.00597  -0.01349  -0.01135  -0.02483   2.69345
   R13        2.29385   0.00015   0.00249  -0.00139   0.00110   2.29495
   R14        3.45645   0.00130  -0.01076   0.01828   0.00752   3.46398
   R15        2.06880   0.00190   0.00329   0.00296   0.00626   2.07506
   R16        2.06454   0.00140   0.00299   0.00176   0.00476   2.06930
   R17        2.06463   0.00141   0.00300   0.00178   0.00478   2.06941
    A1        2.08983   0.00207  -0.00031   0.01065   0.01036   2.10019
    A2        2.10146  -0.00057   0.00050  -0.00262  -0.00213   2.09932
    A3        2.09190  -0.00149  -0.00019  -0.00803  -0.00823   2.08367
    A4        2.11090   0.00100   0.00101   0.00239   0.00339   2.11429
    A5        2.08592  -0.00029  -0.00056   0.00024  -0.00031   2.08561
    A6        2.08637  -0.00071  -0.00045  -0.00263  -0.00307   2.08329
    A7        2.07089  -0.00082  -0.00131  -0.00466  -0.00602   2.06488
    A8        2.10618   0.00045   0.00066   0.00243   0.00309   2.10927
    A9        2.10606   0.00038   0.00065   0.00214   0.00280   2.10886
   A10        2.11109   0.00096   0.00099   0.00220   0.00318   2.11428
   A11        2.08601  -0.00066  -0.00039  -0.00240  -0.00278   2.08323
   A12        2.08609  -0.00030  -0.00061   0.00019  -0.00041   2.08568
   A13        2.08969   0.00209  -0.00033   0.01081   0.01050   2.10019
   A14        2.10173  -0.00061   0.00050  -0.00285  -0.00236   2.09937
   A15        2.09176  -0.00148  -0.00018  -0.00796  -0.00814   2.08362
   A16        2.09397  -0.00529  -0.00005  -0.02140  -0.02142   2.07255
   A17        2.09470   0.00263   0.00002   0.01063   0.01064   2.10534
   A18        2.09451   0.00266   0.00003   0.01076   0.01078   2.10529
   A19        1.92566   0.00159   0.00106   0.00865   0.00965   1.93532
   A20        1.93075   0.00156   0.00142   0.00941   0.01075   1.94150
   A21        1.93059   0.00158   0.00140   0.00951   0.01084   1.94143
   A22        1.88997  -0.00177  -0.00145  -0.01108  -0.01258   1.87739
   A23        1.88986  -0.00178  -0.00146  -0.01119  -0.01270   1.87716
   A24        1.89588  -0.00137  -0.00104  -0.00638  -0.00751   1.88837
   A25        3.14159   0.00000   0.00000  -0.00003  -0.00003   3.14156
   A26        3.14158   0.00000   0.00000   0.00031   0.00031   3.14189
   A27        3.14233  -0.00005   0.00005  -0.00118  -0.00113   3.14121
   A28        3.14223  -0.00002   0.00004  -0.00803  -0.00798   3.13425
    D1        0.00169   0.00001   0.00000  -0.00003  -0.00003   0.00165
    D2       -3.14109   0.00006   0.00010   0.00193   0.00204  -3.13905
    D3        3.14092  -0.00003  -0.00017  -0.00123  -0.00140   3.13952
    D4       -0.00186   0.00001  -0.00006   0.00074   0.00067  -0.00118
    D5       -0.00059   0.00001  -0.00007   0.00060   0.00054  -0.00005
    D6        3.13914  -0.00002  -0.00016  -0.00047  -0.00062   3.13852
    D7       -3.13983   0.00006   0.00010   0.00178   0.00188  -3.13795
    D8       -0.00010   0.00002   0.00001   0.00071   0.00072   0.00062
    D9       -0.00266  -0.00004   0.00006  -0.00056  -0.00051  -0.00316
   D10        3.12812  -0.00022  -0.00070  -0.00956  -0.01025   3.11787
   D11        3.14012  -0.00008  -0.00004  -0.00252  -0.00258   3.13754
   D12       -0.01229  -0.00026  -0.00080  -0.01153  -0.01232  -0.02461
   D13        0.00258   0.00004  -0.00006   0.00061   0.00057   0.00315
   D14       -3.14012   0.00008   0.00004   0.00253   0.00258  -3.13754
   D15       -3.12820   0.00022   0.00071   0.00961   0.01031  -3.11789
   D16        0.01229   0.00026   0.00080   0.01153   0.01231   0.02460
   D17       -1.57474   0.00009   0.00038   0.00484   0.00524  -1.56950
   D18        0.51620  -0.00008   0.00014   0.00266   0.00280   0.51900
   D19        2.61775   0.00027   0.00064   0.00710   0.00778   2.62552
   D20        1.55582  -0.00009  -0.00039  -0.00439  -0.00480   1.55102
   D21       -2.63643  -0.00027  -0.00064  -0.00657  -0.00724  -2.64367
   D22       -0.53488   0.00008  -0.00013  -0.00213  -0.00226  -0.53715
   D23       -0.00153  -0.00002  -0.00002  -0.00007  -0.00009  -0.00162
   D24       -3.14079   0.00003   0.00016   0.00114   0.00130  -3.13948
   D25        3.14116  -0.00006  -0.00011  -0.00198  -0.00210   3.13906
   D26        0.00191  -0.00002   0.00007  -0.00077  -0.00070   0.00121
   D27        0.00051  -0.00001   0.00008  -0.00055  -0.00048   0.00003
   D28       -3.13922   0.00003   0.00017   0.00052   0.00068  -3.13853
   D29        3.13978  -0.00006  -0.00010  -0.00175  -0.00185   3.13793
   D30        0.00005  -0.00002  -0.00001  -0.00068  -0.00069  -0.00064
         Item               Value     Threshold  Converged?
 Maximum Force            0.005966     0.000450     NO 
 RMS     Force            0.001670     0.000300     NO 
 Maximum Displacement     0.027628     0.001800     NO 
 RMS     Displacement     0.006839     0.001200     NO 
 Predicted change in Energy=-4.227161D-04
 GradGradGradGradGradGradGradGradGradGradGradGradGradGradGradGradGradGrad

                          Input orientation:                          
 ---------------------------------------------------------------------
 Center     Atomic      Atomic             Coordinates (Angstroms)
 Number     Number       Type             X           Y           Z
 ---------------------------------------------------------------------
      1          6           0       -0.420610   -1.118931    0.019863
      2          6           0        0.975363   -1.111797    0.012040
      3          6           0        1.695818    0.094538    0.009093
      4          6           0        0.975378    1.300960    0.010313
      5          6           0       -0.420524    1.308146    0.018108
      6          6           0       -1.138976    0.094583    0.022979
      7          1           0       -0.962382   -2.057685    0.020113
      8          1           0        1.514872   -2.054274    0.007320
      9          1           0        1.514994    2.243390    0.004244
     10          1           0       -0.962311    2.246882    0.016978
     11          6           0       -2.564280    0.094648    0.027192
     12          6           0       -3.778711    0.094744    0.030407
     13         35           0       -5.611765    0.094292    0.027091
     14          6           0        3.210604    0.094834    0.031444
     15          1           0        3.586886    0.105126    1.062980
     16          1           0        3.614753   -0.796970   -0.458892
     17          1           0        3.614614    0.976979   -0.476304
 ---------------------------------------------------------------------
                    Distance matrix (angstroms):
                    1          2          3          4          5
     1  C    0.000000
     2  C    1.396013   0.000000
     3  C    2.439649   1.405100   0.000000
     4  C    2.793698   2.412758   1.405165   0.000000
     5  C    2.427078   2.793682   2.439637   1.395943   0.000000
     6  C    1.410204   2.434317   2.834828   2.434338   1.410295
     7  H    1.083871   2.156300   3.420265   3.877565   3.409169
     8  H    2.149678   1.085982   2.156418   3.398332   3.879658
     9  H    3.879691   3.398314   2.156452   1.085999   2.149675
    10  H    3.409127   3.877542   3.420278   2.156259   1.083863
    11  C    2.463361   3.739627   4.260136   3.739607   2.463402
    12  C    3.570709   4.904824   5.474570   4.904765   3.570702
    13  Br   5.331046   6.696651   7.307605   6.696775   5.331276
    14  C    3.828717   2.540204   1.514951   2.539964   3.828497
    15  H    4.318151   3.066827   2.164932   3.059101   4.312580
    16  H    4.076397   2.699494   2.167050   3.404080   4.576298
    17  H    4.574063   3.401045   2.167047   2.703207   4.078781
                    6          7          8          9         10
     6  C    0.000000
     7  H    2.159503   0.000000
     8  H    3.414783   2.477290   0.000000
     9  H    3.414861   4.963556   4.297665   0.000000
    10  H    2.159546   4.304568   4.963515   2.477340   0.000000
    11  C    1.425311   2.683033   4.610612   4.610650   2.683006
    12  C    2.639745   3.544681   5.713216   5.713201   3.544571
    13  Br   4.472791   5.123262   7.443500   7.443778   5.123589
    14  C    4.349588   4.695453   2.737655   2.737175   4.695183
    15  H    4.838955   5.144042   3.173432   3.160037   5.135799
    16  H    4.860556   4.771689   2.491519   3.723878   5.517337
    17  H    4.860507   5.514029   3.719046   2.498626   4.775378
                   11         12         13         14         15
    11  C    0.000000
    12  C    1.214435   0.000000
    13  Br   3.047485   1.833058   0.000000
    14  C    5.774885   6.989314   8.822370   0.000000
    15  H    6.237773   7.437629   9.256801   1.098072   0.000000
    16  H    6.261925   7.463100   9.282196   1.095025   1.769364
    17  H    6.261849   7.462999   9.282167   1.095085   1.769263
                   16         17
    16  H    0.000000
    17  H    1.774034   0.000000
 Stoichiometry    C9H7Br
 Framework group  C1[X(C9H7Br)]
 Deg. of freedom    45
 Full point group                 C1      NOp   1
 Largest Abelian subgroup         C1      NOp   1
 Largest concise Abelian subgroup C1      NOp   1
                         Standard orientation:                         
 ---------------------------------------------------------------------
 Center     Atomic      Atomic             Coordinates (Angstroms)
 Number     Number       Type             X           Y           Z
 ---------------------------------------------------------------------
      1          6           0       -1.592722    1.213537   -0.002472
      2          6           0       -2.988703    1.206474   -0.008895
      3          6           0       -3.709225    0.000177   -0.010254
      4          6           0       -2.988851   -1.206284   -0.008886
      5          6           0       -1.592942   -1.213541   -0.002481
      6          6           0       -0.874419   -0.000014    0.000799
      7          1           0       -1.050899    2.152261   -0.003439
      8          1           0       -3.528165    2.148978   -0.013753
      9          1           0       -3.528523   -2.148688   -0.013738
     10          1           0       -1.051207   -2.152307   -0.003478
     11          6           0        0.550888   -0.000154    0.003586
     12          6           0        1.765322   -0.000315    0.005588
     13         35           0        3.598372    0.000034    0.000439
     14          6           0       -5.223988   -0.000020    0.013611
     15          1           0       -5.599240   -0.009549    1.045531
     16          1           0       -5.628579    0.891454   -0.476962
     17          1           0       -5.628554   -0.882507   -0.493097
 ---------------------------------------------------------------------
 Rotational constants (GHZ):      5.4881576      0.2595680      0.2482312
 Standard basis: 6-31G (6D, 7F)
 There are   119 symmetry adapted cartesian basis functions of A   symmetry.
 There are   119 symmetry adapted basis functions of A   symmetry.
   119 basis functions,   303 primitive gaussians,   119 cartesian basis functions
    48 alpha electrons       48 beta electrons
       nuclear repulsion energy       604.3906451729 Hartrees.
 NAtoms=   17 NActive=   17 NUniq=   17 SFac= 1.00D+00 NAtFMM=   60 NAOKFM=F Big=F
 Integral buffers will be    131072 words long.
 Raffenetti 2 integral format.
 Two-electron integral symmetry is turned on.
 Nuclear repulsion after empirical dispersion term =      604.3797221378 Hartrees.
 One-electron integrals computed using PRISM.
 NBasis=   119 RedAO= T EigKep=  3.54D-04  NBF=   119
 NBsUse=   119 1.00D-06 EigRej= -1.00D+00 NBFU=   119
 Initial guess from the checkpoint file:  "E:\PROJECT- VIT group\ML\Substrates\molecule_19.chk"
 B after Tr=     0.000000    0.000000    0.000000
         Rot=    1.000000    0.000007   -0.000011    0.000007 Ang=   0.00 deg.
 ExpMin= 1.43D-01 ExpMax= 5.74D+05 ExpMxC= 5.74D+03 IAcc=2 IRadAn=         4 AccDes= 0.00D+00
 Harris functional with IExCor=  402 and IRadAn=       4 diagonalized for initial guess.
 HarFok:  IExCor=  402 AccDes= 0.00D+00 IRadAn=         4 IDoV= 1 UseB2=F ITyADJ=14
 ICtDFT=  3500011 ScaDFX=  1.000000  1.000000  1.000000  1.000000
 FoFCou: FMM=F IPFlag=           0 FMFlag=      100000 FMFlg1=           0
         NFxFlg=           0 DoJE=T BraDBF=F KetDBF=T FulRan=T
         wScrn=  0.000000 ICntrl=     500 IOpCl=  0 I1Cent=   200000004 NGrid=           0
         NMat0=    1 NMatS0=      1 NMatT0=    0 NMatD0=    1 NMtDS0=    0 NMtDT0=    0
 Petite list used in FoFCou.
 Keep R1 ints in memory in canonical form, NReq=26624446.
 Requested convergence on RMS density matrix=1.00D-08 within 128 cycles.
 Requested convergence on MAX density matrix=1.00D-06.
 Requested convergence on             energy=1.00D-06.
 No special actions if energy rises.
 Integral accuracy reduced to 1.0D-05 until final iterations.
 Initial convergence to 1.0D-05 achieved.  Increase integral accuracy.
 SCF Done:  E(RB3LYP) =  -2918.60852877     A.U. after   13 cycles
            NFock= 13  Conv=0.42D-08     -V/T= 2.0044
 Calling FoFJK, ICntrl=      2127 FMM=F ISym2X=0 I1Cent= 0 IOpClX= 0 NMat=1 NMatS=1 NMatT=0.
 ***** Axes restored to original set *****
 -------------------------------------------------------------------
 Center     Atomic                   Forces (Hartrees/Bohr)
 Number     Number              X              Y              Z
 -------------------------------------------------------------------
      1        6           0.002519014    0.000250546   -0.000006536
      2        6          -0.001653173    0.000058735    0.000040980
      3        6           0.002138455   -0.000008017    0.000089274
      4        6          -0.001652603   -0.000052168    0.000039555
      5        6           0.002515804   -0.000265566   -0.000005931
      6        6          -0.000500107    0.000015475    0.000028576
      7        1          -0.000365531   -0.000383097   -0.000002334
      8        1           0.000007022   -0.000198476   -0.000078393
      9        1          -0.000001030    0.000197888   -0.000079808
     10        1          -0.000367555    0.000388959   -0.000001673
     11        6          -0.002129816    0.000015946    0.000241611
     12        6          -0.000119637   -0.000030169   -0.000411982
     13       35           0.000724081    0.000012566    0.000172096
     14        6          -0.002505470   -0.000008042   -0.000417046
     15        1           0.000470311    0.000000972    0.000062530
     16        1           0.000460993    0.000048740    0.000162664
     17        1           0.000459244   -0.000044292    0.000166417
 -------------------------------------------------------------------
 Cartesian Forces:  Max     0.002519014 RMS     0.000843241

 GradGradGradGradGradGradGradGradGradGradGradGradGradGradGradGradGradGrad
 Berny optimization.
 Using GEDIIS/GDIIS optimizer.
 FormGI is forming the generalized inverse of G from B-inverse, IUseBI=4.
 GSVD:  received Info=                   1 from GESDD.
 Internal  Forces:  Max     0.001525689 RMS     0.000410933
 Search for a local minimum.
 Step number   3 out of a maximum of   85
 All quantities printed in internal units (Hartrees-Bohrs-Radians)
 Mixed Optimization -- En-DIIS/RFO-DIIS
 Update second derivatives using D2CorX and points    1    2    3
 DE= -4.50D-04 DEPred=-4.23D-04 R= 1.07D+00
 TightC=F SS=  1.41D+00  RLast= 6.44D-02 DXNew= 8.4853D-01 1.9320D-01
 Trust test= 1.07D+00 RLast= 6.44D-02 DXMaxT set to 5.05D-01
 ITU=  1  1  0
 Use linear search instead of GDIIS.
     Eigenvalues ---    0.00230   0.00231   0.00237   0.01356   0.02119
     Eigenvalues ---    0.02132   0.02138   0.02144   0.02149   0.02150
     Eigenvalues ---    0.02151   0.02152   0.04799   0.04799   0.06844
     Eigenvalues ---    0.06948   0.14307   0.16000   0.16000   0.16000
     Eigenvalues ---    0.16000   0.16000   0.16022   0.18718   0.21850
     Eigenvalues ---    0.22000   0.23226   0.24994   0.25000   0.27628
     Eigenvalues ---    0.31831   0.33797   0.33813   0.33854   0.34762
     Eigenvalues ---    0.37155   0.37230   0.37375   0.41958   0.42293
     Eigenvalues ---    0.44924   0.46118   0.46410   0.46941   1.07850
 RFO step:  Lambda=-1.10294091D-04 EMin= 2.29997960D-03
 Quartic linear search produced a step of  0.11306.
 Iteration  1 RMS(Cart)=  0.03396625 RMS(Int)=  0.00195480
 Iteration  2 RMS(Cart)=  0.00287026 RMS(Int)=  0.00001183
 Iteration  3 RMS(Cart)=  0.00001477 RMS(Int)=  0.00000558
 Iteration  4 RMS(Cart)=  0.00000000 RMS(Int)=  0.00000558
 Variable       Old X    -DE/DX   Delta X   Delta X   Delta X     New X
                                 (Linear)    (Quad)   (Total)
    R1        2.63808  -0.00114  -0.00041  -0.00271  -0.00311   2.63497
    R2        2.66490   0.00066   0.00147   0.00184   0.00332   2.66822
    R3        2.04822   0.00051  -0.00018   0.00146   0.00128   2.04950
    R4        2.65525   0.00035   0.00003   0.00093   0.00095   2.65621
    R5        2.05221   0.00018   0.00002   0.00040   0.00041   2.05262
    R6        2.65538   0.00036   0.00004   0.00096   0.00100   2.65638
    R7        2.86284  -0.00112  -0.00220  -0.00470  -0.00690   2.85594
    R8        2.63795  -0.00114  -0.00040  -0.00270  -0.00310   2.63485
    R9        2.05224   0.00017   0.00001   0.00038   0.00039   2.05264
   R10        2.66507   0.00064   0.00148   0.00180   0.00328   2.66835
   R11        2.04821   0.00052  -0.00018   0.00148   0.00130   2.04950
   R12        2.69345   0.00153  -0.00281   0.00426   0.00145   2.69490
   R13        2.29495  -0.00060   0.00012  -0.00033  -0.00021   2.29474
   R14        3.46398  -0.00072   0.00085  -0.00542  -0.00457   3.45940
   R15        2.07506   0.00022   0.00071   0.00106   0.00177   2.07682
   R16        2.06930   0.00006   0.00054   0.00053   0.00107   2.07037
   R17        2.06941   0.00006   0.00054   0.00053   0.00107   2.07048
    A1        2.10019   0.00044   0.00117   0.00218   0.00335   2.10354
    A2        2.09932  -0.00009  -0.00024  -0.00015  -0.00039   2.09893
    A3        2.08367  -0.00035  -0.00093  -0.00203  -0.00296   2.08071
    A4        2.11429   0.00024   0.00038   0.00117   0.00155   2.11584
    A5        2.08561  -0.00022  -0.00004  -0.00123  -0.00126   2.08434
    A6        2.08329  -0.00003  -0.00035   0.00006  -0.00029   2.08300
    A7        2.06488  -0.00049  -0.00068  -0.00257  -0.00326   2.06162
    A8        2.10927   0.00025   0.00035   0.00129   0.00164   2.11090
    A9        2.10886   0.00025   0.00032   0.00128   0.00160   2.11046
   A10        2.11428   0.00025   0.00036   0.00118   0.00153   2.11581
   A11        2.08323  -0.00002  -0.00031   0.00011  -0.00020   2.08303
   A12        2.08568  -0.00023  -0.00005  -0.00129  -0.00133   2.08435
   A13        2.10019   0.00044   0.00119   0.00217   0.00336   2.10355
   A14        2.09937  -0.00009  -0.00027  -0.00016  -0.00042   2.09895
   A15        2.08362  -0.00035  -0.00092  -0.00202  -0.00294   2.08068
   A16        2.07255  -0.00088  -0.00242  -0.00413  -0.00655   2.06601
   A17        2.10534   0.00044   0.00120   0.00205   0.00325   2.10859
   A18        2.10529   0.00044   0.00122   0.00208   0.00329   2.10858
   A19        1.93532   0.00034   0.00109   0.00212   0.00320   1.93852
   A20        1.94150   0.00050   0.00122   0.00386   0.00506   1.94656
   A21        1.94143   0.00049   0.00123   0.00383   0.00504   1.94647
   A22        1.87739  -0.00050  -0.00142  -0.00409  -0.00552   1.87187
   A23        1.87716  -0.00050  -0.00144  -0.00411  -0.00556   1.87160
   A24        1.88837  -0.00042  -0.00085  -0.00221  -0.00309   1.88528
   A25        3.14156   0.00000   0.00000   0.00001   0.00001   3.14157
   A26        3.14189  -0.00004   0.00004  -0.01716  -0.01713   3.12477
   A27        3.14121   0.00004  -0.00013   0.00090   0.00077   3.14198
   A28        3.13425   0.00036  -0.00090   0.16550   0.16459   3.29884
    D1        0.00165   0.00001   0.00000   0.00037   0.00037   0.00202
    D2       -3.13905   0.00002   0.00023   0.00101   0.00124  -3.13781
    D3        3.13952   0.00001  -0.00016   0.00037   0.00021   3.13973
    D4       -0.00118   0.00002   0.00008   0.00101   0.00109  -0.00009
    D5       -0.00005   0.00002   0.00006   0.00110   0.00116   0.00111
    D6        3.13852   0.00001  -0.00007   0.00049   0.00042   3.13894
    D7       -3.13795   0.00002   0.00021   0.00110   0.00131  -3.13664
    D8        0.00062   0.00001   0.00008   0.00049   0.00057   0.00118
    D9       -0.00316  -0.00004  -0.00006  -0.00182  -0.00188  -0.00505
   D10        3.11787  -0.00004  -0.00116  -0.00193  -0.00309   3.11478
   D11        3.13754  -0.00005  -0.00029  -0.00247  -0.00276   3.13478
   D12       -0.02461  -0.00005  -0.00139  -0.00258  -0.00397  -0.02857
   D13        0.00315   0.00004   0.00006   0.00184   0.00190   0.00505
   D14       -3.13754   0.00005   0.00029   0.00248   0.00278  -3.13476
   D15       -3.11789   0.00004   0.00117   0.00195   0.00311  -3.11478
   D16        0.02460   0.00005   0.00139   0.00259   0.00398   0.02859
   D17       -1.56950   0.00000   0.00059   0.00040   0.00100  -1.56850
   D18        0.51900  -0.00007   0.00032  -0.00079  -0.00048   0.51852
   D19        2.62552   0.00008   0.00088   0.00165   0.00254   2.62806
   D20        1.55102   0.00000  -0.00054   0.00025  -0.00030   1.55072
   D21       -2.64367  -0.00008  -0.00082  -0.00095  -0.00178  -2.64544
   D22       -0.53715   0.00007  -0.00026   0.00149   0.00124  -0.53591
   D23       -0.00162  -0.00001  -0.00001  -0.00040  -0.00041  -0.00203
   D24       -3.13948  -0.00001   0.00015  -0.00040  -0.00025  -3.13973
   D25        3.13906  -0.00002  -0.00024  -0.00105  -0.00128   3.13778
   D26        0.00121  -0.00002  -0.00008  -0.00104  -0.00112   0.00008
   D27        0.00003  -0.00002  -0.00005  -0.00109  -0.00114  -0.00111
   D28       -3.13853  -0.00001   0.00008  -0.00047  -0.00040  -3.13893
   D29        3.13793  -0.00002  -0.00021  -0.00108  -0.00129   3.13663
   D30       -0.00064  -0.00001  -0.00008  -0.00047  -0.00055  -0.00119
         Item               Value     Threshold  Converged?
 Maximum Force            0.001526     0.000450     NO 
 RMS     Force            0.000411     0.000300     NO 
 Maximum Displacement     0.233670     0.001800     NO 
 RMS     Displacement     0.034178     0.001200     NO 
 Predicted change in Energy=-6.131067D-05
 GradGradGradGradGradGradGradGradGradGradGradGradGradGradGradGradGradGrad

                          Input orientation:                          
 ---------------------------------------------------------------------
 Center     Atomic      Atomic             Coordinates (Angstroms)
 Number     Number       Type             X           Y           Z
 ---------------------------------------------------------------------
      1          6           0       -0.418405   -1.119914    0.000735
      2          6           0        0.975928   -1.111685    0.005592
      3          6           0        1.697550    0.094535    0.010250
      4          6           0        0.973852    1.299607    0.003632
      5          6           0       -0.420428    1.305445   -0.001227
      6          6           0       -1.142697    0.092118   -0.002075
      7          1           0       -0.959382   -2.059896   -0.004562
      8          1           0        1.515129   -2.054602    0.004112
      9          1           0        1.511448    2.243444    0.000600
     10          1           0       -0.963027    2.244480   -0.008054
     11          6           0       -2.568752    0.090912   -0.010296
     12          6           0       -3.783059    0.089915   -0.016922
     13         35           0       -5.605906    0.108628    0.150744
     14          6           0        3.208320    0.096176    0.050246
     15          1           0        3.576112    0.106535    1.085831
     16          1           0        3.624294   -0.794558   -0.433365
     17          1           0        3.622746    0.978326   -0.450272
 ---------------------------------------------------------------------
                    Distance matrix (angstroms):
                    1          2          3          4          5
     1  C    0.000000
     2  C    1.394366   0.000000
     3  C    2.439722   1.405605   0.000000
     4  C    2.791500   2.411294   1.405696   0.000000
     5  C    2.425361   2.791482   2.439726   1.394300   0.000000
     6  C    1.411959   2.436754   2.840274   2.436768   1.412032
     7  H    1.084550   2.155141   3.420684   3.876044   3.408225
     8  H    2.147605   1.086201   2.156874   3.397602   3.877669
     9  H    3.877694   3.397602   2.156974   1.086208   2.147554
    10  H    3.408202   3.876026   3.420711   2.155092   1.084550
    11  C    2.467836   3.743160   4.266353   3.743151   2.467888
    12  C    3.575597   4.908392   5.480678   4.908358   3.575619
    13  Br   5.333103   6.695578   7.304820   6.688295   5.323969
    14  C    3.825502   2.538601   1.511301   2.538359   3.825283
    15  H    4.317149   3.067888   2.164721   3.060447   4.311776
    16  H    4.078936   2.703164   2.167862   3.406074   4.577830
    17  H    4.575688   3.403175   2.167844   2.706638   4.081164
                    6          7          8          9         10
     6  C    0.000000
     7  H    2.159809   0.000000
     8  H    3.416501   2.474532   0.000000
     9  H    3.416532   4.962233   4.298049   0.000000
    10  H    2.159856   4.304378   4.962208   2.474490   0.000000
    11  C    1.426080   2.686276   4.613190   4.613193   2.686301
    12  C    2.640405   3.548942   5.715785   5.715750   3.548917
    13  Br   4.465855   5.129990   7.443803   7.432140   5.113062
    14  C    4.351333   4.692696   2.737676   2.737262   4.692414
    15  H    4.842613   5.143256   3.176205   3.163376   5.135288
    16  H    4.867896   4.774415   2.495531   3.725843   5.519072
    17  H    4.867822   5.515917   3.721178   2.502277   4.777868
                   11         12         13         14         15
    11  C    0.000000
    12  C    1.214326   0.000000
    13  Br   3.041472   1.830637   0.000000
    14  C    5.777392   6.991705   8.814808   0.000000
    15  H    6.241882   7.441354   9.229510   1.099007   0.000000
    16  H    6.270316   7.471586   9.292659   1.095592   1.766988
    17  H    6.270226   7.471480   9.289005   1.095652   1.766863
                   16         17
    16  H    0.000000
    17  H    1.772965   0.000000
 Stoichiometry    C9H7Br
 Framework group  C1[X(C9H7Br)]
 Deg. of freedom    45
 Full point group                 C1      NOp   1
 Largest Abelian subgroup         C1      NOp   1
 Largest concise Abelian subgroup C1      NOp   1
                         Standard orientation:                         
 ---------------------------------------------------------------------
 Center     Atomic      Atomic             Coordinates (Angstroms)
 Number     Number       Type             X           Y           Z
 ---------------------------------------------------------------------
      1          6           0       -1.596550    1.215743   -0.033681
      2          6           0       -2.990608    1.204906   -0.006499
      3          6           0       -3.709796   -0.002661    0.010164
      4          6           0       -2.984036   -1.206379   -0.007588
      5          6           0       -1.590004   -1.209609   -0.034766
      6          6           0       -0.870121    0.005067   -0.047631
      7          1           0       -1.057493    2.156733   -0.047991
      8          1           0       -3.531534    2.146811    0.000300
      9          1           0       -3.519838   -2.151222   -0.001658
     10          1           0       -1.045821   -2.147629   -0.049926
     11          6           0        0.555615    0.008939   -0.078683
     12          6           0        1.769657    0.012206   -0.104749
     13         35           0        3.594986   -0.003027    0.033719
     14          6           0       -5.219727   -0.007114    0.074342
     15          1           0       -5.570874   -0.017741    1.115686
     16          1           0       -5.645062    0.882645   -0.402881
     17          1           0       -5.640456   -0.890240   -0.419146
 ---------------------------------------------------------------------
 Rotational constants (GHZ):      5.4676807      0.2598345      0.2485388
 Standard basis: 6-31G (6D, 7F)
 There are   119 symmetry adapted cartesian basis functions of A   symmetry.
 There are   119 symmetry adapted basis functions of A   symmetry.
   119 basis functions,   303 primitive gaussians,   119 cartesian basis functions
    48 alpha electrons       48 beta electrons
       nuclear repulsion energy       604.5765890467 Hartrees.
 NAtoms=   17 NActive=   17 NUniq=   17 SFac= 1.00D+00 NAtFMM=   60 NAOKFM=F Big=F
 Integral buffers will be    131072 words long.
 Raffenetti 2 integral format.
 Two-electron integral symmetry is turned on.
[...]
   D29        3.13668   0.00000   0.00000  -0.00001  -0.00001   3.13667
   D30       -0.00170   0.00000   0.00000   0.00002   0.00002  -0.00168
         Item               Value     Threshold  Converged?
 Maximum Force            0.000028     0.000450     YES
 RMS     Force            0.000005     0.000300     YES
 Maximum Displacement     0.013119     0.001800     NO 
 RMS     Displacement     0.002712     0.001200     NO 
 Predicted change in Energy=-2.182843D-08
 GradGradGradGradGradGradGradGradGradGradGradGradGradGradGradGradGradGrad

 1|1|UNPC-LAPTOP-H4OM2LBP|Freq|RB3LYP|6-31G|C9H7Br1|SREEKALA P NAIR|13-
 Sep-2023|0||#N Geom=AllCheck Guess=TCheck SCRF=Check GenChk RB3LYP/6-3
 1G Freq||Title Card Required||0,1|C,-0.4193527799,-1.1181400374,0.0184
 18629|C,0.9750912603,-1.1112044846,0.0109866425|C,1.6977284971,0.09453
 35746,0.0082124576|C,0.9751022151,1.3003618628,0.0070156567|C,-0.41927
 99124,1.3073826643,0.0144246863|C,-1.1406795643,0.0946225554,0.0210172
 093|H,-0.9616156658,-2.0575742893,0.0187741243|H,1.5134625943,-2.05468
 82178,0.0056187383|H,1.513525464,2.243803262,-0.001484011|H,-0.9615318
 61,2.2468241786,0.0116819743|C,-2.5674915297,0.094660046,0.0261622098|
 C,-3.7816105903,0.0945082232,0.0306038061|Br,-5.6131004405,0.094403770
 7,0.0375668266|C,3.2093019195,0.094827119,0.0340043132|H,3.5861313131,
 0.1047759667,1.0660205874|H,3.6190788921,-0.796179109,-0.4536237994|H,
 3.6189638284,0.9765483348,-0.4704304811||Version=EM64W-G09RevD.01|Stat
 e=1-A|HF=-2918.6085553|RMSD=2.185e-009|RMSF=7.139e-006|ZeroPoint=0.130
 8638|Thermal=0.1400339|Dipole=0.6606153,0.0005479,0.018592|DipoleDeriv
 =-0.0641116,0.0675127,0.0010612,0.0020897,0.0897535,0.004681,-0.006917
 8,0.0017178,-0.116664,-0.1796869,-0.1016698,-0.0002854,-0.2095639,0.08
 55504,-0.0027635,-0.0060128,-0.0023227,-0.1438224,0.3747736,0.0004447,
 0.0205091,0.0015795,-0.0533562,0.00011,0.1071095,0.0001594,0.0017542,-
 0.1795479,0.1016639,-0.0006197,0.2093467,0.085814,0.0020291,-0.0067282
 ,0.0015477,-0.1438591,-0.0647279,-0.0673952,0.001286,-0.0022917,0.0897
 067,-0.0053628,-0.0069121,-0.0024,-0.1167996,0.4073423,-0.0000135,-0.0
 044276,0.0006023,-0.0218426,0.0000665,-0.0063763,0.0000652,0.0188201,0
 .0332117,-0.0765322,0.0006192,-0.0738305,-0.0449586,0.0000508,0.004080
 1,-0.0017255,0.1273163,-0.01153,0.0920142,0.0028492,0.1004754,-0.06361
 28,-0.0005738,0.0050896,-0.0032266,0.1210517,-0.0113377,-0.0919299,0.0
 0314,-0.1004879,-0.0636442,0.0011802,0.0054412,0.0038594,0.120955,0.03
 32069,0.0765697,0.0003673,0.0738246,-0.0449644,0.0005171,0.0038339,0.0
 022924,0.1273191,-0.1850864,-0.0000085,0.001655,-0.0002396,-0.0161225,
 0.0001705,0.0014254,0.0001691,0.086561,0.3846969,0.0000569,-0.0023904,
 0.0000757,-0.214482,-0.0001012,-0.0022905,-0.0001009,-0.2756281,-0.378
 742,-0.0000345,0.0010243,-0.0000105,0.1110648,0.0000201,0.0020255,0.00
 00202,0.1232192,-0.0352529,-0.0002829,-0.0031527,-0.0030678,0.0994625,
 -0.0000494,-0.1482793,-0.0000942,0.087415,-0.0896442,-0.0004305,-0.059
 3912,-0.0006055,0.0908002,-0.0021085,-0.0932992,-0.0017949,-0.1054689,
 -0.0162508,0.0221327,0.0184864,0.102436,-0.0660932,-0.0862337,0.072986
 1,-0.0699371,0.045358,-0.017313,-0.0220978,0.0192693,-0.1003324,-0.063
 0756,0.0883675,0.0748247,0.0717707,0.0424725|Polar=200.8330275,0.02443
 1,85.3182349,0.2200478,-0.0778951,37.8008875|PG=C01 [X(C9H7Br1)]|NImag
 =0||0.71380740,0.04386316,0.71717307,-0.00255876,0.00032289,0.14000287
 ,-0.35270779,-0.03077522,0.00124443,0.71362986,0.02959902,-0.13178683,
 -0.00003521,-0.03610682,0.71915183,0.00097547,0.00044870,-0.06394903,-
 0.00227307,0.00167492,0.14036448,-0.03045353,-0.03272057,-0.00011577,-
 0.17453122,-0.11422055,0.00013585,0.65348409,-0.07503019,0.03266415,0.
 00028194,-0.04910129,-0.27199193,-0.00096234,0.00016403,0.67620801,0.0
 0035188,-0.00062065,0.00717288,-0.00004515,0.00027369,-0.07078881,0.00
 415789,-0.00081221,0.18025509,-0.04865685,0.02700312,0.00016372,0.0603
 6823,0.01930629,-0.00102085,-0.17441068,0.04903890,-0.00020420,0.71378
 698,0.02659482,-0.01666837,-0.00018545,-0.01933636,-0.05997775,0.00054
 352,0.11408744,-0.27187957,0.00038821,0.03614465,0.71896822,0.00072243
 ,-0.00040575,-0.00678175,-0.00095830,-0.00031407,0.01006836,-0.0002366
 6,0.00162420,-0.07083184,-0.00239870,-0.00358813,0.14037135,0.05821555
 ,-0.01815883,-0.00007165,-0.04867187,-0.02657692,0.00080945,-0.0304984
 9,0.07502852,0.00010207,-0.35287673,-0.02959342,0.00107385,0.71391099,
 0.01815178,-0.05833698,-0.00001000,-0.02700631,-0.01665747,0.00043791,
 0.03270052,0.03268938,0.00053538,0.03078488,-0.13179079,-0.00022549,-0
 .04391417,0.71708655,-0.00013193,0.00023695,0.01047981,0.00025322,0.00
 021818,-0.00678823,-0.00022334,-0.00036673,0.00716765,0.00114272,0.000
 25933,-0.06391126,-0.00241433,-0.00222465,0.13999945,-0.15955909,0.101
 44614,0.00029241,-0.03318307,0.02960011,0.00017388,0.00559671,0.000001
 73,0.00019326,-0.03319469,-0.02959336,0.00027175,-0.15953316,-0.101408
 33,0.00062610,0.69847907,0.05287152,-0.26736431,-0.00031157,0.06984204
 ,0.03075826,-0.00102074,0.00002443,-0.06770691,0.00010122,-0.06982477,
 0.03077722,0.00094326,-0.05283253,-0.26728065,0.00096237,-0.00003586,0
 .64143830,0.00012252,-0.00022972,-0.06953018,0.00031991,-0.00012571,0.
 00700144,-0.00038244,0.00009968,-0.00704028,0.00055023,0.00004692,0.00
 699500,0.00029613,0.00088091,-0.06952697,-0.00227296,-0.00077655,0.169
 72860,-0.13075845,-0.12422681,0.00018926,-0.01142148,-0.03008659,0.000
 01940,-0.00489176,0.00185053,-0.00008440,-0.00052338,0.00082770,0.0000
 0876,-0.00149261,0.00295868,0.00003028,0.00970928,0.01818599,0.0000114
 6,0.13747746,-0.12235995,-0.27402515,0.00002431,0.00449465,0.00400841,
 -0.00000732,0.00099026,0.00158766,0.00001857,0.00076409,0.00045776,-0.
 00002269,0.00401188,-0.00257289,-0.00001826,-0.01681362,-0.01960737,0.
 00001921,0.13031087,0.28939177,0.00023499,-0.00008662,-0.03848299,0.00
 003566,0.00004883,0.00374229,0.00022393,0.00013051,0.00766047,0.000057
 32,-0.00002144,-0.00034524,-0.00002561,-0.00003540,0.00593871,-0.00007
 196,0.00000609,0.00415251,-0.00022445,-0.00002427,0.02622461,-0.012645
 71,0.03076409,0.00000852,-0.12791263,0.11979970,0.00103912,0.00954586,
 -0.01652285,0.00002301,-0.00130104,-0.00329980,0.00006097,-0.00050228,
 -0.00074652,-0.00000384,-0.00457512,-0.00178423,0.00004851,0.00056124,
 -0.00045599,-0.00002927,0.13598846,-0.00417482,0.00333237,0.00006694,0
 .11936897,-0.27034097,-0.00129111,0.01735302,-0.02066579,-0.00017408,-
 0.00395004,-0.00259912,-0.00006254,-0.00099452,0.00028996,-0.00000674,
 -0.00110830,0.00186499,-0.00004070,0.00042097,0.00096732,0.00002918,-0
 .12741681,0.28696925,0.00001250,-0.00017518,0.00326455,0.00085001,-0.0
 0156969,-0.03854610,0.00056763,-0.00000537,0.00415873,-0.00004633,0.00
 018276,0.00623408,0.00003955,0.00001594,-0.00032819,0.00007671,-0.0000
 0516,0.00756743,-0.00001004,0.00001077,-0.00427242,-0.00105863,0.00145
 760,0.02641336,-0.00050207,0.00074693,-0.00000634,-0.00130410,0.003298
 72,0.00005025,0.00957878,0.01653194,-0.00003039,-0.12793282,-0.1197722
 8,0.00143728,-0.01264722,-0.03076915,0.00011040,-0.00457577,0.00178516
 ,0.00004272,0.00007585,-0.00011038,-0.00000072,0.00056009,0.00074545,-
 0.00004603,0.13597631,0.00099262,0.00029077,0.00000484,0.00395040,-0.0
 0259657,0.00009182,-0.01735786,-0.02066334,0.00025536,-0.11936562,-0.2
 7030426,0.00205978,0.00417714,0.00333214,-0.00006728,0.00110803,0.0018
 6368,0.00005975,-0.00013057,-0.00003563,-0.00001739,-0.00074431,-0.001
 13675,-0.00001793,0.12741176,0.28693447,0.00003650,-0.00001802,-0.0003
 2761,-0.00005937,-0.00015369,0.00623719,0.00062603,0.00008779,0.004152
 55,0.00124784,0.00233931,-0.03857039,-0.00000186,0.00017478,0.00326881
 ,0.00007286,0.00002428,0.00757352,-0.00000263,0.00000706,-0.00123925,-
 0.00004357,0.00002258,0.00026774,-0.00148382,-0.00232068,0.02642309,-0
 .00149298,-0.00295856,0.00003994,-0.00052381,-0.00082762,0.00001150,-0
 .00489128,-0.00185276,-0.00007796,-0.01142373,0.03008732,-0.00008012,-
 0.13075219,0.12421718,-0.00022025,0.00970897,-0.01818676,0.00007135,0.
 00055515,-0.00078469,-0.00000791,0.00007547,0.00013055,-0.00000305,0.0
 0056205,-0.00042058,-0.00000863,0.13747352,-0.00401203,-0.00257246,0.0
 0004629,-0.00076404,0.00045826,0.00002004,-0.00098967,0.00158586,0.000
 00149,-0.00449404,0.00400734,0.00000651,0.12235370,-0.27402037,0.00075
 234,0.01681218,-0.01960620,0.00005913,0.00078456,-0.00100874,-0.000006
 32,0.00011040,-0.00003558,-0.00001102,0.00045596,0.00096772,-0.0000280
 9,-0.13030399,0.28938623,-0.00001240,0.00006335,0.00593411,0.00005977,
 0.00001895,-0.00034452,0.00022721,-0.00011029,0.00767264,0.00005066,-0
 .00004948,0.00374086,-0.00016855,0.00086341,-0.03848920,-0.00012737,0.
 00007215,0.00414920,-0.00001050,0.00001117,0.00046762,-0.00000108,0.00
 001335,-0.00123799,-0.00003096,-0.00004651,-0.00427612,0.00020528,-0.0
 0084348,0.02623043,-0.04235639,0.01573332,0.00017088,0.00656526,0.0042
 8701,-0.00002159,-0.00358501,0.00000372,0.00008373,0.00656546,-0.00428
 834,-0.00000766,-0.04234888,-0.01572537,0.00022262,-0.30931826,0.00000
 942,0.00081486,0.00137746,-0.00109326,-0.00001885,-0.00045633,0.000014
 24,-0.00000037,-0.00045633,-0.00001449,-0.00000036,0.00137725,0.001092
 73,-0.00002242,1.44479086,0.03332308,0.00381551,-0.00013965,0.00172153
 ,-0.00445602,0.00003282,0.00000055,-0.00127074,0.00000050,-0.00172226,
 -0.00445690,0.00000744,-0.03331729,0.00381825,0.00014385,-0.00000582,-
 0.08126863,-0.00001159,0.00046200,0.00073437,0.00001093,0.00137483,0.0
 0016393,-0.00002019,-0.00137500,0.00016377,0.00002082,-0.00046133,0.00
 073421,-0.00002733,0.00009607,0.13192474,0.00020259,-0.00017368,0.0051
 1958,-0.00004208,-0.00005772,0.00780397,0.00014449,0.00000060,-0.00097
 837,-0.00003620,0.00009799,0.00779851,0.00031206,0.00017785,0.00510969
 ,0.00079119,-0.00001163,-0.08837724,-0.00002017,0.00001250,-0.00424198
 ,0.00004044,-0.00000894,0.00035550,0.00004499,0.00000958,0.00035415,-0
 .00001861,-0.00002890,-0.00423831,-0.00480842,0.00003771,0.15506944,0.
 00614523,-0.00858982,-0.00002965,-0.00241815,-0.00008365,0.00002082,0.
 00223491,-0.00000240,-0.00008272,-0.00241931,0.00008425,0.00002061,0.0
 0614177,0.00858762,-0.00005791,-0.02288305,-0.00001027,0.00020716,-0.0
 0013110,0.00096644,-0.00000216,-0.00025312,-0.00008749,0.00000609,-0.0
 0025337,0.00008757,0.00000581,-0.00013130,-0.00096632,0.00000101,-1.06
 012198,-0.00009569,0.00355836,1.32354585,0.00064150,-0.00106076,0.0000
 0469,-0.00037494,-0.00002225,-0.00000572,0.00000021,0.00069505,-0.0000
 0106,0.00037413,-0.00002147,0.00000323,-0.00064216,-0.00105942,-0.0000
 0033,0.00000602,0.01209482,0.00002629,-0.00002917,0.00012950,-0.000000
 98,-0.00010645,-0.00011619,0.00000522,0.00010645,-0.00011611,-0.000005
 19,0.00002899,0.00012944,0.00000167,-0.00010650,-0.06254589,-0.0000603
 2,0.00011685,0.07804335,-0.00001862,0.00003811,0.00025233,0.00000101,0
 .00000497,-0.00078911,-0.00001424,-0.00000104,0.00006377,-0.00000024,-
 0.00000751,-0.00078962,-0.00001646,-0.00003375,0.00025611,0.00018193,0
 .00002637,0.02809988,0.00000171,-0.00000400,0.00033940,-0.00000222,0.0
 0000028,-0.00010469,-0.00000257,-0.00000025,-0.00010459,0.00000161,0.0
 0000470,0.00033920,0.00356753,-0.00006036,-0.09944859,-0.00452583,0.00
 003481,0.09948176,-0.00142133,-0.00000861,-0.00000641,0.00013893,-0.00
 005138,-0.00000554,-0.00011506,0.00000234,0.00013325,0.00013890,0.0000
 5097,-0.00000574,-0.00142127,0.00000917,-0.00000645,0.00466389,0.00000
 062,-0.00002420,0.00009277,-0.00000747,0.00000764,-0.00017349,0.000086
 82,0.00000404,-0.00017333,-0.00008683,0.00000434,0.00009274,0.00000734
 ,0.00000762,-0.00278039,-0.00000066,0.00007583,-0.24918883,-0.00001534
 ,0.00081176,0.25043839,-0.00075434,-0.00020624,0.00000113,-0.00003093,
 0.00019595,0.00000134,-0.00000007,0.00000976,0.00000009,0.00003106,0.0
 0019578,-0.00000267,0.00075451,-0.00020654,-0.00000021,-0.00000038,0.0
 0274359,-0.00000450,-0.00000612,-0.00003192,-0.00000036,-0.00004961,0.
 00000455,-0.00000011,0.00004959,0.00000453,0.00000004,0.00000612,-0.00
 003201,0.00000083,-0.00000683,0.01235552,0.00000725,-0.00000813,-0.026
 19410,-0.00000243,0.00001520,0.01118770,0.00000210,0.00000631,0.000074
 84,0.00000368,0.00000196,-0.00020577,-0.00000630,0.00000007,0.00005931
 ,0.00000357,-0.00000327,-0.00020535,-0.00000038,-0.00000538,0.00007458
 ,-0.00001725,-0.00000451,0.00000814,0.00000035,-0.00000039,0.00011008,
 -0.00000120,0.00000034,-0.00001777,-0.00000137,-0.00000041,-0.00001776
 ,0.00000033,0.00000086,0.00010996,0.00005508,0.00000723,0.01674927,0.0
 0083169,-0.00000240,-0.02769946,-0.00088349,-0.00000049,0.01093245,0.0
 0293189,-0.00119092,0.00048524,-0.02365289,-0.00313984,-0.00041050,-0.
 20929813,-0.00007564,-0.00234005,-0.02373608,0.00317435,-0.00042263,0.
 00300050,0.00122585,0.00048196,-0.00157267,-0.00003449,0.00012448,-0.0
 0010337,0.00017547,-0.00011554,0.00115625,0.00133839,-0.00047884,0.001
 14280,-0.00132629,-0.00047607,-0.00010325,-0.00017526,-0.00011489,0.00
 092606,0.00000031,-0.00019040,-0.00044853,0.00000026,0.00000789,0.0000
 3366,-0.00000002,0.00001058,0.48797499,-0.00149057,-0.00471876,-0.0009
 8489,-0.03175999,0.00250853,-0.00171260,0.00010127,-0.09227026,0.00003
 784,0.03178887,0.00255790,0.00172103,0.00154845,-0.00474611,0.00102300
 ,-0.00002906,-0.00034022,-0.00000024,-0.00131061,0.00000767,0.00006162
 ,-0.00110353,0.00069240,0.00089104,0.00107572,0.00071088,-0.00090471,0
 .00131713,0.00000806,-0.00006201,0.00000940,0.00019775,-0.00000220,-0.
 00000296,0.00005748,0.00000007,-0.00000361,-0.00002065,0.00000011,-0.0
 0025964,0.58951589,0.00126598,0.00043749,0.00668135,0.00034317,-0.0003
 0361,0.00521674,0.00209598,0.00002810,-0.07415502,0.00023113,0.0003142
 1,0.00513847,0.00126679,-0.00039687,0.00662201,-0.00089443,-0.00000382
 ,-0.00076479,0.00015463,-0.00001083,0.00002067,-0.00031134,-0.00063127
 ,-0.00353477,-0.00031422,0.00061862,-0.00348554,0.00015011,0.00001083,
 0.00002160,0.00037087,-0.00000190,-0.00103860,-0.00009388,0.00000004,0
 .00009727,-0.00016170,0.00000007,0.00002833,-0.01093526,-0.00009688,0.
 54002191,-0.00041760,0.00023805,0.00152071,-0.00022755,0.00143639,0.00
 051284,-0.01780651,-0.00033441,-0.03260134,-0.00016755,-0.00142052,0.0
 0053726,-0.00040698,-0.00024323,0.00151342,0.00002679,-0.00000341,-0.0
 0021908,-0.00011605,-0.00005609,-0.00003580,0.00007406,-0.00035033,-0.
 00070673,0.00007629,0.00035877,-0.00070889,-0.00011184,0.00005627,-0.0
 0003766,-0.00016887,0.00000047,-0.00019081,0.00012044,0.00000018,0.000
 03136,-0.00017826,-0.00000007,0.00000174,-0.07276883,-0.00073676,-0.08
 099348,0.08406327,0.00101301,-0.00055332,0.00036773,-0.00170509,-0.000
 19695,0.00061032,-0.00003360,0.00074752,0.00000358,0.00172160,-0.00020
 199,-0.00060172,-0.00103812,-0.00055495,-0.00035087,0.00000969,0.00103
 410,-0.00000110,-0.00002135,-0.00001550,-0.00005501,-0.00006848,-0.000
 16894,-0.00031195,0.00006978,-0.00017999,0.00029614,0.00001941,-0.0000
 1494,0.00005359,-0.00000513,-0.00000781,-0.00000295,0.00000198,-0.0000
 1129,0.00000026,0.,0.00000104,0.00000010,-0.00069055,-0.04751110,-0.00
 219639,0.00083813,0.04760976,-0.00050043,0.00000799,0.00007145,0.00030
 590,0.00061056,0.00023947,-0.00028454,0.00001627,0.00331801,0.00030219
 ,-0.00061032,0.00027948,-0.00050718,-0.00000375,0.00008309,0.00044186,
 0.00000233,-0.00003945,-0.00004014,-0.00000370,0.00002175,-0.00005485,
 0.00008602,-0.00027002,-0.00005938,-0.00007684,-0.00028075,-0.00004103
 ,0.00000400,0.00002056,-0.00025771,0.00000049,-0.00006090,0.00012443,0
 .00000003,0.00000789,-0.00003817,-0.00000004,0.00000058,-0.07726542,-0
 .00220091,-0.27436568,0.08790381,0.00245154,0.30138333,0.00000861,0.00
 013873,-0.00044511,0.00133556,0.00176942,-0.00057910,-0.01494844,0.030
 03786,0.01494834,-0.00554544,-0.00199480,0.00056032,-0.00012478,0.0013
 2401,-0.00086235,0.00010668,-0.00016656,0.00014325,0.00001747,-0.00002
 438,0.00002195,-0.00021035,-0.00137613,0.00048862,0.00006936,-0.000000
 80,0.00029610,-0.00043172,0.00000705,-0.00004844,-0.00000378,-0.000091
 39,0.00006733,0.00002964,-0.00000997,-0.00001208,-0.00007285,0.0000068
 9,0.00000042,-0.08279458,0.07470863,0.04319983,0.00400385,-0.00903377,
 -0.00492881,0.09417379,0.00063278,0.00010698,0.00050797,-0.00206630,0.
 00050534,0.00058403,-0.00129508,0.00014437,0.00128481,0.00033179,0.000
 44666,-0.00055479,-0.00015369,-0.00008638,-0.00004577,-0.00024264,0.00
 029786,0.00006251,0.00006613,0.00001261,-0.00003950,0.00005217,0.00028
 511,-0.00051735,-0.00019967,0.00049120,-0.00006351,0.00005543,0.000000
 68,0.00000092,0.00010943,0.00004898,-0.00012429,-0.00004926,-0.0000009
 9,0.00000953,0.00004284,-0.00000350,0.00000441,0.07712707,-0.22519661,
 -0.09569226,0.00025064,-0.00024288,0.00108956,-0.08492370,0.24440661,0
 .00016728,0.00003467,-0.00004788,-0.00002789,-0.00026663,0.00032376,-0
 .00343874,0.00213854,0.00101101,-0.00000845,0.00001930,0.00045374,-0.0
 0086877,-0.00011358,0.00008425,0.00013256,0.00047408,0.00000103,0.0000
 1384,-0.00000119,-0.00002601,0.00030008,0.00044309,0.00006015,-0.00001
 272,-0.00010160,-0.00001973,-0.00003746,0.00001053,-0.00007439,-0.0000
 7501,0.00001410,0.00001200,0.00000866,-0.00000280,-0.00000080,0.000043
 20,-0.00000087,-0.00000070,0.04510589,-0.09610362,-0.10145279,0.011743
 12,-0.02825012,-0.01493286,-0.04670737,0.10732776,0.10704904,-0.000136
 89,-0.00130420,-0.00088142,-0.00548328,0.00199671,0.00056207,-0.015010
 23,-0.02974004,0.01547278,0.00132873,-0.00175263,-0.00058342,0.0000076
 5,-0.00014661,-0.00046031,0.00010348,0.00015969,0.00014610,-0.00042848
 ,-0.00000783,-0.00004922,0.00006864,0.00000003,0.00030487,-0.00019651,
 0.00136106,0.00049572,0.00001694,0.00002515,0.00002273,-0.00000611,0.0
 0009061,0.00006939,0.00003091,0.00000994,-0.00001252,-0.00007448,-0.00
 000684,0.00000044,-0.08268781,-0.07385274,0.04462582,0.00400532,0.0089
 2250,-0.00510051,0.00438698,0.01026206,-0.00633823,0.09407514,0.000138
 62,-0.00008967,0.00003804,-0.00035031,0.00044014,0.00055443,0.00119567
 ,0.00011677,-0.00129274,0.00206734,0.00048933,-0.00058759,-0.00065254,
 0.00009627,-0.00051517,0.00025348,0.00030147,-0.00006428,-0.00005624,0
 .00000012,0.00000012,0.00019738,0.00049345,0.00007064,-0.00005098,0.00
 027348,0.00052108,-0.00006584,0.00001249,0.00003970,-0.00011541,0.0000
 4895,0.00012716,0.00005128,-0.00000119,-0.00000976,-0.00004140,-0.0000
 0346,-0.00000452,-0.07614902,-0.22145284,0.09792446,-0.00003407,0.0002
 6722,-0.00137320,-0.01037109,-0.02121604,0.01437835,0.08398313,0.24022
 349,-0.00087210,0.00011316,0.00006567,-0.00001089,-0.00002570,0.000413
 87,-0.00347699,-0.00214973,0.00110222,-0.00003441,0.00027406,0.0003556
 0,0.00017488,-0.00003731,-0.00004031,0.00012946,-0.00047817,0.00000216
 ,-0.00003733,-0.00001093,-0.00007023,-0.00001465,0.00009601,-0.0000095
 9,0.00030288,-0.00045086,0.00004471,0.00001491,0.00000109,-0.00002565,
 -0.00007319,-0.00001485,0.00001190,0.00000751,0.00000283,-0.00000074,0
 .00004404,0.00000092,-0.00000074,0.04653357,0.09833337,-0.10505118,0.0
 1172950,0.02798685,-0.01547595,-0.00614288,-0.01383404,0.00756018,-0.0
 4827430,-0.10980670,0.11111807||0.00000240,-0.00000143,0.00000027,0.00
 000435,0.00000402,0.00000053,0.00000545,-0.00000477,-0.00000307,0.0000
 0065,-0.00000345,0.00000276,0.00000196,-0.00000396,0.00000013,-0.00003
 335,0.00000294,-0.00000874,-0.00000074,0.00000192,-0.00000009,0.000000
 99,-0.00000085,-0.00000006,0.00000016,0.00000097,-0.00000026,-0.000002
 01,-0.00000022,-0.00000023,0.00001557,0.00001235,0.00001673,0.00001756
 ,-0.00001086,-0.00000899,-0.00000472,0.00000205,0.00000129,-0.00000437
 ,-0.00000112,0.00000125,-0.00000091,0.00000153,-0.00000172,-0.00000184
 ,0.00000136,0.00000091,-0.00000115,-0.00000050,-0.00000069|||@


 THE ... SCIENTISTS WERE WRONG ... THE MOST PERSISTENT PRINCIPLES 
 OF THE UNIVERSE WERE ACCIDENT AND ERROR.

                          -- FRANK HERBERT IN DUNE
 Job cpu time:       0 days  0 hours  5 minutes 40.0 seconds.
 File lengths (MBytes):  RWF=     41 Int=      0 D2E=      0 Chk=      2 Scr=      1
 Normal termination of Gaussian 09 at Wed Sep 13 20:23:51 2023.
