 Entering Link 1 = C:\G09W\l1.exe PID=      8164.
  
 Copyright (c) 1988,1990,1992,1993,1995,1998,2003,2009,2013,
            Gaussian, Inc.  All Rights Reserved.
  
 This is part of the Gaussian(R) 09 program.  It is based on
 the Gaussian(R) 03 system (copyright 2003, Gaussian, Inc.),
 the Gaussian(R) 98 system (copyright 1998, Gaussian, Inc.),
 the Gaussian(R) 94 system (copyright 1995, Gaussian, Inc.),
 the Gaussian 92(TM) system (copyright 1992, Gaussian, Inc.),
 the Gaussian 90(TM) system (copyright 1990, Gaussian, Inc.),
 the Gaussian 88(TM) system (copyright 1988, Gaussian, Inc.),
 the Gaussian 86(TM) system (copyright 1986, Carnegie Mellon
 University), and the Gaussian 82(TM) system (copyright 1983,
 Carnegie Mellon University). Gaussian is a federally registered
 trademark of Gaussian, Inc.
  
 This software contains proprietary and confidential information,
 including trade secrets, belonging to Gaussian, Inc.
  
 This software is provided under written license and may be
 used, copied, transmitted, or stored only in accord with that
 written license.
  
 The following legend is applicable only to US Government
 contracts under FAR:
  
                    RESTRICTED RIGHTS LEGEND
  
 Use, reproduction and disclosure by the US Government is
 subject to restrictions as set forth in subparagraphs (a)
 and (c) of the Commercial Computer Software - Restricted
 Rights clause in FAR 52.227-19.
  
 Gaussian, Inc.
 340 Quinnipiac St., Bldg. 40, Wallingford CT 06492
  
  
 ---------------------------------------------------------------
 Warning -- This program may not be used in any manner that
 competes with the business of Gaussian, Inc. or will provide
 assistance to any competitor of Gaussian, Inc.  The licensee
 of this program is prohibited from giving any competitor of
 Gaussian, Inc. access to this program.  By using this program,
 the user acknowledges that Gaussian, Inc. is engaged in the
 business of creating and licensing software in the field of
 computational chemistry and represents and warrants to the
 licensee that it is not a competitor of Gaussian, Inc. and that
 it will not use this program in any manner prohibited above.
 ---------------------------------------------------------------
  

 Cite this work as:
 Gaussian 09, Revision D.01,
 M. J. Frisch, G. W. Trucks, H. B. Schlegel, G. E. Scuseria, 
 M. A. Robb, J. R. Cheeseman, G. Scalmani, V. Barone, B. Mennucci, 
 G. A. Petersson, H. Nakatsuji, M. Caricato, X. Li, H. P. Hratchian, 
 A. F. Izmaylov, J. Bloino, G. Zheng, J. L. Sonnenberg, M. Hada, 
 M. Ehara, K. Toyota, R. Fukuda, J. Hasegawa, M. Ishida, T. Nakajima, 
 Y. Honda, O. Kitao, H. Nakai, T. Vreven, J. A. Montgomery, Jr., 
 J. E. Peralta, F. Ogliaro, M. Bearpark, J. J. Heyd, E. Brothers, 
 K. N. Kudin, V. N. Staroverov, T. Keith, R. Kobayashi, J. Normand, 
 K. Raghavachari, A. Rendell, J. C. Burant, S. S. Iyengar, J. Tomasi, 
 M. Cossi, N. Rega, J. M. Millam, M. Klene, J. E. Knox, J. B. Cross, 
 V. Bakken, C. Adamo, J. Jaramillo, R. Gomperts, R. E. Stratmann, 
 O. Yazyev, A. J. Austin, R. Cammi, C. Pomelli, J. W. Ochterski, 
 R. L. Martin, K. Morokuma, V. G. Zakrzewski, G. A. Voth, 
 P. Salvador, J. J. Dannenberg, S. Dapprich, A. D. Daniels, 
 O. Farkas, J. B. Foresman, J. V. Ortiz, J. Cioslowski, 
 and D. J. Fox, Gaussian, Inc., Wallingford CT, 2013.
 
 ******************************************
 Gaussian 09:  EM64W-G09RevD.01 13-Apr-2013
                25-Aug-2023 
 ******************************************
 %nprocshared=2
 Will use up to    2 processors via shared memory.
 %mem=4GB
 %chk=C:\Users\123\Desktop\ML project\molecule_7.chk
 --------------------------------------------------------------------
 # opt freq b3lyp/6-31+g(d) geom=connectivity empiricaldispersion=gd3
 --------------------------------------------------------------------
 1/14=-1,18=20,19=15,26=3,38=1,57=2/1,3;
 2/9=110,12=2,17=6,18=5,40=1/2;
 3/5=1,6=6,7=11,11=2,16=1,25=1,30=1,71=1,74=-5,124=31/1,2,3;
 4//1;
 5/5=2,38=5/2;
 6/7=2,8=2,9=2,10=2,28=1/1;
 7//1,2,3,16;
 1/14=-1,18=20,19=15,26=3/3(2);
 2/9=110/2;
 99//99;
 2/9=110/2;
 3/5=1,6=6,7=11,11=2,16=1,25=1,30=1,71=1,74=-5,124=31/1,2,3;
 4/5=5,16=3,69=1/1;
 5/5=2,38=5/2;
 7//1,2,3,16;
 1/14=-1,18=20,19=15,26=3/3(-5);
 2/9=110/2;
 6/7=2,8=2,9=2,10=2,19=2,28=1/1;
 99/9=1/99;
 -------------------
 Title Card Required
 -------------------
 Symbolic Z-matrix:
 Charge =  0 Multiplicity = 1
 C                    -8.49638  -0.50725   0. 
 C                    -7.10122  -0.50725   0. 
 C                    -6.40368   0.7005    0. 
 C                    -7.10133   1.90901  -0.0012 
 C                    -8.49616   1.90894  -0.00168 
 C                    -9.19376   0.70073  -0.00068 
 H                    -9.04614  -1.45956   0.00045 
 H                    -6.55171  -1.45976   0.00132 
 H                    -6.55113   2.86116  -0.00126 
 H                    -9.04628   2.86122  -0.00263 
 H                    -10.29336   0.70091  -0.00086 
 B                    -4.75368   0.70062   0.00095 
 O                    -3.98368   2.02387  -0.16557 
 H                    -3.0398    1.84913  -0.15317 
 O                    -3.98368  -0.62251   0.16836 
 H                    -3.0409   -0.44345   0.19512 
 

 GradGradGradGradGradGradGradGradGradGradGradGradGradGradGradGradGradGrad
 Berny optimization.
 Initialization pass.
                           ----------------------------
                           !    Initial Parameters    !
                           ! (Angstroms and Degrees)  !
 --------------------------                            --------------------------
 ! Name  Definition              Value          Derivative Info.                !
 --------------------------------------------------------------------------------
 ! R1    R(1,2)                  1.3952         estimate D2E/DX2                !
 ! R2    R(1,6)                  1.3948         estimate D2E/DX2                !
 ! R3    R(1,7)                  1.0996         estimate D2E/DX2                !
 ! R4    R(2,3)                  1.3947         estimate D2E/DX2                !
 ! R5    R(2,8)                  1.0997         estimate D2E/DX2                !
 ! R6    R(3,4)                  1.3954         estimate D2E/DX2                !
 ! R7    R(3,12)                 1.65           estimate D2E/DX2                !
 ! R8    R(4,5)                  1.3948         estimate D2E/DX2                !
 ! R9    R(4,9)                  1.0997         estimate D2E/DX2                !
 ! R10   R(5,6)                  1.3951         estimate D2E/DX2                !
 ! R11   R(5,10)                 1.0998         estimate D2E/DX2                !
 ! R12   R(6,11)                 1.0996         estimate D2E/DX2                !
 ! R13   R(12,13)                1.54           estimate D2E/DX2                !
 ! R14   R(12,15)                1.54           estimate D2E/DX2                !
 ! R15   R(13,14)                0.96           estimate D2E/DX2                !
 ! R16   R(15,16)                0.96           estimate D2E/DX2                !
 ! A1    A(2,1,6)              119.9985         estimate D2E/DX2                !
 ! A2    A(2,1,7)              119.9972         estimate D2E/DX2                !
 ! A3    A(6,1,7)              120.0043         estimate D2E/DX2                !
 ! A4    A(1,2,3)              120.0086         estimate D2E/DX2                !
 ! A5    A(1,2,8)              119.9808         estimate D2E/DX2                !
 ! A6    A(3,2,8)              120.0106         estimate D2E/DX2                !
 ! A7    A(2,3,4)              119.9942         estimate D2E/DX2                !
 ! A8    A(2,3,12)             120.0128         estimate D2E/DX2                !
 ! A9    A(4,3,12)             119.993          estimate D2E/DX2                !
 ! A10   A(3,4,5)              119.994          estimate D2E/DX2                !
 ! A11   A(3,4,9)              119.9811         estimate D2E/DX2                !
 ! A12   A(5,4,9)              120.0249         estimate D2E/DX2                !
 ! A13   A(4,5,6)              120.0047         estimate D2E/DX2                !
 ! A14   A(4,5,10)             120.0113         estimate D2E/DX2                !
 ! A15   A(6,5,10)             119.984          estimate D2E/DX2                !
 ! A16   A(1,6,5)              120.0            estimate D2E/DX2                !
 ! A17   A(1,6,11)             120.008          estimate D2E/DX2                !
 ! A18   A(5,6,11)             119.992          estimate D2E/DX2                !
 ! A19   A(3,12,13)            120.0            estimate D2E/DX2                !
 ! A20   A(3,12,15)            120.0            estimate D2E/DX2                !
 ! A21   A(13,12,15)           120.0            estimate D2E/DX2                !
 ! A22   A(12,13,14)           109.5            estimate D2E/DX2                !
 ! A23   A(12,15,16)           109.5            estimate D2E/DX2                !
 ! D1    D(6,1,2,3)              0.0323         estimate D2E/DX2                !
 ! D2    D(6,1,2,8)            179.9532         estimate D2E/DX2                !
 ! D3    D(7,1,2,3)           -179.9729         estimate D2E/DX2                !
 ! D4    D(7,1,2,8)             -0.052          estimate D2E/DX2                !
 ! D5    D(2,1,6,5)              0.0149         estimate D2E/DX2                !
 ! D6    D(2,1,6,11)           179.9892         estimate D2E/DX2                !
 ! D7    D(7,1,6,5)           -179.9798         estimate D2E/DX2                !
 ! D8    D(7,1,6,11)            -0.0056         estimate D2E/DX2                !
 ! D9    D(1,2,3,4)             -0.0568         estimate D2E/DX2                !
 ! D10   D(1,2,3,12)           179.9619         estimate D2E/DX2                !
 ! D11   D(8,2,3,4)           -179.9777         estimate D2E/DX2                !
 ! D12   D(8,2,3,12)             0.041          estimate D2E/DX2                !
 ! D13   D(2,3,4,5)              0.0341         estimate D2E/DX2                !
 ! D14   D(2,3,4,9)           -179.9964         estimate D2E/DX2                !
 ! D15   D(12,3,4,5)          -179.9846         estimate D2E/DX2                !
 ! D16   D(12,3,4,9)            -0.0151         estimate D2E/DX2                !
 ! D17   D(2,3,12,13)          172.8272         estimate D2E/DX2                !
 ! D18   D(2,3,12,15)           -7.1727         estimate D2E/DX2                !
 ! D19   D(4,3,12,13)           -7.1541         estimate D2E/DX2                !
 ! D20   D(4,3,12,15)          172.846          estimate D2E/DX2                !
 ! D21   D(3,4,5,6)              0.0131         estimate D2E/DX2                !
 ! D22   D(3,4,5,10)          -179.9995         estimate D2E/DX2                !
 ! D23   D(9,4,5,6)           -179.9563         estimate D2E/DX2                !
 ! D24   D(9,4,5,10)             0.0311         estimate D2E/DX2                !
 ! D25   D(4,5,6,1)             -0.0376         estimate D2E/DX2                !
 ! D26   D(4,5,6,11)           179.9881         estimate D2E/DX2                !
 ! D27   D(10,5,6,1)           179.975          estimate D2E/DX2                !
 ! D28   D(10,5,6,11)            0.0007         estimate D2E/DX2                !
 ! D29   D(3,12,13,14)        -179.3594         estimate D2E/DX2                !
 ! D30   D(15,12,13,14)          0.6405         estimate D2E/DX2                !
 ! D31   D(3,12,15,16)        -176.933          estimate D2E/DX2                !
 ! D32   D(13,12,15,16)          3.0671         estimate D2E/DX2                !
 --------------------------------------------------------------------------------
 Trust Radius=3.00D-01 FncErr=1.00D-07 GrdErr=1.00D-06
 Number of steps in this run=     81 maximum allowed number of steps=    100.
 GradGradGradGradGradGradGradGradGradGradGradGradGradGradGradGradGradGrad

                          Input orientation:                          
 ---------------------------------------------------------------------
 Center     Atomic      Atomic             Coordinates (Angstroms)
 Number     Number       Type             X           Y           Z
 ---------------------------------------------------------------------
      1          6           0       -8.496376   -0.507246    0.000000
      2          6           0       -7.101216   -0.507246    0.000000
      3          6           0       -6.403678    0.700505    0.000000
      4          6           0       -7.101332    1.909014   -0.001199
      5          6           0       -8.496157    1.908936   -0.001678
      6          6           0       -9.193758    0.700730   -0.000682
      7          1           0       -9.046135   -1.459563    0.000450
      8          1           0       -6.551708   -1.459759    0.001315
      9          1           0       -6.551132    2.861157   -0.001258
     10          1           0       -9.046279    2.861217   -0.002631
     11          1           0      -10.293362    0.700913   -0.000862
     12          5           0       -4.753679    0.700625    0.000951
     13          8           0       -3.983679    2.023867   -0.165571
     14          1           0       -3.039797    1.849127   -0.153167
     15          8           0       -3.983679   -0.622506    0.168360
     16          1           0       -3.040905   -0.443449    0.195120
 ---------------------------------------------------------------------
                    Distance matrix (angstroms):
                    1          2          3          4          5
     1  C    0.000000
     2  C    1.395160   0.000000
     3  C    2.416205   1.394712   0.000000
     4  C    2.790065   2.416260   1.395427   0.000000
     5  C    2.416183   2.789946   2.416356   1.394825   0.000000
     6  C    1.394829   2.416183   2.790080   2.416236   1.395138
     7  H    1.099610   2.165553   3.412986   3.889675   3.413102
     8  H    2.165414   1.099655   2.165330   3.413316   3.889601
     9  H    3.889745   3.413024   2.165678   1.099680   2.165606
    10  H    3.413055   3.889707   3.413506   2.165528   1.099761
    11  H    2.165365   3.413128   3.889684   3.412999   2.165471
    12  B    3.932778   2.640054   1.650000   2.640395   3.932705
    13  O    5.176716   4.019078   2.763168   3.124096   4.516916
    14  H    5.945604   4.697987   3.557877   4.064818   5.458790
    15  O    4.517308   3.124207   2.763168   4.019590   5.176830
    16  H    5.459332   4.065498   3.557379   4.696775   5.944091
                    6          7          8          9         10
     6  C    0.000000
     7  H    2.165331   0.000000
     8  H    3.412938   2.494427   0.000000
     9  H    3.413344   4.989355   4.320917   0.000000
    10  H    2.165516   4.320781   4.989362   2.495147   0.000000
    11  H    1.099604   2.494641   4.320704   4.320988   2.494420
    12  B    4.440080   4.805372   2.810724   2.810470   4.805683
    13  O    5.377993   6.147383   4.331083   2.705526   5.133968
    14  H    6.262053   6.859091   4.827641   3.657424   6.093013
    15  O    5.378146   5.133939   2.706229   4.330877   6.147803
    16  H    6.261397   6.093700   3.660080   4.825006   6.857437
                   11         12         13         14         15
    11  H    0.000000
    12  B    5.539684   0.000000
    13  O    6.448988   1.540000   0.000000
    14  H    7.345461   2.068864   0.960000   0.000000
    15  O    6.449200   1.540000   2.667358   2.665195   0.000000
    16  H    7.344802   2.068864   2.665815   2.318882   0.960000
                   16
    16  H    0.000000
 Stoichiometry    C6H7BO2
 Framework group  C1[X(C6H7BO2)]
 Deg. of freedom    42
 Full point group                 C1      NOp   1
 Largest Abelian subgroup         C1      NOp   1
 Largest concise Abelian subgroup C1      NOp   1
                         Standard orientation:                         
 ---------------------------------------------------------------------
 Center     Atomic      Atomic             Coordinates (Angstroms)
 Number     Number       Type             X           Y           Z
 ---------------------------------------------------------------------
      1          6           0       -1.999044   -1.206706   -0.055747
      2          6           0       -0.603885   -1.206687   -0.057091
      3          6           0        0.093691   -0.000270   -0.000802
      4          6           0       -0.603926    1.206941    0.055670
      5          6           0       -1.998751    1.206866    0.056532
      6          6           0       -2.696388   -0.000052    0.001216
      7          1           0       -2.548832   -2.157993   -0.099682
      8          1           0       -0.054406   -2.158194   -0.101231
      9          1           0       -0.053696    2.158035    0.099987
     10          1           0       -2.548843    2.158124    0.101023
     11          1           0       -3.795992    0.000124    0.002104
     12          5           0        1.743691   -0.000172   -0.001436
     13          8           0        2.513572    1.329462   -0.106107
     14          1           0        3.457459    1.154345   -0.102867
     15          8           0        2.513810   -1.329715    0.102641
     16          1           0        3.456615   -1.152106    0.136908
 ---------------------------------------------------------------------
 Rotational constants (GHZ):      3.4035921      1.0533861      0.8058816
 Standard basis: 6-31+G(d) (6D, 7F)
 There are   185 symmetry adapted cartesian basis functions of A   symmetry.
 There are   185 symmetry adapted basis functions of A   symmetry.
   185 basis functions,   316 primitive gaussians,   185 cartesian basis functions
    32 alpha electrons       32 beta electrons
       nuclear repulsion energy       381.6245060674 Hartrees.
 NAtoms=   16 NActive=   16 NUniq=   16 SFac= 1.00D+00 NAtFMM=   60 NAOKFM=F Big=F
 Integral buffers will be    131072 words long.
 Raffenetti 2 integral format.
 Two-electron integral symmetry is turned on.
 Nuclear repulsion after empirical dispersion term =      381.6143842899 Hartrees.
 One-electron integrals computed using PRISM.
 NBasis=   185 RedAO= T EigKep=  4.66D-06  NBF=   185
 NBsUse=   185 1.00D-06 EigRej= -1.00D+00 NBFU=   185
 ExpMin= 3.15D-02 ExpMax= 5.48D+03 ExpMxC= 8.25D+02 IAcc=3 IRadAn=         5 AccDes= 0.00D+00
 Harris functional with IExCor=  402 and IRadAn=       5 diagonalized for initial guess.
 HarFok:  IExCor=  402 AccDes= 0.00D+00 IRadAn=         5 IDoV= 1 UseB2=F ITyADJ=14
 ICtDFT=  3500011 ScaDFX=  1.000000  1.000000  1.000000  1.000000
 FoFCou: FMM=F IPFlag=           0 FMFlag=      100000 FMFlg1=           0
         NFxFlg=           0 DoJE=T BraDBF=F KetDBF=T FulRan=T
         wScrn=  0.000000 ICntrl=     500 IOpCl=  0 I1Cent=   200000004 NGrid=           0
         NMat0=    1 NMatS0=      1 NMatT0=    0 NMatD0=    1 NMtDS0=    0 NMtDT0=    0
 Petite list used in FoFCou.
 Keep R1 ints in memory in canonical form, NReq=151355671.
 Requested convergence on RMS density matrix=1.00D-08 within 128 cycles.
 Requested convergence on MAX density matrix=1.00D-06.
 Requested convergence on             energy=1.00D-06.
 No special actions if energy rises.
 SCF Done:  E(RB3LYP) =  -408.257373054     A.U. after   12 cycles
            NFock= 12  Conv=0.96D-08     -V/T= 2.0111

 **********************************************************************

            Population analysis using the SCF density.

 **********************************************************************

 Orbital symmetries:
       Occupied  (A) (A) (A) (A) (A) (A) (A) (A) (A) (A) (A) (A)
                 (A) (A) (A) (A) (A) (A) (A) (A) (A) (A) (A) (A)
                 (A) (A) (A) (A) (A) (A) (A) (A)
       Virtual   (A) (A) (A) (A) (A) (A) (A) (A) (A) (A) (A) (A)
                 (A) (A) (A) (A) (A) (A) (A) (A) (A) (A) (A) (A)
                 (A) (A) (A) (A) (A) (A) (A) (A) (A) (A) (A) (A)
                 (A) (A) (A) (A) (A) (A) (A) (A) (A) (A) (A) (A)
                 (A) (A) (A) (A) (A) (A) (A) (A) (A) (A) (A) (A)
                 (A) (A) (A) (A) (A) (A) (A) (A) (A) (A) (A) (A)
                 (A) (A) (A) (A) (A) (A) (A) (A) (A) (A) (A) (A)
                 (A) (A) (A) (A) (A) (A) (A) (A) (A) (A) (A) (A)
                 (A) (A) (A) (A) (A) (A) (A) (A) (A) (A) (A) (A)
                 (A) (A) (A) (A) (A) (A) (A) (A) (A) (A) (A) (A)
                 (A) (A) (A) (A) (A) (A) (A) (A) (A) (A) (A) (A)
                 (A) (A) (A) (A) (A) (A) (A) (A) (A) (A) (A) (A)
                 (A) (A) (A) (A) (A) (A) (A) (A) (A)
 The electronic state is 1-A.
 Alpha  occ. eigenvalues --  -19.18432 -19.18428 -10.20441 -10.20143 -10.20139
 Alpha  occ. eigenvalues --  -10.20025 -10.20022 -10.19577  -6.85319  -1.02462
 Alpha  occ. eigenvalues --   -1.00144  -0.86105  -0.75204  -0.75198  -0.60974
 Alpha  occ. eigenvalues --   -0.60948  -0.55622  -0.52253  -0.51210  -0.45650
 Alpha  occ. eigenvalues --   -0.45077  -0.43062  -0.42562  -0.40771  -0.38275
 Alpha  occ. eigenvalues --   -0.36242  -0.35826  -0.34592  -0.33348  -0.32673
 Alpha  occ. eigenvalues --   -0.26335  -0.25967
 Alpha virt. eigenvalues --   -0.04805  -0.02988  -0.01502   0.00765   0.02030
 Alpha virt. eigenvalues --    0.02743   0.03298   0.03580   0.05151   0.05285
 Alpha virt. eigenvalues --    0.07235   0.07795   0.07897   0.09380   0.10130
 Alpha virt. eigenvalues --    0.11601   0.12035   0.12536   0.13754   0.14370
 Alpha virt. eigenvalues --    0.14400   0.14495   0.15343   0.15881   0.17100
 Alpha virt. eigenvalues --    0.17227   0.17736   0.18604   0.19738   0.20263
 Alpha virt. eigenvalues --    0.20481   0.21614   0.22427   0.22631   0.23111
 Alpha virt. eigenvalues --    0.23620   0.24152   0.24249   0.25684   0.25978
 Alpha virt. eigenvalues --    0.26450   0.26871   0.29096   0.29476   0.29879
 Alpha virt. eigenvalues --    0.31890   0.33718   0.35083   0.35344   0.37975
 Alpha virt. eigenvalues --    0.39321   0.40946   0.43080   0.43994   0.55459
 Alpha virt. eigenvalues --    0.58453   0.60622   0.63969   0.64081   0.67574
 Alpha virt. eigenvalues --    0.68393   0.71553   0.71867   0.73410   0.74253
 Alpha virt. eigenvalues --    0.74545   0.76781   0.77770   0.81473   0.81708
 Alpha virt. eigenvalues --    0.88103   0.90371   0.92257   0.93382   0.93404
 Alpha virt. eigenvalues --    0.96763   0.98427   1.02479   1.04755   1.05304
 Alpha virt. eigenvalues --    1.07141   1.08825   1.09263   1.11721   1.13029
 Alpha virt. eigenvalues --    1.15576   1.18531   1.22264   1.22946   1.23136
 Alpha virt. eigenvalues --    1.24976   1.25296   1.28196   1.28583   1.32537
 Alpha virt. eigenvalues --    1.34421   1.38974   1.42208   1.44825   1.45354
 Alpha virt. eigenvalues --    1.47824   1.48575   1.49940   1.50669   1.55411
 Alpha virt. eigenvalues --    1.63387   1.65806   1.66166   1.72521   1.74010
 Alpha virt. eigenvalues --    1.76267   1.81402   1.86707   1.89440   1.91916
 Alpha virt. eigenvalues --    1.97444   2.01608   2.03265   2.06207   2.14000
 Alpha virt. eigenvalues --    2.14119   2.14620   2.16385   2.17556   2.19195
 Alpha virt. eigenvalues --    2.20573   2.30280   2.31308   2.34667   2.35039
 Alpha virt. eigenvalues --    2.43186   2.47360   2.59631   2.61691   2.64981
 Alpha virt. eigenvalues --    2.69142   2.69372   2.74049   2.75897   2.77726
 Alpha virt. eigenvalues --    2.84726   2.87307   3.06450   3.38643   3.70499
 Alpha virt. eigenvalues --    4.05021   4.22196   4.23164   4.26280   4.29166
 Alpha virt. eigenvalues --    4.38332   4.42379   4.69612
          Condensed to atoms (all electrons):
               1          2          3          4          5          6
     1  C    7.507737  -1.935563  -0.390285   0.312199  -0.280494   0.678038
     2  C   -1.935563  11.141034  -0.324781  -3.032064   0.270784  -0.265730
     3  C   -0.390285  -0.324781   7.669542  -0.331707  -0.425875  -0.299470
     4  C    0.312199  -3.032064  -0.331707  11.144511  -1.953561  -0.281871
     5  C   -0.280494   0.270784  -0.425875  -1.953561   7.591929   0.692556
     6  C    0.678038  -0.265730  -0.299470  -0.281871   0.692556   5.431306
     7  H    0.267596   0.015595   0.017913  -0.013498   0.006560  -0.001667
     8  H   -0.019491   0.236779   0.027778   0.033097  -0.010348   0.014654
     9  H   -0.010377   0.032914   0.027300   0.237171  -0.019132   0.014678
    10  H    0.006526  -0.013535   0.018040   0.015690   0.267649  -0.001870
    11  H    0.011653   0.009025   0.002007   0.009018   0.011649   0.248546
    12  B   -0.077928   0.050934   0.466910   0.048801  -0.078182  -0.008151
    13  O    0.046899  -0.004378  -0.038051   0.005911  -0.015435  -0.003541
    14  H    0.001803  -0.012725  -0.004837   0.016432  -0.000585   0.000026
    15  O   -0.012646   0.008395  -0.039815  -0.006649   0.045890  -0.003495
    16  H   -0.000178   0.018842  -0.005999  -0.014237   0.001651   0.000044
               7          8          9         10         11         12
     1  C    0.267596  -0.019491  -0.010377   0.006526   0.011653  -0.077928
     2  C    0.015595   0.236779   0.032914  -0.013535   0.009025   0.050934
     3  C    0.017913   0.027778   0.027300   0.018040   0.002007   0.466910
     4  C   -0.013498   0.033097   0.237171   0.015690   0.009018   0.048801
     5  C    0.006560  -0.010348  -0.019132   0.267649   0.011649  -0.078182
     6  C   -0.001667   0.014654   0.014678  -0.001870   0.248546  -0.008151
     7  H    0.535281  -0.004171   0.000015  -0.000148  -0.004858   0.000125
     8  H   -0.004171   0.519632  -0.000117   0.000015  -0.000142  -0.007744
     9  H    0.000015  -0.000117   0.519547  -0.004165  -0.000142  -0.007772
    10  H   -0.000148   0.000015  -0.004165   0.535278  -0.004859   0.000126
    11  H   -0.004858  -0.000142  -0.000142  -0.004859   0.537126  -0.000397
    12  B    0.000125  -0.007744  -0.007772   0.000126  -0.000397   3.346929
    13  O    0.000012   0.000792   0.004847   0.000074   0.000000   0.187953
    14  H    0.000000  -0.000006  -0.000091   0.000000   0.000000   0.011019
    15  O    0.000074   0.004877   0.000792   0.000012   0.000000   0.188258
    16  H    0.000000  -0.000090  -0.000006   0.000000   0.000000   0.010885
              13         14         15         16
     1  C    0.046899   0.001803  -0.012646  -0.000178
     2  C   -0.004378  -0.012725   0.008395   0.018842
     3  C   -0.038051  -0.004837  -0.039815  -0.005999
     4  C    0.005911   0.016432  -0.006649  -0.014237
     5  C   -0.015435  -0.000585   0.045890   0.001651
     6  C   -0.003541   0.000026  -0.003495   0.000044
     7  H    0.000012   0.000000   0.000074   0.000000
     8  H    0.000792  -0.000006   0.004877  -0.000090
     9  H    0.004847  -0.000091   0.000792  -0.000006
    10  H    0.000074   0.000000   0.000012   0.000000
    11  H    0.000000   0.000000   0.000000   0.000000
    12  B    0.187953   0.011019   0.188258   0.010885
    13  O    8.569035   0.146672  -0.095356  -0.008857
    14  H    0.146672   0.370288  -0.008599   0.005415
    15  O   -0.095356  -0.008599   8.569179   0.146687
    16  H   -0.008857   0.005415   0.146687   0.369787
 Mulliken charges:
               1
     1  C   -0.105488
     2  C   -0.195526
     3  C   -0.368668
     4  C   -0.189244
     5  C   -0.105056
     6  C   -0.214053
     7  H    0.181170
     8  H    0.204485
     9  H    0.204539
    10  H    0.181166
    11  H    0.181377
    12  B    0.868233
    13  O   -0.796578
    14  H    0.475189
    15  O   -0.797604
    16  H    0.476058
 Sum of Mulliken charges =   0.00000
 Mulliken charges with hydrogens summed into heavy atoms:
               1
     1  C    0.075682
     2  C    0.008959
     3  C   -0.368668
     4  C    0.015295
     5  C    0.076110
     6  C   -0.032676
    12  B    0.868233
    13  O   -0.321390
    15  O   -0.321545
 Electronic spatial extent (au):  <R**2>=           1353.8642
 Charge=              0.0000 electrons
 Dipole moment (field-independent basis, Debye):
    X=              1.1075    Y=              0.0040    Z=              0.0625  Tot=              1.1093
 Quadrupole moment (field-independent basis, Debye-Ang):
   XX=            -35.2047   YY=            -54.8691   ZZ=            -57.2072
   XY=              0.0214   XZ=              0.2484   YZ=              0.7514
 Traceless Quadrupole moment (field-independent basis, Debye-Ang):
   XX=             13.8890   YY=             -5.7755   ZZ=             -8.1135
   XY=              0.0214   XZ=              0.2484   YZ=              0.7514
 Octapole moment (field-independent basis, Debye-Ang**2):
  XXX=             74.0515  YYY=              0.0138  ZZZ=              0.0261  XYY=            -11.3178
  XXY=              0.0834  XXZ=              0.9558  XZZ=             10.3223  YZZ=             -0.0206
  YYZ=              0.0905  XYZ=             -0.1101
 Hexadecapole moment (field-independent basis, Debye-Ang**3):
 XXXX=           -887.3021 YYYY=           -446.5418 ZZZZ=            -69.7295 XXXY=              0.3150
 XXXZ=              3.3693 YYYX=              0.1060 YYYZ=              2.4621 ZZZX=              0.1590
 ZZZY=             -1.0242 XXYY=           -289.9084 XXZZ=           -243.8797 YYZZ=            -96.0912
 XXYZ=             -0.0363 YYXZ=              0.3856 ZZXY=             -0.0719
 N-N= 3.816143842899D+02 E-N=-1.713944585311D+03  KE= 4.037782936448D+02
 Calling FoFJK, ICntrl=      2127 FMM=F ISym2X=0 I1Cent= 0 IOpClX= 0 NMat=1 NMatS=1 NMatT=0.
 ***** Axes restored to original set *****
 -------------------------------------------------------------------
 Center     Atomic                   Forces (Hartrees/Bohr)
 Number     Number              X              Y              Z
 -------------------------------------------------------------------
      1        6          -0.004478094   -0.011210416   -0.000140981
      2        6          -0.000108900   -0.014207478    0.000591920
      3        6           0.058810995    0.000379144   -0.000270893
      4        6           0.000309322    0.013775878   -0.000437795
      5        6          -0.004736016    0.011206626    0.000162808
      6        6          -0.010917523    0.000115885   -0.000060818
      7        1           0.004041484    0.006930450   -0.000051866
      8        1          -0.003683253    0.007807195    0.000143771
      9        1          -0.003745189   -0.007803938   -0.000211130
     10        1           0.004105947   -0.006997808    0.000069720
     11        1           0.007974688   -0.000008913    0.000007104
     12        5           0.035182702    0.000022117    0.000004354
     13        8          -0.051486591   -0.071157992    0.009558433
     14        1           0.010094482    0.000724360   -0.000056921
     15        8          -0.051455059    0.071161848   -0.009248936
     16        1           0.010091007   -0.000736958   -0.000058771
 -------------------------------------------------------------------
 Cartesian Forces:  Max     0.071161848 RMS     0.021239226

 GradGradGradGradGradGradGradGradGradGradGradGradGradGradGradGradGradGrad
 Berny optimization.
 FormGI is forming the generalized inverse of G from B-inverse, IUseBI=4.
 Internal  Forces:  Max     0.082243651 RMS     0.015279869
 Search for a local minimum.
 Step number   1 out of a maximum of   81
 All quantities printed in internal units (Hartrees-Bohrs-Radians)
 Mixed Optimization -- RFO/linear search
 Second derivative matrix not updated -- first step.
 ITU=  0
     Eigenvalues ---    0.00230   0.00300   0.00369   0.00369   0.01562
     Eigenvalues ---    0.02152   0.02153   0.02154   0.02155   0.02155
     Eigenvalues ---    0.02155   0.02156   0.02157   0.16000   0.16000
     Eigenvalues ---    0.16000   0.16000   0.16000   0.16000   0.16000
     Eigenvalues ---    0.20635   0.22000   0.22000   0.23486   0.25000
     Eigenvalues ---    0.25000   0.25000   0.28519   0.28519   0.33709
     Eigenvalues ---    0.33718   0.33720   0.33725   0.33726   0.42116
     Eigenvalues ---    0.42305   0.46412   0.46453   0.46466   0.46497
     Eigenvalues ---    0.55473   0.55473
 RFO step:  Lambda=-5.09292971D-02 EMin= 2.30000000D-03
 Linear search not attempted -- first point.
 Maximum step size (   0.300) exceeded in Quadratic search.
    -- Step size scaled by   0.753
 Iteration  1 RMS(Cart)=  0.05667334 RMS(Int)=  0.00017878
 Iteration  2 RMS(Cart)=  0.00025663 RMS(Int)=  0.00000138
 Iteration  3 RMS(Cart)=  0.00000007 RMS(Int)=  0.00000138
 Variable       Old X    -DE/DX   Delta X   Delta X   Delta X     New X
                                 (Linear)    (Quad)   (Total)
    R1        2.63647   0.00194   0.00000   0.00284   0.00284   2.63931
    R2        2.63584   0.00439   0.00000   0.00619   0.00618   2.64203
    R3        2.07796  -0.00802   0.00000  -0.01556  -0.01556   2.06240
    R4        2.63562   0.00848   0.00000   0.01260   0.01260   2.64822
    R5        2.07805  -0.00860   0.00000  -0.01669  -0.01669   2.06136
    R6        2.63697   0.00803   0.00000   0.01196   0.01197   2.64894
    R7        3.11805  -0.04757   0.00000  -0.13925  -0.13925   2.97880
    R8        2.63584   0.00207   0.00000   0.00302   0.00302   2.63886
    R9        2.07809  -0.00863   0.00000  -0.01675  -0.01675   2.06135
   R10        2.63643   0.00427   0.00000   0.00601   0.00600   2.64243
   R11        2.07825  -0.00811   0.00000  -0.01575  -0.01575   2.06250
   R12        2.07795  -0.00797   0.00000  -0.01547  -0.01547   2.06248
   R13        2.91018  -0.08224   0.00000  -0.18427  -0.18427   2.72591
   R14        2.91018  -0.08220   0.00000  -0.18417  -0.18417   2.72600
   R15        1.81414   0.00979   0.00000   0.01218   0.01218   1.82631
   R16        1.81414   0.00977   0.00000   0.01215   0.01215   1.82629
    A1        2.09437  -0.00015   0.00000  -0.00090  -0.00091   2.09346
    A2        2.09435   0.00004   0.00000   0.00032   0.00032   2.09467
    A3        2.09447   0.00011   0.00000   0.00058   0.00058   2.09505
    A4        2.09455   0.00051   0.00000   0.00179   0.00179   2.09634
    A5        2.09406   0.00048   0.00000   0.00174   0.00174   2.09580
    A6        2.09458  -0.00099   0.00000  -0.00353  -0.00353   2.09105
    A7        2.09429  -0.00202   0.00000  -0.00434  -0.00434   2.08996
    A8        2.09462   0.00102   0.00000   0.00218   0.00218   2.09680
    A9        2.09427   0.00100   0.00000   0.00216   0.00216   2.09643
   A10        2.09429   0.00056   0.00000   0.00190   0.00190   2.09619
   A11        2.09407  -0.00097   0.00000  -0.00340  -0.00341   2.09066
   A12        2.09483   0.00041   0.00000   0.00151   0.00150   2.09633
   A13        2.09448  -0.00014   0.00000  -0.00092  -0.00092   2.09356
   A14        2.09459   0.00001   0.00000   0.00025   0.00025   2.09485
   A15        2.09411   0.00013   0.00000   0.00066   0.00066   2.09478
   A16        2.09440   0.00123   0.00000   0.00247   0.00247   2.09686
   A17        2.09453  -0.00062   0.00000  -0.00126  -0.00126   2.09327
   A18        2.09426  -0.00061   0.00000  -0.00121  -0.00121   2.09305
   A19        2.09440  -0.00186   0.00000  -0.00465  -0.00465   2.08974
   A20        2.09440  -0.00182   0.00000  -0.00456  -0.00456   2.08984
   A21        2.09440   0.00368   0.00000   0.00921   0.00921   2.10360
   A22        1.91114   0.00463   0.00000   0.01654   0.01654   1.92767
   A23        1.91114   0.00464   0.00000   0.01657   0.01657   1.92770
    D1        0.00056  -0.00011   0.00000  -0.00113  -0.00113  -0.00056
    D2        3.14078  -0.00011   0.00000  -0.00111  -0.00111   3.13967
    D3       -3.14112  -0.00005   0.00000  -0.00056  -0.00056   3.14151
    D4       -0.00091  -0.00005   0.00000  -0.00054  -0.00054  -0.00145
    D5        0.00026   0.00004   0.00000   0.00039   0.00039   0.00065
    D6        3.14140   0.00005   0.00000   0.00056   0.00056  -3.14122
    D7       -3.14124  -0.00002   0.00000  -0.00018  -0.00018  -3.14142
    D8       -0.00010   0.00000   0.00000  -0.00001  -0.00001  -0.00011
    D9       -0.00099   0.00007   0.00000   0.00076   0.00076  -0.00023
   D10        3.14093   0.00005   0.00000   0.00050   0.00050   3.14142
   D11       -3.14120   0.00007   0.00000   0.00074   0.00074  -3.14046
   D12        0.00072   0.00005   0.00000   0.00047   0.00047   0.00119
   D13        0.00060   0.00003   0.00000   0.00034   0.00034   0.00094
   D14       -3.14153   0.00007   0.00000   0.00072   0.00072  -3.14081
   D15       -3.14132   0.00006   0.00000   0.00061   0.00061  -3.14071
   D16       -0.00026   0.00009   0.00000   0.00098   0.00098   0.00072
   D17        3.01640   0.00064   0.00000   0.00896   0.00896   3.02536
   D18       -0.12519   0.00069   0.00000   0.00977   0.00977  -0.11542
   D19       -0.12486   0.00061   0.00000   0.00869   0.00869  -0.11617
   D20        3.01673   0.00067   0.00000   0.00951   0.00951   3.02624
   D21        0.00023  -0.00011   0.00000  -0.00108  -0.00108  -0.00085
   D22       -3.14158  -0.00004   0.00000  -0.00043  -0.00043   3.14117
   D23       -3.14083  -0.00014   0.00000  -0.00146  -0.00146   3.14090
   D24        0.00054  -0.00008   0.00000  -0.00080  -0.00080  -0.00026
   D25       -0.00066   0.00007   0.00000   0.00071   0.00071   0.00006
   D26        3.14138   0.00005   0.00000   0.00055   0.00055  -3.14125
   D27        3.14116   0.00001   0.00000   0.00006   0.00006   3.14122
   D28        0.00001  -0.00001   0.00000  -0.00011  -0.00011  -0.00010
   D29       -3.13041  -0.00008   0.00000  -0.00103  -0.00103  -3.13144
   D30        0.01118  -0.00013   0.00000  -0.00185  -0.00185   0.00933
   D31       -3.08806  -0.00055   0.00000  -0.00754  -0.00754  -3.09560
   D32        0.05353  -0.00049   0.00000  -0.00672  -0.00672   0.04681
         Item               Value     Threshold  Converged?
 Maximum Force            0.082244     0.000450     NO 
 RMS     Force            0.015280     0.000300     NO 
 Maximum Displacement     0.168460     0.001800     NO 
 RMS     Displacement     0.056618     0.001200     NO 
 Predicted change in Energy=-2.621554D-02
 GradGradGradGradGradGradGradGradGradGradGradGradGradGradGradGradGradGrad

                          Input orientation:                          
 ---------------------------------------------------------------------
 Center     Atomic      Atomic             Coordinates (Angstroms)
 Number     Number       Type             X           Y           Z
 ---------------------------------------------------------------------
      1          6           0       -8.464696   -0.510912    0.001861
      2          6           0       -7.068035   -0.511406    0.002945
      3          6           0       -6.364560    0.700610    0.000504
      4          6           0       -7.068039    1.913059   -0.003310
      5          6           0       -8.464461    1.912574   -0.003536
      6          6           0       -9.162187    0.700774   -0.000986
      7          1           0       -9.010978   -1.455725    0.003683
      8          1           0       -6.521633   -1.455505    0.006983
      9          1           0       -6.521127    2.856862   -0.005949
     10          1           0       -9.010931    2.857338   -0.006110
     11          1           0      -10.253604    0.700953   -0.001484
     12          5           0       -4.788250    0.700785    0.001958
     13          8           0       -4.072824    1.944612   -0.145812
     14          1           0       -3.119078    1.788803   -0.135581
     15          8           0       -4.072679   -0.542980    0.150033
     16          1           0       -3.119796   -0.383523    0.173949
 ---------------------------------------------------------------------
                    Distance matrix (angstroms):
                    1          2          3          4          5
     1  C    0.000000
     2  C    1.396662   0.000000
     3  C    2.424533   1.401380   0.000000
     4  C    2.797555   2.424473   1.401759   0.000000
     5  C    2.423492   2.797450   2.424553   1.396423   0.000000
     6  C    1.398101   2.419684   2.797627   2.419730   1.398315
     7  H    1.091374   2.160270   3.413695   3.888928   3.412355
     8  H    2.160504   1.090822   2.161838   3.412607   3.888270
     9  H    3.888370   3.412392   2.161938   1.090818   2.160610
    10  H    3.412265   3.888877   3.413912   2.160209   1.091428
    11  H    2.160746   3.408473   3.889044   3.408376   2.160801
    12  B    3.870978   2.582020   1.576311   2.582067   3.870787
    13  O    5.033880   3.876266   2.611705   2.998768   4.394058
    14  H    5.820929   4.572134   3.425761   3.953128   5.348446
    15  O    4.394633   2.999131   2.611818   3.876573   5.033992
    16  H    5.349187   3.954009   3.425481   4.571031   5.819709
                    6          7          8          9         10
     6  C    0.000000
     7  H    2.161799   0.000000
     8  H    3.409124   2.489348   0.000000
     9  H    3.409389   4.979744   4.312385   0.000000
    10  H    2.161868   4.313074   4.979698   2.489804   0.000000
    11  H    1.091417   2.489057   4.310219   4.310377   2.488826
    12  B    4.373938   4.741516   2.766627   2.766151   4.741500
    13  O    5.241156   5.997499   4.192946   2.616476   5.023692
    14  H    6.141749   6.727617   4.703534   3.568121   5.989362
    15  O    5.241452   5.024074   2.617353   4.192630   5.997739
    16  H    6.141400   5.990378   3.570646   4.701224   6.726148
                   11         12         13         14         15
    11  H    0.000000
    12  B    5.465355   0.000000
    13  O    6.306311   1.442489   0.000000
    14  H    7.218231   1.997206   0.966443   0.000000
    15  O    6.306676   1.442539   2.505122   2.535378   0.000000
    16  H    7.217900   1.997259   2.535886   2.194267   0.966429
                   16
    16  H    0.000000
 Stoichiometry    C6H7BO2
 Framework group  C1[X(C6H7BO2)]
 Deg. of freedom    42
 Full point group                 C1      NOp   1
 Largest Abelian subgroup         C1      NOp   1
 Largest concise Abelian subgroup C1      NOp   1
                         Standard orientation:                         
 ---------------------------------------------------------------------
 Center     Atomic      Atomic             Coordinates (Angstroms)
 Number     Number       Type             X           Y           Z
 ---------------------------------------------------------------------
      1          6           0       -1.961418   -1.210691   -0.048173
      2          6           0       -0.564756   -1.211248   -0.048657
      3          6           0        0.138787   -0.000220   -0.000658
      4          6           0       -0.564623    1.211316    0.047545
      5          6           0       -1.961045    1.210858    0.048844
      6          6           0       -2.658839    0.000042    0.000956
      7          1           0       -2.507753   -2.154729   -0.085673
      8          1           0       -0.018406   -2.154681   -0.085122
      9          1           0       -0.017658    2.154380    0.084185
     10          1           0       -2.507461    2.154895    0.086799
     11          1           0       -3.750256    0.000256    0.001674
     12          5           0        1.715098   -0.000127   -0.000943
     13          8           0        2.430434    1.248824   -0.096812
     14          1           0        3.384182    1.092710   -0.094230
     15          8           0        2.430758   -1.249047    0.093651
     16          1           0        3.383677   -1.090755    0.123229
 ---------------------------------------------------------------------
 Rotational constants (GHZ):      3.5622835      1.1066443      0.8456272
 Standard basis: 6-31+G(d) (6D, 7F)
 There are   185 symmetry adapted cartesian basis functions of A   symmetry.
 There are   185 symmetry adapted basis functions of A   symmetry.
   185 basis functions,   316 primitive gaussians,   185 cartesian basis functions
    32 alpha electrons       32 beta electrons
       nuclear repulsion energy       388.7774554172 Hartrees.
 NAtoms=   16 NActive=   16 NUniq=   16 SFac= 1.00D+00 NAtFMM=   60 NAOKFM=F Big=F
 Integral buffers will be    131072 words long.
 Raffenetti 2 integral format.
 Two-electron integral symmetry is turned on.
 Nuclear repulsion after empirical dispersion term =      388.7671680428 Hartrees.
 One-electron integrals computed using PRISM.
 NBasis=   185 RedAO= T EigKep=  4.82D-06  NBF=   185
 NBsUse=   185 1.00D-06 EigRej= -1.00D+00 NBFU=   185
 Initial guess from the checkpoint file:  "C:\Users\123\Desktop\ML project\molecule_7.chk"
 B after Tr=     0.000000    0.000000    0.000000
         Rot=    0.999998    0.001769   -0.000001    0.000004 Ang=   0.20 deg.
 ExpMin= 3.15D-02 ExpMax= 5.48D+03 ExpMxC= 8.25D+02 IAcc=3 IRadAn=         5 AccDes= 0.00D+00
 Harris functional with IExCor=  402 and IRadAn=       5 diagonalized for initial guess.
 HarFok:  IExCor=  402 AccDes= 0.00D+00 IRadAn=         5 IDoV= 1 UseB2=F ITyADJ=14
 ICtDFT=  3500011 ScaDFX=  1.000000  1.000000  1.000000  1.000000
 FoFCou: FMM=F IPFlag=           0 FMFlag=      100000 FMFlg1=           0
         NFxFlg=           0 DoJE=T BraDBF=F KetDBF=T FulRan=T
         wScrn=  0.000000 ICntrl=     500 IOpCl=  0 I1Cent=   200000004 NGrid=           0
         NMat0=    1 NMatS0=      1 NMatT0=    0 NMatD0=    1 NMtDS0=    0 NMtDT0=    0
 Petite list used in FoFCou.
 Keep R1 ints in memory in canonical form, NReq=151355671.
 Requested convergence on RMS density matrix=1.00D-08 within 128 cycles.
 Requested convergence on MAX density matrix=1.00D-06.
 Requested convergence on             energy=1.00D-06.
 No special actions if energy rises.
 SCF Done:  E(RB3LYP) =  -408.286138998     A.U. after   12 cycles
            NFock= 12  Conv=0.24D-08     -V/T= 2.0102
 Calling FoFJK, ICntrl=      2127 FMM=F ISym2X=0 I1Cent= 0 IOpClX= 0 NMat=1 NMatS=1 NMatT=0.
 ***** Axes restored to original set *****
 -------------------------------------------------------------------
 Center     Atomic                   Forces (Hartrees/Bohr)
 Number     Number              X              Y              Z
 -------------------------------------------------------------------
      1        6          -0.001226598   -0.004185660   -0.000078801
      2        6          -0.003884148   -0.003596869    0.000551696
      3        6           0.024310241    0.000172799   -0.000244793
      4        6          -0.003636718    0.003367378   -0.000436678
      5        6          -0.001417888    0.004155861    0.000088641
      6        6          -0.003472746    0.000087087   -0.000042797
      7        1           0.001137329    0.002371613   -0.000055113
      8        1          -0.001007198    0.002803680    0.000091406
      9        1          -0.001045709   -0.002787664   -0.000140615
     10        1           0.001166943   -0.002392109    0.000069002
     11        1           0.002609098   -0.000007215    0.000005081
     12        5           0.025172963   -0.000016114   -0.000154772
     13        8          -0.022520144   -0.038383975    0.005062076
     14        1           0.003167749    0.004608248   -0.000416607
     15        8          -0.022539705    0.038454810   -0.004255266
     16        1           0.003186531   -0.004651869   -0.000042460
 -------------------------------------------------------------------
 Cartesian Forces:  Max     0.038454810 RMS     0.010646896

 GradGradGradGradGradGradGradGradGradGradGradGradGradGradGradGradGradGrad
 Berny optimization.
 Using GEDIIS/GDIIS optimizer.
 FormGI is forming the generalized inverse of G from B-inverse, IUseBI=4.
 Internal  Forces:  Max     0.039198284 RMS     0.007131875
 Search for a local minimum.
 Step number   2 out of a maximum of   81
 All quantities printed in internal units (Hartrees-Bohrs-Radians)
 Mixed Optimization -- RFO/linear search
 Update second derivatives using D2CorX and points    1    2
 DE= -2.88D-02 DEPred=-2.62D-02 R= 1.10D+00
 TightC=F SS=  1.41D+00  RLast= 3.01D-01 DXNew= 5.0454D-01 9.0228D-01
 Trust test= 1.10D+00 RLast= 3.01D-01 DXMaxT set to 5.05D-01
 ITU=  1  0
 Use linear search instead of GDIIS.
     Eigenvalues ---    0.00230   0.00300   0.00369   0.00369   0.01559
     Eigenvalues ---    0.02152   0.02153   0.02154   0.02155   0.02155
     Eigenvalues ---    0.02155   0.02156   0.02157   0.14776   0.16000
     Eigenvalues ---    0.16000   0.16000   0.16000   0.16000   0.16001
     Eigenvalues ---    0.21834   0.22000   0.22021   0.22345   0.24288
     Eigenvalues ---    0.25000   0.25000   0.27268   0.28519   0.33711
     Eigenvalues ---    0.33719   0.33722   0.33726   0.33910   0.42137
     Eigenvalues ---    0.42324   0.46407   0.46453   0.46463   0.46492
     Eigenvalues ---    0.55473   0.55640
 RFO step:  Lambda=-3.05426328D-03 EMin= 2.30033672D-03
 Quartic linear search produced a step of  0.54837.
 Iteration  1 RMS(Cart)=  0.02714289 RMS(Int)=  0.00138348
 Iteration  2 RMS(Cart)=  0.00107777 RMS(Int)=  0.00001653
 Iteration  3 RMS(Cart)=  0.00000089 RMS(Int)=  0.00001652
 Variable       Old X    -DE/DX   Delta X   Delta X   Delta X     New X
                                 (Linear)    (Quad)   (Total)
    R1        2.63931   0.00055   0.00156  -0.00057   0.00098   2.64029
    R2        2.64203   0.00088   0.00339  -0.00256   0.00081   2.64284
    R3        2.06240  -0.00262  -0.00854   0.00237  -0.00616   2.05624
    R4        2.64822   0.00433   0.00691   0.00400   0.01094   2.65916
    R5        2.06136  -0.00293  -0.00915   0.00201  -0.00715   2.05421
    R6        2.64894   0.00412   0.00656   0.00387   0.01046   2.65940
    R7        2.97880  -0.01353  -0.07636   0.05268  -0.02368   2.95512
    R8        2.63886   0.00066   0.00166  -0.00037   0.00128   2.64014
    R9        2.06135  -0.00294  -0.00918   0.00203  -0.00715   2.05420
   R10        2.64243   0.00079   0.00329  -0.00273   0.00054   2.64298
   R11        2.06250  -0.00266  -0.00864   0.00239  -0.00624   2.05626
   R12        2.06248  -0.00261  -0.00848   0.00235  -0.00613   2.05635
   R13        2.72591  -0.03920  -0.10105  -0.03167  -0.13272   2.59319
   R14        2.72600  -0.03919  -0.10100  -0.03170  -0.13270   2.59331
   R15        1.82631   0.00238   0.00668  -0.00324   0.00344   1.82975
   R16        1.82629   0.00237   0.00666  -0.00323   0.00343   1.82972
    A1        2.09346  -0.00001  -0.00050  -0.00024  -0.00076   2.09270
    A2        2.09467   0.00022   0.00018   0.00226   0.00245   2.09712
    A3        2.09505  -0.00020   0.00032  -0.00202  -0.00169   2.09336
    A4        2.09634   0.00208   0.00098   0.01256   0.01357   2.10990
    A5        2.09580  -0.00049   0.00096  -0.00431  -0.00337   2.09244
    A6        2.09105  -0.00159  -0.00194  -0.00825  -0.01020   2.08085
    A7        2.08996  -0.00423  -0.00238  -0.02086  -0.02319   2.06677
    A8        2.09680   0.00210   0.00120   0.01035   0.01153   2.10833
    A9        2.09643   0.00212   0.00118   0.01050   0.01166   2.10809
   A10        2.09619   0.00210   0.00104   0.01261   0.01367   2.10986
   A11        2.09066  -0.00156  -0.00187  -0.00811  -0.00999   2.08067
   A12        2.09633  -0.00054   0.00083  -0.00450  -0.00369   2.09265
   A13        2.09356  -0.00002  -0.00050  -0.00031  -0.00084   2.09272
   A14        2.09485   0.00020   0.00014   0.00224   0.00239   2.09724
   A15        2.09478  -0.00018   0.00036  -0.00193  -0.00156   2.09322
   A16        2.09686   0.00009   0.00135  -0.00376  -0.00245   2.09441
   A17        2.09327  -0.00005  -0.00069   0.00185   0.00118   2.09445
   A18        2.09305  -0.00004  -0.00066   0.00191   0.00127   2.09432
   A19        2.08974  -0.00300  -0.00255  -0.01361  -0.01616   2.07358
   A20        2.08984  -0.00299  -0.00250  -0.01365  -0.01615   2.07368
   A21        2.10360   0.00599   0.00505   0.02727   0.03231   2.13591
   A22        1.92767   0.00927   0.00907   0.06767   0.07674   2.00441
   A23        1.92770   0.00927   0.00908   0.06767   0.07676   2.00446
    D1       -0.00056  -0.00008  -0.00062   0.00008  -0.00054  -0.00110
    D2        3.13967  -0.00007  -0.00061   0.00057  -0.00004   3.13963
    D3        3.14151  -0.00005  -0.00031  -0.00045  -0.00076   3.14075
    D4       -0.00145  -0.00004  -0.00030   0.00004  -0.00025  -0.00170
    D5        0.00065   0.00003   0.00021   0.00003   0.00024   0.00089
    D6       -3.14122   0.00004   0.00031  -0.00006   0.00024  -3.14098
    D7       -3.14142   0.00000  -0.00010   0.00056   0.00046  -3.14096
    D8       -0.00011   0.00001   0.00000   0.00047   0.00046   0.00036
    D9       -0.00023   0.00005   0.00042  -0.00008   0.00034   0.00011
   D10        3.14142   0.00004   0.00027   0.00010   0.00037  -3.14139
   D11       -3.14046   0.00004   0.00041  -0.00058  -0.00017  -3.14063
   D12        0.00119   0.00003   0.00026  -0.00039  -0.00013   0.00106
   D13        0.00094   0.00002   0.00019  -0.00002   0.00017   0.00111
   D14       -3.14081   0.00005   0.00039  -0.00038   0.00001  -3.14080
   D15       -3.14071   0.00004   0.00033  -0.00020   0.00013  -3.14058
   D16        0.00072   0.00006   0.00054  -0.00057  -0.00003   0.00069
   D17        3.02536   0.00058   0.00491   0.00006   0.00494   3.03031
   D18       -0.11542   0.00061   0.00536  -0.00476   0.00063  -0.11479
   D19       -0.11617   0.00057   0.00477   0.00025   0.00498  -0.11119
   D20        3.02624   0.00060   0.00521  -0.00457   0.00067   3.02691
   D21       -0.00085  -0.00008  -0.00059   0.00012  -0.00047  -0.00133
   D22        3.14117  -0.00004  -0.00023  -0.00047  -0.00070   3.14047
   D23        3.14090  -0.00010  -0.00080   0.00049  -0.00031   3.14059
   D24       -0.00026  -0.00006  -0.00044  -0.00010  -0.00054  -0.00080
   D25        0.00006   0.00005   0.00039  -0.00014   0.00025   0.00031
   D26       -3.14125   0.00004   0.00030  -0.00005   0.00025  -3.14100
   D27        3.14122   0.00001   0.00003   0.00045   0.00048  -3.14149
   D28       -0.00010   0.00000  -0.00006   0.00054   0.00048   0.00039
   D29       -3.13144  -0.00010  -0.00057  -0.00714  -0.00774  -3.13918
   D30        0.00933  -0.00013  -0.00101  -0.00231  -0.00329   0.00604
   D31       -3.09560  -0.00054  -0.00413  -0.01122  -0.01533  -3.11093
   D32        0.04681  -0.00051  -0.00369  -0.01606  -0.01978   0.02703
         Item               Value     Threshold  Converged?
 Maximum Force            0.039198     0.000450     NO 
 RMS     Force            0.007132     0.000300     NO 
 Maximum Displacement     0.094149     0.001800     NO 
 RMS     Displacement     0.027455     0.001200     NO 
 Predicted change in Energy=-8.231192D-03
 GradGradGradGradGradGradGradGradGradGradGradGradGradGradGradGradGradGrad

                          Input orientation:                          
 ---------------------------------------------------------------------
 Center     Atomic      Atomic             Coordinates (Angstroms)
 Number     Number       Type             X           Y           Z
 ---------------------------------------------------------------------
      1          6           0       -8.455215   -0.510369    0.003408
      2          6           0       -7.058036   -0.508095    0.004790
      3          6           0       -6.337603    0.700656    0.000444
      4          6           0       -7.057936    1.909607   -0.005208
      5          6           0       -8.455035    1.912014   -0.005150
      6          6           0       -9.154398    0.700831   -0.001026
      7          1           0       -9.000310   -1.452100    0.006015
      8          1           0       -6.514832   -1.449668    0.010086
      9          1           0       -6.514441    2.851010   -0.009359
     10          1           0       -9.000153    2.853740   -0.008497
     11          1           0      -10.242569    0.700966   -0.001532
     12          5           0       -4.773824    0.700739    0.001727
     13          8           0       -4.112528    1.895211   -0.136148
     14          1           0       -3.146584    1.828544   -0.129755
     15          8           0       -4.112478   -0.493159    0.144865
     16          1           0       -3.146934   -0.423608    0.164487
 ---------------------------------------------------------------------
                    Distance matrix (angstroms):
                    1          2          3          4          5
     1  C    0.000000
     2  C    1.397182   0.000000
     3  C    2.439441   1.407168   0.000000
     4  C    2.794414   2.417722   1.407293   0.000000
     5  C    2.422398   2.794393   2.439454   1.397101   0.000000
     6  C    1.398529   2.419974   2.816796   2.419981   1.398602
     7  H    1.088114   2.159532   3.424091   3.882527   3.408037
     8  H    2.155786   1.087041   2.157636   3.402928   3.881433
     9  H    3.881448   3.402834   2.157635   1.087035   2.155838
    10  H    3.407980   3.882516   3.424182   2.159538   1.088124
    11  H    2.159165   3.406336   3.904967   3.406276   2.159150
    12  B    3.875491   2.584359   1.563780   2.584295   3.875378
    13  O    4.966410   3.804176   2.529146   2.948352   4.344515
    14  H    5.802570   4.558228   3.386988   3.914175   5.310570
    15  O    4.345075   2.948924   2.529275   3.804146   4.966403
    16  H    5.311433   3.915272   3.386923   4.557261   5.801710
                    6          7          8          9         10
     6  C    0.000000
     7  H    2.158450   0.000000
     8  H    3.404714   2.485482   0.000000
     9  H    3.404807   4.969561   4.300722   0.000000
    10  H    2.158440   4.305864   4.969556   2.485714   0.000000
    11  H    1.088171   2.485752   4.303648   4.303683   2.485574
    12  B    4.380576   4.743197   2.766845   2.766503   4.743140
    13  O    5.183170   5.925800   4.120760   2.588207   4.982364
    14  H    6.114094   6.711719   4.702268   3.521704   5.943905
    15  O    5.183421   4.982946   2.589282   4.120276   5.925759
    16  H    6.114032   5.945159   3.524113   4.700367   6.710522
                   11         12         13         14         15
    11  H    0.000000
    12  B    5.468747   0.000000
    13  O    6.246739   1.372255   0.000000
    14  H    7.186159   1.984223   0.968263   0.000000
    15  O    6.247030   1.372319   2.404844   2.529559   0.000000
    16  H    7.186116   1.984293   2.529758   2.271292   0.968245
                   16
    16  H    0.000000
 Stoichiometry    C6H7BO2
 Framework group  C1[X(C6H7BO2)]
 Deg. of freedom    42
 Full point group                 C1      NOp   1
 Largest Abelian subgroup         C1      NOp   1
 Largest concise Abelian subgroup C1      NOp   1
                         Standard orientation:                         
 ---------------------------------------------------------------------
 Center     Atomic      Atomic             Coordinates (Angstroms)
 Number     Number       Type             X           Y           Z
 ---------------------------------------------------------------------
      1          6           0       -1.949948   -1.210248   -0.044815
      2          6           0       -0.552768   -1.208087   -0.045318
      3          6           0        0.167775   -0.000197   -0.001261
      4          6           0       -0.552448    1.208002    0.043540
      5          6           0       -1.949545    1.210459    0.045673
      6          6           0       -2.649019    0.000149    0.001264
      7          1           0       -2.495130   -2.151277   -0.079941
      8          1           0       -0.009648   -2.149110   -0.079292
      9          1           0       -0.008868    2.148767    0.077112
     10          1           0       -2.494576    2.151556    0.081603
     11          1           0       -3.737190    0.000346    0.002305
     12          5           0        1.731555   -0.000228   -0.002189
     13          8           0        2.392771    1.198856   -0.092049
     14          1           0        3.358717    1.131946   -0.089753
     15          8           0        2.392986   -1.199006    0.091081
     16          1           0        3.358564   -1.130353    0.112163
 ---------------------------------------------------------------------
 Rotational constants (GHZ):      3.6676135      1.1257060      0.8625394
 Standard basis: 6-31+G(d) (6D, 7F)
 There are   185 symmetry adapted cartesian basis functions of A   symmetry.
 There are   185 symmetry adapted basis functions of A   symmetry.
   185 basis functions,   316 primitive gaussians,   185 cartesian basis functions
    32 alpha electrons       32 beta electrons
       nuclear repulsion energy       392.4719080204 Hartrees.
 NAtoms=   16 NActive=   16 NUniq=   16 SFac= 1.00D+00 NAtFMM=   60 NAOKFM=F Big=F
 Integral buffers will be    131072 words long.
 Raffenetti 2 integral format.
 Two-electron integral symmetry is turned on.
 Nuclear repulsion after empirical dispersion term =      392.4616310868 Hartrees.
 One-electron integrals computed using PRISM.
 NBasis=   185 RedAO= T EigKep=  4.82D-06  NBF=   185
 NBsUse=   185 1.00D-06 EigRej= -1.00D+00 NBFU=   185
 Initial guess from the checkpoint file:  "C:\Users\123\Desktop\ML project\molecule_7.chk"
 B after Tr=     0.000000    0.000000    0.000000
         Rot=    1.000000    0.000783    0.000001    0.000009 Ang=   0.09 deg.
 ExpMin= 3.15D-02 ExpMax= 5.48D+03 ExpMxC= 8.25D+02 IAcc=3 IRadAn=         5 AccDes= 0.00D+00
 Harris functional with IExCor=  402 and IRadAn=       5 diagonalized for initial guess.
 HarFok:  IExCor=  402 AccDes= 0.00D+00 IRadAn=         5 IDoV= 1 UseB2=F ITyADJ=14
 ICtDFT=  3500011 ScaDFX=  1.000000  1.000000  1.000000  1.000000
 FoFCou: FMM=F IPFlag=           0 FMFlag=      100000 FMFlg1=           0
         NFxFlg=           0 DoJE=T BraDBF=F KetDBF=T FulRan=T
         wScrn=  0.000000 ICntrl=     500 IOpCl=  0 I1Cent=   200000004 NGrid=           0
         NMat0=    1 NMatS0=      1 NMatT0=    0 NMatD0=    1 NMtDS0=    0 NMtDT0=    0
 Petite list used in FoFCou.
 Keep R1 ints in memory in canonical form, NReq=151355671.
 Requested convergence on RMS density matrix=1.00D-08 within 128 cycles.
 Requested convergence on MAX density matrix=1.00D-06.
 Requested convergence on             energy=1.00D-06.
 No special actions if energy rises.
 SCF Done:  E(RB3LYP) =  -408.292616388     A.U. after   11 cycles
            NFock= 11  Conv=0.70D-08     -V/T= 2.0095
 Calling FoFJK, ICntrl=      2127 FMM=F ISym2X=0 I1Cent= 0 IOpClX= 0 NMat=1 NMatS=1 NMatT=0.
 ***** Axes restored to original set *****
 -------------------------------------------------------------------
 Center     Atomic                   Forces (Hartrees/Bohr)
 Number     Number              X              Y              Z
 -------------------------------------------------------------------
      1        6           0.000289670   -0.000730453   -0.000063874
      2        6          -0.000997882    0.000335809    0.000444121
      3        6           0.002732381    0.000024945   -0.000336821
      4        6          -0.000909417   -0.000404177   -0.000371120
      5        6           0.000223292    0.000705248    0.000096519
      6        6          -0.000773747    0.000032800   -0.000038933
      7        1           0.000376120    0.000269974   -0.000030161
      8        1          -0.000004347    0.000090348    0.000093224
      9        1          -0.000019810   -0.000082620   -0.000133029
     10        1           0.000389057   -0.000269170    0.000042448
     11        1           0.000372716   -0.000005906    0.000002229
     12        5          -0.005499504    0.000012965    0.000325177
     13        8           0.002416138    0.004520704   -0.000253994
     14        1          -0.000492198    0.002169853   -0.000073734
     15        8           0.002369134   -0.004454006    0.000650668
     16        1          -0.000471603   -0.002216314   -0.000352721
 -------------------------------------------------------------------
 Cartesian Forces:  Max     0.005499504 RMS     0.001480382

 GradGradGradGradGradGradGradGradGradGradGradGradGradGradGradGradGradGrad
 Berny optimization.
 Using GEDIIS/GDIIS optimizer.
 FormGI is forming the generalized inverse of G from B-inverse, IUseBI=4.
 Internal  Forces:  Max     0.006783905 RMS     0.001552375
 Search for a local minimum.
 Step number   3 out of a maximum of   81
 All quantities printed in internal units (Hartrees-Bohrs-Radians)
 Mixed Optimization -- RFO/linear search
 Update second derivatives using D2CorX and points    1    2    3
 DE= -6.48D-03 DEPred=-8.23D-03 R= 7.87D-01
 TightC=F SS=  1.41D+00  RLast= 2.28D-01 DXNew= 8.4853D-01 6.8271D-01
 Trust test= 7.87D-01 RLast= 2.28D-01 DXMaxT set to 6.83D-01
 ITU=  1  1  0
 Use linear search instead of GDIIS.
     Eigenvalues ---    0.00230   0.00302   0.00369   0.00369   0.01545
     Eigenvalues ---    0.02152   0.02153   0.02154   0.02155   0.02155
     Eigenvalues ---    0.02155   0.02156   0.02157   0.14424   0.16000
     Eigenvalues ---    0.16000   0.16000   0.16000   0.16001   0.16003
     Eigenvalues ---    0.21998   0.22000   0.22072   0.23020   0.24172
     Eigenvalues ---    0.25000   0.25000   0.28519   0.33687   0.33711
     Eigenvalues ---    0.33719   0.33726   0.33730   0.41397   0.42099
     Eigenvalues ---    0.42399   0.46406   0.46456   0.46461   0.46577
     Eigenvalues ---    0.55473   0.55881
 RFO step:  Lambda=-1.03068104D-03 EMin= 2.30037531D-03
 Quartic linear search produced a step of -0.05131.
 Iteration  1 RMS(Cart)=  0.09419891 RMS(Int)=  0.00372816
 Iteration  2 RMS(Cart)=  0.00699844 RMS(Int)=  0.00009243
 Iteration  3 RMS(Cart)=  0.00003590 RMS(Int)=  0.00008969
 Iteration  4 RMS(Cart)=  0.00000000 RMS(Int)=  0.00008969
 Variable       Old X    -DE/DX   Delta X   Delta X   Delta X     New X
                                 (Linear)    (Quad)   (Total)
    R1        2.64029  -0.00046  -0.00005  -0.00075  -0.00080   2.63949
    R2        2.64284   0.00034  -0.00004   0.00102   0.00098   2.64382
    R3        2.05624  -0.00042   0.00032  -0.00217  -0.00186   2.05438
    R4        2.65916   0.00008  -0.00056   0.00114   0.00058   2.65974
    R5        2.05421  -0.00008   0.00037  -0.00133  -0.00096   2.05325
    R6        2.65940   0.00001  -0.00054   0.00096   0.00042   2.65982
    R7        2.95512  -0.00168   0.00122  -0.01628  -0.01507   2.94005
    R8        2.64014  -0.00042  -0.00007  -0.00065  -0.00072   2.63942
    R9        2.05420  -0.00008   0.00037  -0.00133  -0.00097   2.05323
   R10        2.64298   0.00031  -0.00003   0.00094   0.00091   2.64389
   R11        2.05626  -0.00043   0.00032  -0.00220  -0.00188   2.05437
   R12        2.05635  -0.00037   0.00031  -0.00203  -0.00172   2.05463
   R13        2.59319   0.00678   0.00681   0.00677   0.01358   2.60677
   R14        2.59331   0.00675   0.00681   0.00666   0.01347   2.60678
   R15        1.82975  -0.00064  -0.00018  -0.00043  -0.00060   1.82915
   R16        1.82972  -0.00064  -0.00018  -0.00042  -0.00060   1.82912
    A1        2.09270  -0.00004   0.00004  -0.00023  -0.00019   2.09251
    A2        2.09712  -0.00017  -0.00013  -0.00091  -0.00104   2.09608
    A3        2.09336   0.00022   0.00009   0.00114   0.00123   2.09459
    A4        2.10990   0.00045  -0.00070   0.00255   0.00186   2.11176
    A5        2.09244  -0.00018   0.00017  -0.00068  -0.00051   2.09193
    A6        2.08085  -0.00027   0.00052  -0.00187  -0.00135   2.07950
    A7        2.06677  -0.00056   0.00119  -0.00372  -0.00253   2.06423
    A8        2.10833   0.00027  -0.00059   0.00182   0.00123   2.10955
    A9        2.10809   0.00029  -0.00060   0.00190   0.00131   2.10940
   A10        2.10986   0.00045  -0.00070   0.00257   0.00186   2.11173
   A11        2.08067  -0.00025   0.00051  -0.00175  -0.00124   2.07944
   A12        2.09265  -0.00020   0.00019  -0.00082  -0.00063   2.09202
   A13        2.09272  -0.00004   0.00004  -0.00023  -0.00019   2.09254
   A14        2.09724  -0.00019  -0.00012  -0.00099  -0.00111   2.09613
   A15        2.09322   0.00023   0.00008   0.00122   0.00130   2.09452
   A16        2.09441  -0.00026   0.00013  -0.00095  -0.00082   2.09359
   A17        2.09445   0.00012  -0.00006   0.00043   0.00037   2.09483
   A18        2.09432   0.00014  -0.00007   0.00051   0.00045   2.09477
   A19        2.07358  -0.00261   0.00083  -0.01074  -0.01018   2.06340
   A20        2.07368  -0.00264   0.00083  -0.01082  -0.01027   2.06342
   A21        2.13591   0.00525  -0.00166   0.02169   0.01974   2.15565
   A22        2.00441   0.00389  -0.00394   0.02786   0.02392   2.02834
   A23        2.00446   0.00389  -0.00394   0.02790   0.02396   2.02842
    D1       -0.00110  -0.00006   0.00003  -0.00268  -0.00265  -0.00375
    D2        3.13963  -0.00006   0.00000  -0.00290  -0.00290   3.13673
    D3        3.14075  -0.00003   0.00004  -0.00141  -0.00137   3.13938
    D4       -0.00170  -0.00003   0.00001  -0.00162  -0.00161  -0.00332
    D5        0.00089   0.00002  -0.00001   0.00083   0.00082   0.00171
    D6       -3.14098   0.00003  -0.00001   0.00130   0.00129  -3.13969
    D7       -3.14096  -0.00001  -0.00002  -0.00044  -0.00047  -3.14142
    D8        0.00036   0.00000  -0.00002   0.00003   0.00000   0.00036
    D9        0.00011   0.00004  -0.00002   0.00182   0.00181   0.00191
   D10       -3.14139   0.00002  -0.00002   0.00085   0.00083  -3.14055
   D11       -3.14063   0.00004   0.00001   0.00204   0.00205  -3.13859
   D12        0.00106   0.00003   0.00001   0.00107   0.00108   0.00213
   D13        0.00111   0.00002  -0.00001   0.00087   0.00086   0.00197
   D14       -3.14080   0.00005   0.00000   0.00196   0.00196  -3.13884
   D15       -3.14058   0.00004  -0.00001   0.00184   0.00183  -3.13875
   D16        0.00069   0.00006   0.00000   0.00293   0.00293   0.00363
   D17        3.03031   0.00044  -0.00025   0.14406   0.14402  -3.10886
   D18       -0.11479   0.00065  -0.00003   0.18703   0.18678   0.07200
   D19       -0.11119   0.00043  -0.00026   0.14307   0.14302   0.03184
   D20        3.02691   0.00063  -0.00003   0.18604   0.18579  -3.07049
   D21       -0.00133  -0.00006   0.00002  -0.00269  -0.00267  -0.00399
   D22        3.14047  -0.00002   0.00004  -0.00116  -0.00113   3.13934
   D23        3.14059  -0.00008   0.00002  -0.00379  -0.00378   3.13681
   D24       -0.00080  -0.00005   0.00003  -0.00226  -0.00224  -0.00304
   D25        0.00031   0.00004  -0.00001   0.00182   0.00181   0.00212
   D26       -3.14100   0.00003  -0.00001   0.00136   0.00134  -3.13966
   D27       -3.14149   0.00000  -0.00002   0.00030   0.00027  -3.14121
   D28        0.00039  -0.00001  -0.00002  -0.00017  -0.00020   0.00019
   D29       -3.13918  -0.00005   0.00040  -0.01080  -0.01021   3.13379
   D30        0.00604  -0.00024   0.00017  -0.05531  -0.05533  -0.04930
   D31       -3.11093  -0.00057   0.00079  -0.13240  -0.13181   3.04044
   D32        0.02703  -0.00037   0.00101  -0.08790  -0.08669  -0.05965
         Item               Value     Threshold  Converged?
 Maximum Force            0.006784     0.000450     NO 
 RMS     Force            0.001552     0.000300     NO 
 Maximum Displacement     0.456865     0.001800     NO 
 RMS     Displacement     0.094650     0.001200     NO 
 Predicted change in Energy=-5.877039D-04
 GradGradGradGradGradGradGradGradGradGradGradGradGradGradGradGradGradGrad

                          Input orientation:                          
 ---------------------------------------------------------------------
 Center     Atomic      Atomic             Coordinates (Angstroms)
 Number     Number       Type             X           Y           Z
 ---------------------------------------------------------------------
      1          6           0       -8.451248   -0.509819    0.043104
      2          6           0       -7.054576   -0.506394    0.058036
      3          6           0       -6.332252    0.700865    0.016091
      4          6           0       -7.053965    1.908007   -0.039063
      5          6           0       -8.450642    1.911100   -0.049604
      6          6           0       -9.150935    0.700544   -0.009758
      7          1           0       -8.994457   -1.451004    0.073935
      8          1           0       -6.511782   -1.446525    0.103670
      9          1           0       -6.510573    2.848221   -0.074520
     10          1           0       -8.993460    2.852129   -0.090334
     11          1           0      -10.238153    0.700459   -0.019691
     12          5           0       -4.776521    0.701198    0.031480
     13          8           0       -4.124354    1.916734    0.028318
     14          1           0       -3.157137    1.883078    0.044928
     15          8           0       -4.123526   -0.513491   -0.000168
     16          1           0       -3.159297   -0.478784   -0.077276
 ---------------------------------------------------------------------
                    Distance matrix (angstroms):
                    1          2          3          4          5
     1  C    0.000000
     2  C    1.396757   0.000000
     3  C    2.440622   1.407475   0.000000
     4  C    2.793750   2.416353   1.407516   0.000000
     5  C    2.422693   2.793718   2.440606   1.396720   0.000000
     6  C    1.399048   2.419921   2.818802   2.419940   1.399087
     7  H    1.087131   2.157702   3.423627   3.880880   3.408040
     8  H    2.154673   1.086533   2.156661   3.401061   3.880246
     9  H    3.880269   3.401022   2.156651   1.086524   2.154689
    10  H    3.408004   3.880845   3.423637   2.157692   1.087128
    11  H    2.159107   3.405539   3.906065   3.405525   2.159107
    12  B    3.869149   2.578471   1.555806   2.578393   3.869056
    13  O    4.960886   3.802451   2.520575   2.930399   4.326993
    14  H    5.809783   4.571628   3.388187   3.897813   5.294423
    15  O    4.327941   2.931637   2.520594   3.801663   4.960344
    16  H    5.293411   3.897726   3.386434   4.568005   5.806086
                    6          7          8          9         10
     6  C    0.000000
     7  H    2.158854   0.000000
     8  H    3.404101   2.482856   0.000000
     9  H    3.404148   4.967399   4.298441   0.000000
    10  H    2.158844   4.306267   4.967372   2.482940   0.000000
    11  H    1.087263   2.486833   4.302394   4.302411   2.486752
    12  B    4.374609   4.735478   2.762074   2.761862   4.735390
    13  O    5.171759   5.921287   4.125167   2.563647   4.959560
    14  H    6.109583   6.722443   4.726876   3.491605   5.917772
    15  O    5.171927   4.960886   2.566146   4.123667   5.920455
    16  H    6.106972   5.917530   3.494055   4.722290   6.718081
                   11         12         13         14         15
    11  H    0.000000
    12  B    5.461871   0.000000
    13  O    6.233793   1.379442   0.000000
    14  H    7.179384   2.004851   0.967945   0.000000
    15  O    6.233997   1.379447   2.430392   2.584470   0.000000
    16  H    7.176638   2.004894   2.584761   2.365023   0.967929
                   16
    16  H    0.000000
 Stoichiometry    C6H7BO2
 Framework group  C1[X(C6H7BO2)]
 Deg. of freedom    42
 Full point group                 C1      NOp   1
 Largest Abelian subgroup         C1      NOp   1
 Largest concise Abelian subgroup C1      NOp   1
                         Standard orientation:                         
 ---------------------------------------------------------------------
 Center     Atomic      Atomic             Coordinates (Angstroms)
 Number     Number       Type             X           Y           Z
 ---------------------------------------------------------------------
      1          6           0       -1.945361   -1.210849    0.018262
      2          6           0       -0.548639   -1.208086    0.027575
      3          6           0        0.173912   -0.000388    0.008250
      4          6           0       -0.547617    1.207829   -0.018401
      5          6           0       -1.944325    1.211489   -0.023185
      6          6           0       -2.644854    0.000535   -0.006119
      7          1           0       -2.488753   -2.152341    0.031377
      8          1           0       -0.005977   -2.149106    0.051087
      9          1           0       -0.004061    2.148448   -0.036162
     10          1           0       -2.486990    2.153304   -0.041776
     11          1           0       -3.732103    0.000929   -0.011622
     12          5           0        1.729692   -0.000766    0.017306
     13          8           0        2.382246    1.214403    0.037216
     14          1           0        3.349511    1.180165    0.049170
     15          8           0        2.382148   -1.214674   -0.042705
     16          1           0        3.346067   -1.178581   -0.122988
 ---------------------------------------------------------------------
 Rotational constants (GHZ):      3.6365890      1.1334805      0.8644456
 Standard basis: 6-31+G(d) (6D, 7F)
 There are   185 symmetry adapted cartesian basis functions of A   symmetry.
 There are   185 symmetry adapted basis functions of A   symmetry.
   185 basis functions,   316 primitive gaussians,   185 cartesian basis functions
    32 alpha electrons       32 beta electrons
       nuclear repulsion energy       392.4791849798 Hartrees.
 NAtoms=   16 NActive=   16 NUniq=   16 SFac= 1.00D+00 NAtFMM=   60 NAOKFM=F Big=F
 Integral buffers will be    131072 words long.
 Raffenetti 2 integral format.
 Two-electron integral symmetry is turned on.
 Nuclear repulsion after empirical dispersion term =      392.4688802447 Hartrees.
 One-electron integrals computed using PRISM.
 NBasis=   185 RedAO= T EigKep=  4.79D-06  NBF=   185
 NBsUse=   185 1.00D-06 EigRej= -1.00D+00 NBFU=   185
 Initial guess from the checkpoint file:  "C:\Users\123\Desktop\ML project\molecule_7.chk"
 B after Tr=     0.000000    0.000000    0.000000
         Rot=    1.000000   -0.000089   -0.000002    0.000066 Ang=  -0.01 deg.
 ExpMin= 3.15D-02 ExpMax= 5.48D+03 ExpMxC= 8.25D+02 IAcc=3 IRadAn=         5 AccDes= 0.00D+00
 Harris functional with IExCor=  402 and IRadAn=       5 diagonalized for initial guess.
 HarFok:  IExCor=  402 AccDes= 0.00D+00 IRadAn=         5 IDoV= 1 UseB2=F ITyADJ=14
 ICtDFT=  3500011 ScaDFX=  1.000000  1.000000  1.000000  1.000000
 FoFCou: FMM=F IPFlag=           0 FMFlag=      100000 FMFlg1=           0
         NFxFlg=           0 DoJE=T BraDBF=F KetDBF=T FulRan=T
         wScrn=  0.000000 ICntrl=     500 IOpCl=  0 I1Cent=   200000004 NGrid=           0
         NMat0=    1 NMatS0=      1 NMatT0=    0 NMatD0=    1 NMtDS0=    0 NMtDT0=    0
 Petite list used in FoFCou.
 Keep R1 ints in memory in canonical form, NReq=151355671.
 Requested convergence on RMS density matrix=1.00D-08 within 128 cycles.
 Requested convergence on MAX density matrix=1.00D-06.
 Requested convergence on             energy=1.00D-06.
 No special actions if energy rises.
 SCF Done:  E(RB3LYP) =  -408.292827328     A.U. after   12 cycles
            NFock= 12  Conv=0.51D-08     -V/T= 2.0096
 Calling FoFJK, ICntrl=      2127 FMM=F ISym2X=0 I1Cent= 0 IOpClX= 0 NMat=1 NMatS=1 NMatT=0.
 ***** Axes restored to original set *****
 -------------------------------------------------------------------
 Center     Atomic                   Forces (Hartrees/Bohr)
 Number     Number              X              Y              Z
 -------------------------------------------------------------------
      1        6           0.000295471    0.000246777    0.000122580
      2        6          -0.000761960    0.000328981   -0.000150850
      3        6          -0.001730850    0.000021585    0.001787062
      4        6          -0.000728995   -0.000330202    0.000359813
      5        6           0.000266660   -0.000283427   -0.000371121
      6        6           0.000194415    0.000019685    0.000037423
      7        1          -0.000078288   -0.000222105    0.000064281
      8        1           0.000117207   -0.000203382   -0.000217069
[...]
 ! D5    D(2,1,6,5)              0.0009         -DE/DX =    0.0                 !
 ! D6    D(2,1,6,11)          -179.9991         -DE/DX =    0.0                 !
 ! D7    D(7,1,6,5)           -180.0008         -DE/DX =    0.0                 !
 ! D8    D(7,1,6,11)            -0.0008         -DE/DX =    0.0                 !
 ! D9    D(1,2,3,4)              0.0012         -DE/DX =    0.0                 !
 ! D10   D(1,2,3,12)          -179.9989         -DE/DX =    0.0                 !
 ! D11   D(8,2,3,4)            180.0007         -DE/DX =    0.0                 !
 ! D12   D(8,2,3,12)             0.0006         -DE/DX =    0.0                 !
 ! D13   D(2,3,4,5)              0.0009         -DE/DX =    0.0                 !
 ! D14   D(2,3,4,9)            180.0003         -DE/DX =    0.0                 !
 ! D15   D(12,3,4,5)          -179.9989         -DE/DX =    0.0                 !
 ! D16   D(12,3,4,9)             0.0004         -DE/DX =    0.0                 !
 ! D17   D(2,3,12,13)          179.9772         -DE/DX =    0.0                 !
 ! D18   D(2,3,12,15)           -0.0251         -DE/DX =    0.0                 !
 ! D19   D(4,3,12,13)           -0.0229         -DE/DX =    0.0                 !
 ! D20   D(4,3,12,15)          179.9748         -DE/DX =    0.0                 !
 ! D21   D(3,4,5,6)             -0.0021         -DE/DX =    0.0                 !
 ! D22   D(3,4,5,10)           179.9998         -DE/DX =    0.0                 !
 ! D23   D(9,4,5,6)           -180.0015         -DE/DX =    0.0                 !
 ! D24   D(9,4,5,10)             0.0004         -DE/DX =    0.0                 !
 ! D25   D(4,5,6,1)              0.0012         -DE/DX =    0.0                 !
 ! D26   D(4,5,6,11)          -179.9988         -DE/DX =    0.0                 !
 ! D27   D(10,5,6,1)          -180.0007         -DE/DX =    0.0                 !
 ! D28   D(10,5,6,11)           -0.0007         -DE/DX =    0.0                 !
 ! D29   D(3,12,13,14)         179.9869         -DE/DX =    0.0                 !
 ! D30   D(15,12,13,14)         -0.0107         -DE/DX =    0.0                 !
 ! D31   D(3,12,15,16)         179.9833         -DE/DX =    0.0                 !
 ! D32   D(13,12,15,16)         -0.0192         -DE/DX =    0.0                 !
 --------------------------------------------------------------------------------
 GradGradGradGradGradGradGradGradGradGradGradGradGradGradGradGradGradGrad

 1|1|UNPC-DESKTOP-LNBVCDA|Freq|RB3LYP|6-31+G(d)|C6H7B1O2|123|25-Aug-202
 3|0||#N Geom=AllCheck Guess=TCheck SCRF=Check GenChk RB3LYP/6-31+G(d) 
 Freq||Title Card Required||0,1|C,-8.4526375371,-0.5097669252,0.0301482
 486|C,-7.0561468684,-0.5062338147,0.0330424989|C,-6.3330669239,0.70106
 14964,0.0032052357|C,-7.056284738,1.9081992109,-0.0296943794|C,-8.4527
 724859,1.9114133475,-0.0327194569|C,-9.1531684163,0.7007431723,-0.0027
 71338|H,-8.9950276248,-1.4520530627,0.0534763234|H,-6.5131526139,-1.44
 74672174,0.0586628698|H,-6.5133978553,2.8495535577,-0.0530082895|H,-8.
 9952761409,2.8535745246,-0.0583470663|H,-10.240777238,0.7006246593,-0.
 0050785376|B,-4.772319704,0.7012406274,0.0065129291|O,-4.1206668632,1.
 915526158,-0.0241402223|H,-3.1538878258,1.8858275875,-0.0211062267|O,-
 4.1205339921,-0.5128822914,0.0399776306|H,-3.1537596623,-0.4830429003,
 0.0409883903||Version=EM64W-G09RevD.01|State=1-A|HF=-408.293032|RMSD=3
 .942e-009|RMSF=5.776e-006|ZeroPoint=0.1247585|Thermal=0.1326112|Dipole
 =0.9249755,0.0000345,0.0019093|DipoleDeriv=-0.0931758,0.1509037,-0.003
 6854,0.1169268,0.0442946,-0.0051093,-0.00293,-0.0044328,-0.1447466,0.0
 981606,-0.1215608,0.0036797,0.0630968,0.0630829,-0.002622,-0.0010998,-
 0.0048179,-0.1174322,-0.7056578,-0.000168,-0.0010524,-0.0001616,-0.190
 5145,0.000333,-0.0012315,0.0010453,-0.1431681,0.0980995,0.1215961,-0.0
 028092,-0.0629617,0.061821,-0.0045624,0.0020913,-0.0043475,-0.1174052,
 -0.0931489,-0.1509068,0.0040365,-0.1169441,0.0448656,-0.0045608,0.0032
 18,-0.0051413,-0.1445924,0.1077905,0.0000961,0.0007364,-0.0000204,0.05
 38245,-0.0047175,0.0004993,-0.0047044,-0.1291312,0.0025521,-0.083741,0
 .0018025,-0.0933542,-0.0842988,0.0053681,0.0021234,0.0055742,0.1405307
 ,0.0576138,0.0679996,-0.0016635,0.0619143,-0.0529053,0.0042898,-0.0017
 822,0.0045907,0.1243201,0.0576571,-0.0677266,0.0017759,-0.0618732,-0.0
 525291,0.0047218,0.0014052,0.0043269,0.1243235,0.0024789,0.0836855,-0.
 0028819,0.0933967,-0.0843679,0.0061193,-0.0027459,0.0059843,0.1404291,
 -0.1364879,-0.0001313,-0.0009794,-0.0000292,0.0673117,0.001656,-0.0005
 765,0.0017175,0.1354248,2.1200897,-0.0001172,0.003213,0.0000726,1.5717
 028,-0.0306147,0.003483,-0.0288563,0.4831702,-0.8960363,-0.3894171,0.0
 098605,-0.5147489,-1.0455285,0.0122674,0.0130702,0.0131486,-0.5311313,
 0.1380754,0.0515148,-0.0018748,0.1235138,0.3241673,0.0017219,-0.003910
 5,0.0006602,0.3552659,-0.8961249,0.3894377,-0.0113335,0.5147408,-1.044
 7037,0.01521,-0.014486,0.0147756,-0.5311713,0.138114,-0.0514648,0.0011
 756,-0.1235686,0.3237775,0.0004993,0.0028719,0.000477,0.3553139|Polar=
 117.4002441,0.0162272,95.682272,0.1472943,-1.1000764,52.1503701|PG=C01
  [X(C6H7B1O2)]|NImag=0||0.68336979,0.03271519,0.71985946,0.00032146,-0
 .01518528,0.13289463,-0.33803598,-0.03327346,0.00028162,0.68789093,0.0
 3145353,-0.12988793,0.00176376,-0.03997145,0.70278713,-0.00140543,0.00
 163743,-0.06426611,0.00220250,-0.01465454,0.14288082,-0.02723261,-0.02
 652571,0.00060556,-0.17342497,-0.10830722,0.00258142,0.62474473,-0.069
 44947,0.03007967,-0.00063495,-0.06102472,-0.26350042,0.00502472,0.0000
 2060,0.64464180,0.00172407,-0.00055559,0.01105776,0.00135338,0.0049328
 0,-0.06548459,0.00103580,-0.01321916,0.13679584,-0.05109499,0.02800780
 ,-0.00082053,0.06327358,0.02017651,-0.00040359,-0.17344722,0.06100928,
 -0.00181392,0.68790055,0.02790309,-0.01654677,0.00029740,-0.02014672,-
 0.05792549,0.00163786,0.10829935,-0.26347986,0.00537967,0.04005436,0.7
 0282229,-0.00081548,0.00030197,-0.00730809,0.00063700,0.00172463,0.006
 83382,-0.00303656,0.00527262,-0.06550515,0.00011002,-0.01447048,0.1428
 6970,0.06477426,-0.02272456,0.00071268,-0.05108855,-0.02790971,0.00063
 286,-0.02725015,0.06944232,-0.00188472,-0.33804916,-0.03151785,0.00024
 217,0.68338742,0.02274020,-0.05580370,0.00168948,-0.02801138,-0.016564
 95,0.00017858,0.02651576,0.03011446,-0.00043649,0.03321622,-0.12989133
 ,0.00177542,-0.03265920,0.71983455,-0.00046914,0.00159691,0.00742614,0
 .00063736,0.00017769,-0.00730380,-0.00076930,-0.00034775,0.01104721,-0
 .00143962,0.00164086,-0.06426541,0.00201342,-0.01532551,0.13290298,-0.
 18081784,0.12108949,-0.00339663,-0.02634427,0.02973411,-0.00084455,-0.
 00094487,0.00000704,0.00001649,-0.02633638,-0.02975080,0.00070198,-0.1
 8079367,-0.12108718,0.00289212,0.73815802,0.05618352,-0.28398520,0.005
 87016,0.07641174,0.03322018,-0.00051372,0.00000517,-0.06214186,0.00141
 139,-0.07642704,0.03318412,-0.00083942,-0.05617797,-0.28400950,0.00563
 173,0.00003475,0.66315562,-0.00171081,0.00600567,-0.06274716,-0.002055
 50,-0.00061701,0.00726322,0.00001147,0.00141611,-0.00787231,0.00191459
 ,-0.00074072,0.00727423,0.00120779,0.00549044,-0.06272959,0.00127671,-
 0.01368410,0.13651915,-0.12871904,-0.11971821,0.00291292,-0.01081472,-
 0.02964619,0.00074183,-0.00576222,0.00147615,-0.00006573,-0.00075004,0
 .00097408,-0.00002425,-0.00114263,0.00306537,-0.00009862,0.01204995,0.
 01538255,-0.00037948,0.13337850,-0.11936256,-0.26801385,0.00576673,0.0
 0195528,0.00380926,-0.00001570,0.00022721,0.00171315,0.00014675,0.0008
 7515,0.00019083,-0.00001566,0.00433671,-0.00280575,0.00026459,-0.01630
 398,-0.01903624,0.00053707,0.12886207,0.28359959,0.00290609,0.00576662
 ,-0.03640218,-0.00008164,-0.00007896,0.00294440,-0.00003127,0.00014309
 ,0.00732098,-0.00002352,-0.00001374,-0.00055335,-0.00013073,0.00026626
 ,0.00712283,0.00044407,0.00060092,0.00287357,-0.00311811,-0.00643612,0
 .02551347,-0.01088672,0.02876773,-0.00077997,-0.13016101,0.12141311,-0
 .00334879,0.01239088,-0.01437416,0.00039729,-0.00140395,-0.00353571,0.
 00007100,-0.00057801,-0.00078654,0.00001987,-0.00559060,-0.00152132,0.
 00001177,0.00066125,-0.00037739,0.00001992,0.13654101,-0.00252265,0.00
 444128,-0.00001116,0.12045767,-0.26880823,0.00621763,0.01371223,-0.019
 80066,0.00059684,-0.00419149,-0.00289372,0.00025827,-0.00071578,0.0001
 8095,-0.00002250,-0.00062674,0.00153978,0.00015296,0.00043074,0.000863
 54,-0.00012770,-0.12889812,0.28589225,0.00003404,0.00005354,0.00421267
 ,-0.00332451,0.00622642,-0.03967971,-0.00033329,0.00053660,0.00216372,
 0.00009010,0.00025576,0.00720885,0.00001895,-0.00002140,-0.00067279,-0
 .00001056,0.00015077,0.00748096,-0.00000102,-0.00012991,-0.00408681,0.
 00358432,-0.00700711,0.02711933,-0.00057917,0.00078887,-0.00002037,-0.
 00140714,0.00353484,-0.00011086,0.01239632,0.01438184,-0.00035199,-0.1
 3013450,-0.12140244,0.00296109,-0.01088239,-0.02877289,0.00071610,-0.0
 0559055,0.00152044,-0.00006715,0.00010196,-0.00010015,0.00000573,0.000
 56581,0.00090524,-0.00002247,0.13650888,0.00071423,0.00018550,-0.00002
 092,0.00418671,-0.00289053,0.00027000,-0.01369687,-0.01979683,0.000542
 11,-0.12045422,-0.26885297,0.00570254,0.00252119,0.00443258,0.00000044
 ,0.00062504,0.00154258,0.00015537,-0.00013699,0.00000334,-0.00003434,-
 0.00090518,-0.00106716,0.00003557,0.12888882,0.28594213,-0.00001952,-0
 .00002292,-0.00067371,-0.00012435,0.00027369,0.00720873,0.00037427,0.0
 0060224,0.00216425,0.00293857,0.00569966,-0.03965200,-0.00009669,-0.00
 006455,0.00421487,-0.00004376,0.00015851,0.00748093,0.00000611,-0.0000
 3501,-0.00131871,0.00002551,0.00003580,0.00034649,-0.00311627,-0.00645
 670,0.02709048,-0.00114389,-0.00307034,0.00006407,-0.00075238,-0.00097
 730,0.00002749,-0.00576195,-0.00146670,0.00000906,-0.01082121,0.029629
 04,-0.00079907,-0.12874364,0.11972646,-0.00330677,0.01205188,-0.015378
 84,0.00042102,0.00047024,-0.00085704,0.00002060,0.00010295,0.00013535,
 -0.00000207,0.00066077,-0.00043165,0.00002096,0.13341170,-0.00433308,-
 0.00280188,0.00024820,-0.00087599,0.00019819,-0.00002216,-0.00023191,0
 .00169331,0.00014522,-0.00195526,0.00383520,-0.00002665,0.11936285,-0.
 26796042,0.00627299,0.01630630,-0.01903759,0.00060328,0.00086148,-0.00
 106083,0.00003806,0.00009796,0.00000786,-0.00003404,0.00037820,0.00086
 431,-0.00012812,-0.12886872,0.28353782,0.00009392,0.00025059,0.0071223
 5,0.00002370,-0.00002085,-0.00055214,-0.00002300,0.00014462,0.00732190
 ,0.00002177,0.00003739,0.00294266,-0.00329669,0.00627449,-0.03642921,-
 0.00040425,0.00053687,0.00287421,-0.00002218,0.00003369,0.00030580,0.0
 0000125,-0.00003550,-0.00131880,0.00000054,-0.00012905,-0.00408699,0.0
 0357706,-0.00698061,0.02554153,-0.01159486,-0.00278892,0.00004009,0.00
 071011,0.00335341,-0.00009883,0.00060306,0.00000375,0.00000238,0.00070
 972,-0.00336560,0.00007629,-0.01159112,0.00278398,-0.00010559,-0.33694
 526,-0.00003240,-0.00063341,0.00081691,0.00050539,-0.00000378,-0.00066
 802,-0.00023040,0.00000323,-0.00066648,0.00023263,-0.00000923,0.000817
 92,-0.00050242,0.00002248,0.35784705,0.02867895,0.00523365,0.00002305,
 0.00220117,-0.00485124,0.00032131,0.00000135,-0.00105525,-0.00000645,-
 0.00220357,-0.00485368,0.00031125,-0.02868194,0.00522829,-0.00009889,-
 0.00003075,-0.06063877,0.00059220,-0.00034351,0.00071152,-0.00012159,0
 .00143002,0.00010438,0.00000027,-0.00143084,0.00010286,-0.00000525,0.0
 0034453,0.00071043,-0.00011951,0.00003517,0.05930785,-0.00077578,-0.00
 004422,0.00375454,-0.00007350,0.00032740,0.00730982,0.00000646,-0.0000
 0997,-0.00126439,0.00004300,0.00031187,0.00731014,0.00071145,-0.000031
 52,0.00375770,-0.00063368,0.00059061,-0.03785609,0.00001932,-0.0001194
 6,-0.00391953,-0.00003905,-0.00000188,0.00001724,0.00003541,-0.0000021
 0,0.00001771,-0.00000008,-0.00012091,-0.00391938,0.00070498,-0.0008750
 6,0.02563715,0.00316492,-0.00265529,0.00006321,-0.01390548,-0.01038529
 ,0.00024090,-0.20100521,-0.00002549,-0.00029938,-0.01390570,0.01039049
 ,-0.00030122,0.00315837,0.00265690,-0.00007361,0.00235527,-0.00000242,
 0.00000608,0.00079376,0.00063801,-0.00001585,0.00022213,0.00159496,-0.
 00003645,0.00022456,-0.00158990,0.00004649,0.00079047,-0.00063586,0.00
 001682,0.00034785,-0.00000022,0.00000303,0.53354701,-0.00476047,-0.004
 21570,0.00027152,-0.02052511,0.00729817,-0.00020370,-0.00000798,-0.068
 91137,0.00019498,0.02049022,0.00728907,-0.00012951,0.00476903,-0.00420
 744,0.00028469,0.00000768,-0.00349900,0.00008326,-0.00128424,-0.000016
 49,-0.00000179,-0.00177597,-0.00262968,-0.00001679,0.00176832,-0.00264
 593,-0.00000102,0.00129811,-0.00003899,0.00001459,0.00001211,-0.000304
 26,-0.00002611,-0.00000247,0.58157377,0.00011647,0.00026650,0.00625662
 ,0.00050076,-0.00019396,0.00076598,-0.00029814,0.00021053,-0.06090103,
 -0.00056357,-0.00015103,0.00076186,-0.00012971,0.00027802,0.00625465,0
 .00000619,0.00007228,-0.00064955,0.00003548,0.00001389,0.00036123,0.00
 005301,-0.00000157,-0.00283733,-0.00003997,-0.00000861,-0.00283685,-0.
 00003181,0.00000867,0.00036203,0.00000390,-0.00001961,-0.00105962,0.00
 082247,-0.01146172,0.14717826,-0.00192846,-0.00051001,0.00000810,-0.00
 342960,0.00437330,-0.00012517,-0.01983013,-0.02735442,0.00066640,-0.00
 180263,-0.00224842,0.00005495,0.00069171,-0.00063232,0.00001738,-0.000
 71146,-0.00107009,0.00002499,-0.00068531,-0.00020038,0.00000524,0.0002
 2961,-0.00019432,0.00000689,-0.00150556,-0.00027200,0.00000514,-0.0002
 6275,0.00022640,-0.00000648,-0.00019617,-0.00003619,0.00000125,-0.1385
 5447,-0.11959380,0.00295662,0.65288566,-0.00069778,0.00101195,-0.00003
 647,0.00100339,0.00161279,-0.00000831,-0.01243408,-0.00115776,0.000182
 48,0.00093504,-0.00466994,0.00014630,-0.00078786,0.00050098,-0.0000253
 9,-0.00030966,-0.00012983,0.00000071,-0.00017577,-0.00009859,-0.000000
 52,0.00060566,0.00060737,-0.00001246,0.00038956,0.00113988,-0.00003591
 ,-0.00035423,0.00016527,-0.00000618,-0.00009832,0.00012875,-0.00000011
 ,-0.07812157,-0.25623633,0.00537208,0.10597715,0.34501118,0.00001511,-
 0.00003268,-0.00032447,-0.00003475,-0.00001615,0.00118214,0.00027139,0
 .00015638,0.00687125,-0.00002890,0.00013867,0.00073102,0.00002152,-0.0
 0002949,-0.00042110,0.00000504,0.00000356,-0.00004360,0.00000188,-0.00
 000368,-0.00012423,-0.00001726,-0.00001112,0.00009811,-0.00001342,-0.0
 0003574,-0.00018274,0.00001028,-0.00000410,-0.00000388,0.00000258,-0.0
 0000015,0.00009297,0.00186305,0.00528467,-0.04660476,-0.00136604,-0.00
 811577,0.02916453,0.00004365,-0.00059936,0.00001710,-0.00124872,0.0006
 9601,-0.00002147,0.00217808,-0.00367271,0.00009125,0.00054418,-0.00021
 328,0.00000574,-0.00000997,0.00013609,-0.00000338,0.00008488,0.0000624
 6,-0.00000118,-0.00011726,0.00002577,-0.00000126,-0.00001630,-0.000114
 86,0.00000246,0.00009695,0.00001409,0.00000033,-0.00001909,-0.00000176
 ,0.00000023,0.00000127,0.00000299,-0.00000043,-0.01932495,0.00770547,-
 0.00024616,-0.50375564,-0.00265388,-0.00107838,0.51709497,-0.00001476,
 -0.00025651,-0.00001028,-0.00085739,0.00040763,-0.00000102,-0.00010334
 ,-0.00362938,0.00022439,0.00060442,-0.00022518,-0.00000489,0.00003146,
 0.00019762,-0.00000638,0.00009582,-0.00001790,0.00000096,-0.00005771,0
 .00000503,0.00000014,-0.00005733,-0.00007175,0.00001048,-0.00030355,0.
 00050062,-0.00001466,0.00003964,-0.00002446,0.00000165,0.00003634,0.00
 002316,0.00000085,-0.03434765,0.00137292,-0.00012145,0.03495629,-0.031
 08153,0.00065385,-0.00405929,0.03358590,0.00000176,-0.00001139,-0.0005
 6379,0.00001882,0.00001568,0.00056319,-0.00000267,0.00020914,0.0047089
 7,-0.00001451,-0.00000588,-0.00039536,-0.00000014,-0.00000212,-0.00001
 685,-0.00000134,0.00000098,0.00008823,0.00000216,-0.00000064,-0.000058
 98,0.00000205,0.00000573,0.00023659,0.00000893,-0.00001484,-0.00010652
 ,-0.00000268,0.00000157,0.00002409,-0.00000193,-0.00000085,0.00001418,
 0.00086497,-0.00003041,-0.00021195,-0.00207574,0.00056749,-0.00928368,
 0.00129062,-0.00069222,0.00766897,0.00068659,0.00063043,-0.00001116,-0
 .00180312,0.00224413,-0.00006388,-0.01984154,0.02736599,-0.00077749,-0
 .00343478,-0.00438164,0.00010191,-0.00192195,0.00050920,-0.00001798,-0
 .00071083,0.00107320,-0.00002643,-0.00025985,-0.00022029,0.00000279,-0
 .00150339,0.00026784,-0.00001100,0.00022667,0.00018825,-0.00000372,-0.
 00067874,0.00019321,-0.00000523,-0.00019193,0.00003619,-0.00000341,-0.
 13858755,0.11962063,-0.00335085,0.01539490,-0.00918809,0.00022306,0.00
 346036,0.00261381,-0.00005132,0.65294755,0.00078308,0.00050239,-0.0000
 2466,-0.00092984,-0.00467592,0.00013738,0.01242429,-0.00113657,0.00024
 003,-0.00099998,0.00161114,-0.00001506,0.00069955,0.00101076,-0.000035
 54,0.00030680,-0.00012474,0.00000224,0.00035149,0.00016158,-0.00000237
 ,-0.00038616,0.00113310,-0.00003262,-0.00060691,0.00060533,-0.00001205
 ,0.00017751,-0.00009945,0.00000051,0.00009581,0.00012868,-0.00000025,0
 .07814235,-0.25621344,0.00571274,0.00919430,-0.06006802,0.00221809,0.0
 0409362,0.00326614,-0.00019085,-0.10592500,0.34498149,-0.00001747,-0.0
 0001853,-0.00042270,0.00002256,0.00013386,0.00072875,-0.00038433,0.000
 26956,0.00686660,0.00001861,-0.00001909,0.00118502,-0.00002416,-0.0000
 3871,-0.00032321,-0.00001187,0.00000871,-0.00004462,-0.00001219,-0.000
 00921,-0.00000185,0.00000518,-0.00003073,-0.00018164,0.00001628,-0.000
 01225,0.00009669,-0.00000524,0.00000050,-0.00012594,-0.00000347,0.0000
 0015,0.00009348,-0.00224771,0.00579919,-0.04662300,-0.00025911,0.00218
 518,0.02329810,-0.00009161,-0.00019902,-0.00445038,0.00398455,-0.00858
 177,0.02918084,-0.00000564,-0.00013364,0.00000185,0.00054130,0.0002182
 2,-0.00000444,0.00218778,0.00366070,-0.00010289,-0.00124746,-0.0006879
 4,0.00001443,0.00003949,0.00059933,-0.00001224,0.00008572,-0.00006374,
 -0.00000046,-0.00002150,-0.00000380,0.00000173,0.00009436,-0.00000965,
 0.00000138,-0.00001614,0.00011586,-0.00000384,-0.00012230,-0.00002138,
 0.00000005,-0.00000005,-0.00000334,0.00000103,-0.01932099,-0.00772152,
 0.00016530,0.00346029,-0.00408956,0.00012484,0.00098759,0.00142324,-0.
 00003897,-0.50378239,0.00257909,-0.00099001,0.51711994,-0.00003102,0.0
 0019765,-0.00000657,-0.00059989,-0.00022862,-0.00000576,0.00010117,-0.
 00363243,0.00022102,0.00086258,0.00040630,0.00000868,0.00001177,-0.000
 25710,-0.00000794,-0.00009792,-0.00002163,0.00000157,-0.00004129,-0.00
 002608,0.00000205,0.00030340,0.00050069,-0.00001507,0.00006065,-0.0000
 6570,0.00000627,0.00005419,0.00001125,-0.00000268,-0.00004055,0.000023
 62,0.00000088,0.03434347,0.00138470,0.00002324,-0.00261549,0.00326383,
 -0.00020636,-0.00142135,-0.00405231,0.00014861,-0.03502787,-0.03108247
 ,0.00051216,0.00413816,0.03357832,0.00000071,-0.00000860,-0.00001650,0
 .00001656,0.00000552,-0.00039451,-0.00000782,0.00022622,0.00470897,-0.
 00002850,0.00000180,0.00056206,0.00000201,-0.00000290,-0.00056443,0.00
 000405,0.00000074,0.00008843,0.00000187,0.00000267,0.00002337,-0.00000
 609,-0.00001794,-0.00010689,-0.00000157,0.00000853,0.00023736,-0.00000
 283,-0.00000187,-0.00005823,0.00000031,-0.00000089,0.00001407,-0.00095
 280,-0.00006184,-0.00021654,0.00008558,-0.00021312,-0.00444966,0.00003
 612,0.00015761,0.00178329,0.00001016,0.00058419,-0.00927614,0.00084224
 ,-0.00068011,0.00766535||0.00000761,0.00000766,-0.00000294,-0.00000455
 ,0.00001054,0.00000025,0.00001123,-0.00000224,0.00000043,-0.00000604,-
 0.00000738,-0.00000024,0.00001111,-0.00000680,0.00000309,0.00000821,-0
 .00000194,0.00000008,-0.00000328,-0.00000443,0.00000074,0.00000715,-0.
 00000800,0.00000027,0.00000703,0.00000758,-0.00000001,-0.00000353,0.00
 000428,-0.00000083,-0.00000703,0.00000016,-0.00000007,-0.00001361,-0.0
 0000771,-0.00000417,-0.00000115,0.00000798,-0.00000058,-0.00000507,-0.
 00000734,0.00000116,0.,0.00000424,0.00000530,-0.00000809,0.00000340,-0
 .00000247|||@


 SUCCESS IS COUNTED SWEETEST
 BY THOSE WHO NE'ER SUCCEED.
 TO COMPREHEND NECTAR
 REQUIRES SOREST NEED.
           EMILY DICKINSON
 Job cpu time:       0 days  0 hours  6 minutes 41.0 seconds.
 File lengths (MBytes):  RWF=     63 Int=      0 D2E=      0 Chk=      4 Scr=      1
 Normal termination of Gaussian 09 at Fri Aug 25 14:12:18 2023.
