 Entering Gaussian System, Link 0=C:\G09W\g09.exe
 Input=C:\Users\vivek\Downloads\14_09_23\molecule_31.gjf
 Output=C:\Users\vivek\Downloads\14_09_23\molecule_31.log
 Initial command:
 C:/G09W\l1.exe ".\Gau-1624.inp" "C:\Users\vivek\Downloads\14_09_23\molecule_31.log" /scrdir=".\"
 Entering Link 1 = C:/G09W\l1.exe PID=      8952.
  
 Copyright (c) 1988,1990,1992,1993,1995,1998,2003,2009,2013,
            Gaussian, Inc.  All Rights Reserved.
  
 This is part of the Gaussian(R) 09 program.  It is based on
 the Gaussian(R) 03 system (copyright 2003, Gaussian, Inc.),
 the Gaussian(R) 98 system (copyright 1998, Gaussian, Inc.),
 the Gaussian(R) 94 system (copyright 1995, Gaussian, Inc.),
 the Gaussian 92(TM) system (copyright 1992, Gaussian, Inc.),
 the Gaussian 90(TM) system (copyright 1990, Gaussian, Inc.),
 the Gaussian 88(TM) system (copyright 1988, Gaussian, Inc.),
 the Gaussian 86(TM) system (copyright 1986, Carnegie Mellon
 University), and the Gaussian 82(TM) system (copyright 1983,
 Carnegie Mellon University). Gaussian is a federally registered
 trademark of Gaussian, Inc.
  
 This software contains proprietary and confidential information,
 including trade secrets, belonging to Gaussian, Inc.
  
 This software is provided under written license and may be
 used, copied, transmitted, or stored only in accord with that
 written license.
  
 The following legend is applicable only to US Government
 contracts under FAR:
  
                    RESTRICTED RIGHTS LEGEND
  
 Use, reproduction and disclosure by the US Government is
 subject to restrictions as set forth in subparagraphs (a)
 and (c) of the Commercial Computer Software - Restricted
 Rights clause in FAR 52.227-19.
  
 Gaussian, Inc.
 340 Quinnipiac St., Bldg. 40, Wallingford CT 06492
  
  
 ---------------------------------------------------------------
 Warning -- This program may not be used in any manner that
 competes with the business of Gaussian, Inc. or will provide
 assistance to any competitor of Gaussian, Inc.  The licensee
 of this program is prohibited from giving any competitor of
 Gaussian, Inc. access to this program.  By using this program,
 the user acknowledges that Gaussian, Inc. is engaged in the
 business of creating and licensing software in the field of
 computational chemistry and represents and warrants to the
 licensee that it is not a competitor of Gaussian, Inc. and that
 it will not use this program in any manner prohibited above.
 ---------------------------------------------------------------
  

 Cite this work as:
 Gaussian 09, Revision D.01,
 M. J. Frisch, G. W. Trucks, H. B. Schlegel, G. E. Scuseria, 
 M. A. Robb, J. R. Cheeseman, G. Scalmani, V. Barone, B. Mennucci, 
 G. A. Petersson, H. Nakatsuji, M. Caricato, X. Li, H. P. Hratchian, 
 A. F. Izmaylov, J. Bloino, G. Zheng, J. L. Sonnenberg, M. Hada, 
 M. Ehara, K. Toyota, R. Fukuda, J. Hasegawa, M. Ishida, T. Nakajima, 
 Y. Honda, O. Kitao, H. Nakai, T. Vreven, J. A. Montgomery, Jr., 
 J. E. Peralta, F. Ogliaro, M. Bearpark, J. J. Heyd, E. Brothers, 
 K. N. Kudin, V. N. Staroverov, T. Keith, R. Kobayashi, J. Normand, 
 K. Raghavachari, A. Rendell, J. C. Burant, S. S. Iyengar, J. Tomasi, 
 M. Cossi, N. Rega, J. M. Millam, M. Klene, J. E. Knox, J. B. Cross, 
 V. Bakken, C. Adamo, J. Jaramillo, R. Gomperts, R. E. Stratmann, 
 O. Yazyev, A. J. Austin, R. Cammi, C. Pomelli, J. W. Ochterski, 
 R. L. Martin, K. Morokuma, V. G. Zakrzewski, G. A. Voth, 
 P. Salvador, J. J. Dannenberg, S. Dapprich, A. D. Daniels, 
 O. Farkas, J. B. Foresman, J. V. Ortiz, J. Cioslowski, 
 and D. J. Fox, Gaussian, Inc., Wallingford CT, 2013.
 
 ******************************************
 Gaussian 09:  EM64W-G09RevD.01 13-Apr-2013
                14-Sep-2023 
 ******************************************
 %nprocshared=8
 Will use up to    8 processors via shared memory.
 %mem=8GB
 %chk=C:\Users\vivek\Downloads\molecule_31.chk
 ---------------------------------------------------------------------
 # opt freq rb3lyp/6-31+g(d) geom=connectivity empiricaldispersion=gd3
 ---------------------------------------------------------------------
 1/14=-1,18=20,19=15,26=3,38=1,57=2/1,3;
 2/9=110,12=2,17=6,18=5,40=1/2;
 3/5=1,6=6,7=11,11=2,16=1,25=1,30=1,71=1,74=-5,116=1,124=31/1,2,3;
 4//1;
 5/5=2,38=5/2;
 6/7=2,8=2,9=2,10=2,28=1/1;
 7//1,2,3,16;
 1/14=-1,18=20,19=15,26=3/3(2);
 2/9=110/2;
 99//99;
 2/9=110/2;
 3/5=1,6=6,7=11,11=2,16=1,25=1,30=1,71=1,74=-5,116=1,124=31/1,2,3;
 4/5=5,16=3,69=1/1;
 5/5=2,38=5/2;
 7//1,2,3,16;
 1/14=-1,18=20,19=15,26=3/3(-5);
 2/9=110/2;
 6/7=2,8=2,9=2,10=2,19=2,28=1/1;
 99/9=1/99;
 -------------------
 Title Card Required
 -------------------
 Symbolic Z-matrix:
 Charge =  0 Multiplicity = 1
 C                    -2.02788  -0.24557  -0.1243 
 C                    -0.62898  -0.25958  -0.20681 
 C                    -1.98136   2.15103   0.25763 
 C                    -0.58246   2.13703   0.17512 
 C                     0.09373   0.93172  -0.0571 
 H                    -0.03065   3.04661   0.28943 
 O                     0.061    -1.48949  -0.44376 
 H                     0.92612  -1.45613  -0.02897 
 H                    -2.57969  -1.15516  -0.23861 
 H                    -2.49764   3.07131   0.43493 
 C                    -2.70407   0.95973   0.10792 
 H                    -3.77216   0.97043   0.17091 
 Cl                    1.85059   0.91413  -0.16071 
 

 GradGradGradGradGradGradGradGradGradGradGradGradGradGradGradGradGradGrad
 Berny optimization.
 Initialization pass.
                           ----------------------------
                           !    Initial Parameters    !
                           ! (Angstroms and Degrees)  !
 --------------------------                            --------------------------
 ! Name  Definition              Value          Derivative Info.                !
 --------------------------------------------------------------------------------
 ! R1    R(1,2)                  1.4014         estimate D2E/DX2                !
 ! R2    R(1,9)                  1.07           estimate D2E/DX2                !
 ! R3    R(1,11)                 1.4014         estimate D2E/DX2                !
 ! R4    R(2,5)                  1.4014         estimate D2E/DX2                !
 ! R5    R(2,7)                  1.43           estimate D2E/DX2                !
 ! R6    R(3,4)                  1.4014         estimate D2E/DX2                !
 ! R7    R(3,10)                 1.07           estimate D2E/DX2                !
 ! R8    R(3,11)                 1.4014         estimate D2E/DX2                !
 ! R9    R(4,5)                  1.4014         estimate D2E/DX2                !
 ! R10   R(4,6)                  1.07           estimate D2E/DX2                !
 ! R11   R(5,13)                 1.76           estimate D2E/DX2                !
 ! R12   R(7,8)                  0.96           estimate D2E/DX2                !
 ! R13   R(11,12)                1.07           estimate D2E/DX2                !
 ! A1    A(2,1,9)              120.0            estimate D2E/DX2                !
 ! A2    A(2,1,11)             120.0            estimate D2E/DX2                !
 ! A3    A(9,1,11)             120.0            estimate D2E/DX2                !
 ! A4    A(1,2,5)              120.0            estimate D2E/DX2                !
 ! A5    A(1,2,7)              120.0            estimate D2E/DX2                !
 ! A6    A(5,2,7)              120.0            estimate D2E/DX2                !
 ! A7    A(4,3,10)             120.0            estimate D2E/DX2                !
 ! A8    A(4,3,11)             120.0            estimate D2E/DX2                !
 ! A9    A(10,3,11)            120.0            estimate D2E/DX2                !
 ! A10   A(3,4,5)              120.0            estimate D2E/DX2                !
 ! A11   A(3,4,6)              120.0            estimate D2E/DX2                !
 ! A12   A(5,4,6)              120.0            estimate D2E/DX2                !
 ! A13   A(2,5,4)              120.0            estimate D2E/DX2                !
 ! A14   A(2,5,13)             120.0            estimate D2E/DX2                !
 ! A15   A(4,5,13)             120.0            estimate D2E/DX2                !
 ! A16   A(2,7,8)              109.4712         estimate D2E/DX2                !
 ! A17   A(1,11,3)             120.0            estimate D2E/DX2                !
 ! A18   A(1,11,12)            120.0            estimate D2E/DX2                !
 ! A19   A(3,11,12)            120.0            estimate D2E/DX2                !
 ! D1    D(9,1,2,5)           -180.0            estimate D2E/DX2                !
 ! D2    D(9,1,2,7)              0.0            estimate D2E/DX2                !
 ! D3    D(11,1,2,5)             0.0            estimate D2E/DX2                !
 ! D4    D(11,1,2,7)          -180.0            estimate D2E/DX2                !
 ! D5    D(2,1,11,3)             0.0            estimate D2E/DX2                !
 ! D6    D(2,1,11,12)         -180.0            estimate D2E/DX2                !
 ! D7    D(9,1,11,3)          -180.0            estimate D2E/DX2                !
 ! D8    D(9,1,11,12)            0.0            estimate D2E/DX2                !
 ! D9    D(1,2,5,4)              0.0            estimate D2E/DX2                !
 ! D10   D(1,2,5,13)           180.0            estimate D2E/DX2                !
 ! D11   D(7,2,5,4)            180.0            estimate D2E/DX2                !
 ! D12   D(7,2,5,13)             0.0            estimate D2E/DX2                !
 ! D13   D(1,2,7,8)           -150.0            estimate D2E/DX2                !
 ! D14   D(5,2,7,8)             30.0            estimate D2E/DX2                !
 ! D15   D(10,3,4,5)          -180.0            estimate D2E/DX2                !
 ! D16   D(10,3,4,6)             0.0            estimate D2E/DX2                !
 ! D17   D(11,3,4,5)             0.0            estimate D2E/DX2                !
 ! D18   D(11,3,4,6)          -180.0            estimate D2E/DX2                !
 ! D19   D(4,3,11,1)             0.0            estimate D2E/DX2                !
 ! D20   D(4,3,11,12)          180.0            estimate D2E/DX2                !
 ! D21   D(10,3,11,1)          180.0            estimate D2E/DX2                !
 ! D22   D(10,3,11,12)           0.0            estimate D2E/DX2                !
 ! D23   D(3,4,5,2)              0.0            estimate D2E/DX2                !
 ! D24   D(3,4,5,13)          -180.0            estimate D2E/DX2                !
 ! D25   D(6,4,5,2)           -180.0            estimate D2E/DX2                !
 ! D26   D(6,4,5,13)             0.0            estimate D2E/DX2                !
 --------------------------------------------------------------------------------
 Trust Radius=3.00D-01 FncErr=1.00D-07 GrdErr=1.00D-06
 Number of steps in this run=     68 maximum allowed number of steps=    100.
 GradGradGradGradGradGradGradGradGradGradGradGradGradGradGradGradGradGrad

                          Input orientation:                          
 ---------------------------------------------------------------------
 Center     Atomic      Atomic             Coordinates (Angstroms)
 Number     Number       Type             X           Y           Z
 ---------------------------------------------------------------------
      1          6           0       -2.027884   -0.245574   -0.124301
      2          6           0       -0.628985   -0.259582   -0.206807
      3          6           0       -1.981359    2.151034    0.257627
      4          6           0       -0.582460    2.137026    0.175121
      5          6           0        0.093727    0.931718   -0.057096
      6          1           0       -0.030653    3.046610    0.289429
      7          8           0        0.061002   -1.489489   -0.443764
      8          1           0        0.926123   -1.456125   -0.028971
      9          1           0       -2.579690   -1.155158   -0.238609
     10          1           0       -2.497643    3.071314    0.434930
     11          6           0       -2.704071    0.959734    0.107916
     12          1           0       -3.772161    0.970429    0.170912
     13         17           0        1.850586    0.914125   -0.160713
 ---------------------------------------------------------------------
                    Distance matrix (angstroms):
                    1          2          3          4          5
     1  C    0.000000
     2  C    1.401400   0.000000
     3  C    2.427296   2.802800   0.000000
     4  C    2.802800   2.427296   1.401400   0.000000
     5  C    2.427296   1.401400   2.427296   1.401400   0.000000
     6  H    3.872800   3.396345   2.146700   1.070000   2.146700
     7  O    2.452106   1.430000   4.232800   3.734792   2.452106
     8  H    3.193850   1.970203   4.641895   3.902334   2.528926
     9  H    1.070000   2.146700   3.396345   3.872800   3.396345
    10  H    3.396345   3.872800   1.070000   2.146700   3.396345
    11  C    1.401400   2.427296   1.401400   2.427296   2.802800
    12  H    2.146700   3.396345   2.146700   3.396345   3.872800
    13  Cl   4.048303   2.743718   4.048303   2.743718   1.760000
                    6          7          8          9         10
     6  H    0.000000
     7  O    4.595886   0.000000
     8  H    4.614263   0.960000   0.000000
     9  H    4.942800   2.669667   3.524947   0.000000
    10  H    2.471400   5.302800   5.695181   4.280590   0.000000
    11  C    3.396345   3.734792   4.362731   2.146700   2.146700
    12  H    4.280590   4.595886   5.291691   2.471400   2.471400
    13  Cl   2.879094   3.009998   2.547563   4.890332   4.890332
                   11         12         13
    11  C    0.000000
    12  H    1.070000   0.000000
    13  Cl   4.562800   5.632800   0.000000
 Stoichiometry    C6H5ClO
 Framework group  C1[X(C6H5ClO)]
 Deg. of freedom    33
 Full point group                 C1      NOp   1
 Largest Abelian subgroup         C1      NOp   1
 Largest concise Abelian subgroup C1      NOp   1
                         Standard orientation:                         
 ---------------------------------------------------------------------
 Center     Atomic      Atomic             Coordinates (Angstroms)
 Number     Number       Type             X           Y           Z
 ---------------------------------------------------------------------
      1          6           0        1.521678    1.135636   -0.010739
      2          6           0        0.133859    0.941045   -0.014569
      3          6           0        1.858647   -1.268052    0.011667
      4          6           0        0.470828   -1.462643    0.007837
      5          6           0       -0.391566   -0.358095   -0.005281
      6          1           0        0.069655   -2.454565    0.014928
      7          8           0       -0.746134    2.068135   -0.027956
      8          1           0       -1.562697    1.841951    0.423339
      9          1           0        1.922852    2.127558   -0.017830
     10          1           0        2.517104   -2.111399    0.021682
     11          6           0        2.384072    0.031088    0.002379
     12          1           0        3.443703    0.179663    0.005304
     13         17           0       -2.134509   -0.602480   -0.010090
 ---------------------------------------------------------------------
 Rotational constants (GHZ):      2.9320967      1.5098883      0.9974413
 Standard basis: 6-31+G(d) (6D, 7F)
 There are   166 symmetry adapted cartesian basis functions of A   symmetry.
 There are   166 symmetry adapted basis functions of A   symmetry.
   166 basis functions,   300 primitive gaussians,   166 cartesian basis functions
    33 alpha electrons       33 beta electrons
       nuclear repulsion energy       402.1146081353 Hartrees.
 NAtoms=   13 NActive=   13 NUniq=   13 SFac= 1.00D+00 NAtFMM=   60 NAOKFM=F Big=F
 Integral buffers will be    131072 words long.
 Raffenetti 2 integral format.
 Two-electron integral symmetry is turned on.
 Nuclear repulsion after empirical dispersion term =      402.1058476071 Hartrees.
 One-electron integrals computed using PRISM.
 NBasis=   166 RedAO= T EigKep=  3.62D-06  NBF=   166
 NBsUse=   166 1.00D-06 EigRej= -1.00D+00 NBFU=   166
 ExpMin= 4.38D-02 ExpMax= 2.52D+04 ExpMxC= 3.78D+03 IAcc=2 IRadAn=         4 AccDes= 0.00D+00
 Harris functional with IExCor=  402 and IRadAn=       4 diagonalized for initial guess.
 HarFok:  IExCor=  402 AccDes= 0.00D+00 IRadAn=         4 IDoV= 1 UseB2=F ITyADJ=14
 ICtDFT=  3500011 ScaDFX=  1.000000  1.000000  1.000000  1.000000
 FoFCou: FMM=F IPFlag=           0 FMFlag=      100000 FMFlg1=           0
         NFxFlg=           0 DoJE=T BraDBF=F KetDBF=T FulRan=T
         wScrn=  0.000000 ICntrl=     500 IOpCl=  0 I1Cent=   200000004 NGrid=           0
         NMat0=    1 NMatS0=      1 NMatT0=    0 NMatD0=    1 NMtDS0=    0 NMtDT0=    0
 Petite list used in FoFCou.
 Keep R1 ints in memory in canonical form, NReq=98503024.
 Requested convergence on RMS density matrix=1.00D-08 within 128 cycles.
 Requested convergence on MAX density matrix=1.00D-06.
 Requested convergence on             energy=1.00D-06.
 No special actions if energy rises.
 SCF Done:  E(RB3LYP) =  -767.079801555     A.U. after   14 cycles
            NFock= 14  Conv=0.47D-08     -V/T= 2.0059

 **********************************************************************

            Population analysis using the SCF density.

 **********************************************************************

 Orbital symmetries:
       Occupied  (A) (A) (A) (A) (A) (A) (A) (A) (A) (A) (A) (A)
                 (A) (A) (A) (A) (A) (A) (A) (A) (A) (A) (A) (A)
                 (A) (A) (A) (A) (A) (A) (A) (A) (A)
       Virtual   (A) (A) (A) (A) (A) (A) (A) (A) (A) (A) (A) (A)
                 (A) (A) (A) (A) (A) (A) (A) (A) (A) (A) (A) (A)
                 (A) (A) (A) (A) (A) (A) (A) (A) (A) (A) (A) (A)
                 (A) (A) (A) (A) (A) (A) (A) (A) (A) (A) (A) (A)
                 (A) (A) (A) (A) (A) (A) (A) (A) (A) (A) (A) (A)
                 (A) (A) (A) (A) (A) (A) (A) (A) (A) (A) (A) (A)
                 (A) (A) (A) (A) (A) (A) (A) (A) (A) (A) (A) (A)
                 (A) (A) (A) (A) (A) (A) (A) (A) (A) (A) (A) (A)
                 (A) (A) (A) (A) (A) (A) (A) (A) (A) (A) (A) (A)
                 (A) (A) (A) (A) (A) (A) (A) (A) (A) (A) (A) (A)
                 (A) (A) (A) (A) (A) (A) (A) (A) (A) (A) (A) (A)
                 (A)
 The electronic state is 1-A.
 Alpha  occ. eigenvalues -- -101.57227 -19.19258 -10.27872 -10.26783 -10.21908
 Alpha  occ. eigenvalues --  -10.21347 -10.21265 -10.21014  -9.48713  -7.25115
 Alpha  occ. eigenvalues --   -7.24154  -7.24123  -1.05659  -0.90060  -0.85183
 Alpha  occ. eigenvalues --   -0.76608  -0.74850  -0.63308  -0.62508  -0.55787
 Alpha  occ. eigenvalues --   -0.51752  -0.48850  -0.46626  -0.44854  -0.43209
 Alpha  occ. eigenvalues --   -0.40286  -0.39024  -0.37436  -0.35424  -0.34191
 Alpha  occ. eigenvalues --   -0.33404  -0.26590  -0.24877
 Alpha virt. eigenvalues --   -0.03358  -0.02043  -0.00991   0.00326   0.02136
 Alpha virt. eigenvalues --    0.02317   0.04117   0.05153   0.05692   0.05783
 Alpha virt. eigenvalues --    0.07728   0.08075   0.08487   0.08876   0.11168
 Alpha virt. eigenvalues --    0.11487   0.12667   0.12767   0.13014   0.13687
 Alpha virt. eigenvalues --    0.14989   0.15931   0.16393   0.17271   0.17764
 Alpha virt. eigenvalues --    0.18598   0.19386   0.20163   0.21277   0.21539
 Alpha virt. eigenvalues --    0.22004   0.22675   0.23480   0.24281   0.25304
 Alpha virt. eigenvalues --    0.26443   0.27564   0.29038   0.29440   0.30205
 Alpha virt. eigenvalues --    0.31469   0.32484   0.34816   0.35534   0.36228
 Alpha virt. eigenvalues --    0.37772   0.51764   0.52930   0.60014   0.61419
 Alpha virt. eigenvalues --    0.61794   0.64144   0.64941   0.66753   0.68358
 Alpha virt. eigenvalues --    0.68945   0.70273   0.71943   0.72339   0.73284
 Alpha virt. eigenvalues --    0.73780   0.77802   0.78574   0.81707   0.84907
 Alpha virt. eigenvalues --    0.86502   0.89172   0.91991   0.93161   0.94230
 Alpha virt. eigenvalues --    0.94637   0.97927   1.01267   1.03770   1.05217
 Alpha virt. eigenvalues --    1.07243   1.09291   1.12674   1.14355   1.15526
 Alpha virt. eigenvalues --    1.19582   1.21312   1.22821   1.27211   1.29225
 Alpha virt. eigenvalues --    1.36258   1.36858   1.37659   1.41247   1.44155
 Alpha virt. eigenvalues --    1.45797   1.47470   1.48431   1.53435   1.66808
 Alpha virt. eigenvalues --    1.77443   1.79264   1.80335   1.85533   1.91047
 Alpha virt. eigenvalues --    1.93159   1.94814   1.95760   2.00906   2.07760
 Alpha virt. eigenvalues --    2.11241   2.12270   2.14140   2.21425   2.24659
 Alpha virt. eigenvalues --    2.27162   2.27900   2.41718   2.50989   2.51927
 Alpha virt. eigenvalues --    2.56860   2.62997   2.64749   2.69996   2.71967
 Alpha virt. eigenvalues --    2.78795   2.80241   3.00429   3.05333   3.37038
 Alpha virt. eigenvalues --    4.14890   4.21932   4.22742   4.25200   4.33557
 Alpha virt. eigenvalues --    4.39647   4.43030   4.71560
          Condensed to atoms (all electrons):
               1          2          3          4          5          6
     1  C    9.294699  -1.795834   0.152992  -1.119831  -1.057473  -0.017601
     2  C   -1.795834  10.289025  -0.496342  -0.616763  -1.663991   0.037074
     3  C    0.152992  -0.496342   5.563686   0.124149   0.035158  -0.017755
     4  C   -1.119831  -0.616763   0.124149   8.636879  -0.686794   0.267954
     5  C   -1.057473  -1.663991   0.035158  -0.686794   9.540998   0.016828
     6  H   -0.017601   0.037074  -0.017755   0.267954   0.016828   0.508897
     7  O   -0.370503   0.453667  -0.027383   0.084693  -0.195281  -0.000548
     8  H    0.184767   0.092453   0.000005  -0.051195  -0.240816  -0.000006
     9  H    0.325966  -0.037693   0.014665  -0.017019   0.052668   0.000013
    10  H    0.017274  -0.013675   0.306861  -0.038393   0.021910  -0.005188
    11  C   -0.103706   0.704285   0.352773   0.277490  -0.550953   0.008434
    12  H   -0.015168  -0.013519   0.018522   0.017759  -0.009276  -0.000166
    13  Cl   0.299163  -0.097309   0.032764  -0.233818  -0.237782   0.001729
               7          8          9         10         11         12
     1  C   -0.370503   0.184767   0.325966   0.017274  -0.103706  -0.015168
     2  C    0.453667   0.092453  -0.037693  -0.013675   0.704285  -0.013519
     3  C   -0.027383   0.000005   0.014665   0.306861   0.352773   0.018522
     4  C    0.084693  -0.051195  -0.017019  -0.038393   0.277490   0.017759
     5  C   -0.195281  -0.240816   0.052668   0.021910  -0.550953  -0.009276
     6  H   -0.000548  -0.000006   0.000013  -0.005188   0.008434  -0.000166
     7  O    8.478490   0.145843  -0.004843   0.000093   0.048049  -0.000559
     8  H    0.145843   0.359762  -0.000009   0.000000  -0.001771   0.000003
     9  H   -0.004843  -0.000009   0.512310  -0.000165  -0.042556  -0.004895
    10  H    0.000093   0.000000  -0.000165   0.528667   0.001956  -0.004746
    11  C    0.048049  -0.001771  -0.042556   0.001956   5.413279   0.298072
    12  H   -0.000559   0.000003  -0.004895  -0.004746   0.298072   0.526684
    13  Cl   0.012041   0.053889   0.000522   0.000714  -0.054986   0.000422
              13
     1  C    0.299163
     2  C   -0.097309
     3  C    0.032764
     4  C   -0.233818
     5  C   -0.237782
     6  H    0.001729
     7  O    0.012041
     8  H    0.053889
     9  H    0.000522
    10  H    0.000714
    11  C   -0.054986
    12  H    0.000422
    13  Cl  17.112005
 Mulliken charges:
               1
     1  C    0.205255
     2  C   -0.841377
     3  C   -0.060096
     4  C   -0.645112
     5  C    0.974801
     6  H    0.200334
     7  O   -0.623759
     8  H    0.457074
     9  H    0.201036
    10  H    0.184693
    11  C   -0.350366
    12  H    0.186869
    13  Cl   0.110646
 Sum of Mulliken charges =   0.00000
 Mulliken charges with hydrogens summed into heavy atoms:
               1
     1  C    0.406292
     2  C   -0.841377
     3  C    0.124597
     4  C   -0.444778
     5  C    0.974801
     7  O   -0.166684
    11  C   -0.163496
    13  Cl   0.110646
 Electronic spatial extent (au):  <R**2>=           1090.7203
 Charge=              0.0000 electrons
 Dipole moment (field-independent basis, Debye):
    X=              1.1719    Y=             -1.0289    Z=              0.7164  Tot=              1.7161
 Quadrupole moment (field-independent basis, Debye-Ang):
   XX=            -47.6229   YY=            -53.1478   ZZ=            -56.6805
   XY=             -1.1881   XZ=             -1.4655   YZ=              1.4869
 Traceless Quadrupole moment (field-independent basis, Debye-Ang):
   XX=              4.8609   YY=             -0.6641   ZZ=             -4.1967
   XY=             -1.1881   XZ=             -1.4655   YZ=              1.4869
 Octapole moment (field-independent basis, Debye-Ang**2):
  XXX=             -3.4283  YYY=            -11.9198  ZZZ=              0.2574  XYY=              1.1808
  XXY=              8.1129  XXZ=              2.3020  XZZ=             -9.1147  YZZ=              3.3205
  YYZ=              2.7938  XYZ=             -3.2056
 Hexadecapole moment (field-independent basis, Debye-Ang**3):
 XXXX=           -812.6858 YYYY=           -501.4146 ZZZZ=            -67.4816 XXXY=            -11.5629
 XXXZ=             -3.5586 YYYX=             -0.2523 YYYZ=              5.2270 ZZZX=             -0.9783
 ZZZY=              1.1687 XXYY=           -207.5220 XXZZ=           -172.9555 YYZZ=            -99.7642
 XXYZ=              4.8699 YYXZ=             -5.8601 ZZXY=             -0.2918
 N-N= 4.021058476071D+02 E-N=-2.610656822801D+03  KE= 7.626038829877D+02
 Calling FoFJK, ICntrl=      2127 FMM=F ISym2X=0 I1Cent= 0 IOpClX= 0 NMat=1 NMatS=1 NMatT=0.
 ***** Axes restored to original set *****
 -------------------------------------------------------------------
 Center     Atomic                   Forces (Hartrees/Bohr)
 Number     Number              X              Y              Z
 -------------------------------------------------------------------
      1        6           0.006144182    0.010933754   -0.000003358
      2        6           0.023794637   -0.030291219   -0.002052301
      3        6           0.007482704   -0.013306335   -0.002523851
      4        6          -0.007731351   -0.010443165   -0.000858327
      5        6          -0.007836961    0.007610453    0.000720041
      6        1           0.007171834    0.008689349    0.000934636
      7        8          -0.038933992    0.024890360    0.001129213
      8        1           0.010820974    0.003540306    0.002801420
      9        1          -0.002647505   -0.011269013   -0.001161964
     10        1          -0.004462617    0.010523814    0.001990954
     11        6           0.018654918   -0.000633149   -0.002373838
     12        1          -0.011526768   -0.000951252    0.000581869
     13       17          -0.000930053    0.000706097    0.000815506
 -------------------------------------------------------------------
 Cartesian Forces:  Max     0.038933992 RMS     0.011697257

 GradGradGradGradGradGradGradGradGradGradGradGradGradGradGradGradGradGrad
 Berny optimization.
 FormGI is forming the generalized inverse of G from B-inverse, IUseBI=4.
 Internal  Forces:  Max     0.038668071 RMS     0.006815136
 Search for a local minimum.
 Step number   1 out of a maximum of   68
 All quantities printed in internal units (Hartrees-Bohrs-Radians)
 Mixed Optimization -- RFO/linear search
 Second derivative matrix not updated -- first step.
 ITU=  0
     Eigenvalues ---    0.01295   0.01929   0.02070   0.02070   0.02070
     Eigenvalues ---    0.02070   0.02070   0.02070   0.02070   0.02070
     Eigenvalues ---    0.16000   0.16000   0.16000   0.16000   0.16000
     Eigenvalues ---    0.22000   0.22493   0.24487   0.25000   0.25000
     Eigenvalues ---    0.29539   0.37230   0.37230   0.37230   0.37230
     Eigenvalues ---    0.40989   0.41369   0.41539   0.45389   0.45389
     Eigenvalues ---    0.45389   0.45389   0.55473
 RFO step:  Lambda=-8.01298576D-03 EMin= 1.29493776D-02
 Linear search not attempted -- first point.
 Iteration  1 RMS(Cart)=  0.03791312 RMS(Int)=  0.00221206
 Iteration  2 RMS(Cart)=  0.00174647 RMS(Int)=  0.00028682
 Iteration  3 RMS(Cart)=  0.00000948 RMS(Int)=  0.00028671
 Iteration  4 RMS(Cart)=  0.00000000 RMS(Int)=  0.00028671
 Variable       Old X    -DE/DX   Delta X   Delta X   Delta X     New X
                                 (Linear)    (Quad)   (Total)
    R1        2.64826  -0.00870   0.00000  -0.01897  -0.01893   2.62933
    R2        2.02201   0.01107   0.00000   0.02910   0.02910   2.05111
    R3        2.64826  -0.00474   0.00000  -0.01054  -0.01054   2.63772
    R4        2.64826   0.00182   0.00000   0.00409   0.00412   2.65238
    R5        2.70231  -0.03867   0.00000  -0.09253  -0.09253   2.60978
    R6        2.64826  -0.00518   0.00000  -0.01107  -0.01111   2.63715
    R7        2.02201   0.01153   0.00000   0.03033   0.03033   2.05234
    R8        2.64826  -0.00174   0.00000  -0.00392  -0.00395   2.64431
    R9        2.64826  -0.00552   0.00000  -0.01168  -0.01168   2.63658
   R10        2.02201   0.01119   0.00000   0.02941   0.02941   2.05142
   R11        3.32592  -0.00098   0.00000  -0.00324  -0.00324   3.32268
   R12        1.81414   0.01108   0.00000   0.01969   0.01969   1.83383
   R13        2.02201   0.01153   0.00000   0.03032   0.03032   2.05233
    A1        2.09440  -0.00330   0.00000  -0.01970  -0.01974   2.07466
    A2        2.09440  -0.00057   0.00000  -0.00328  -0.00321   2.09119
    A3        2.09440   0.00387   0.00000   0.02297   0.02293   2.11733
    A4        2.09440  -0.00117   0.00000  -0.00445  -0.00460   2.08980
    A5        2.09440  -0.01171   0.00000  -0.04544  -0.04571   2.04868
    A6        2.09440   0.01289   0.00000   0.04989   0.04952   2.14392
    A7        2.09440  -0.00107   0.00000  -0.00674  -0.00673   2.08767
    A8        2.09440  -0.00041   0.00000  -0.00170  -0.00174   2.09266
    A9        2.09440   0.00148   0.00000   0.00844   0.00846   2.10286
   A10        2.09440  -0.00192   0.00000  -0.00747  -0.00749   2.08691
   A11        2.09440   0.00263   0.00000   0.01365   0.01365   2.10805
   A12        2.09440  -0.00070   0.00000  -0.00618  -0.00618   2.08822
   A13        2.09440   0.00212   0.00000   0.00907   0.00910   2.10349
   A14        2.09440   0.00028   0.00000   0.00065   0.00057   2.09496
   A15        2.09440  -0.00240   0.00000  -0.00972  -0.00979   2.08461
   A16        1.91063  -0.00381   0.00000  -0.02270  -0.02270   1.88794
   A17        2.09440   0.00196   0.00000   0.00783   0.00782   2.10222
   A18        2.09440  -0.00206   0.00000  -0.01033  -0.01034   2.08406
   A19        2.09440   0.00010   0.00000   0.00249   0.00248   2.09688
    D1       -3.14159  -0.00015   0.00000  -0.00606  -0.00566   3.13593
    D2        0.00000   0.00101   0.00000   0.03657   0.03569   0.03569
    D3        0.00000   0.00003   0.00000  -0.00002   0.00012   0.00012
    D4       -3.14159   0.00119   0.00000   0.04260   0.04147  -3.10012
    D5        0.00000  -0.00029   0.00000  -0.00965  -0.00985  -0.00985
    D6       -3.14159  -0.00005   0.00000  -0.00163  -0.00169   3.13990
    D7       -3.14159  -0.00011   0.00000  -0.00362  -0.00393   3.13767
    D8        0.00000   0.00012   0.00000   0.00440   0.00423   0.00423
    D9        0.00000   0.00032   0.00000   0.01207   0.01217   0.01217
   D10        3.14159  -0.00017   0.00000  -0.00507  -0.00485   3.13674
   D11        3.14159  -0.00085   0.00000  -0.03056  -0.03154   3.11005
   D12        0.00000  -0.00133   0.00000  -0.04770  -0.04856  -0.04856
   D13       -2.61799  -0.00331   0.00000  -0.15134  -0.15139  -2.76939
   D14        0.52360  -0.00214   0.00000  -0.10871  -0.10865   0.41495
   D15       -3.14159   0.00014   0.00000   0.00486   0.00496  -3.13664
   D16        0.00000  -0.00003   0.00000  -0.00122  -0.00134  -0.00134
   D17        0.00000   0.00014   0.00000   0.00477   0.00485   0.00485
   D18       -3.14159  -0.00003   0.00000  -0.00131  -0.00145   3.14015
   D19        0.00000   0.00020   0.00000   0.00727   0.00737   0.00737
   D20        3.14159  -0.00003   0.00000  -0.00074  -0.00085   3.14074
   D21        3.14159   0.00021   0.00000   0.00718   0.00727  -3.13433
   D22        0.00000  -0.00003   0.00000  -0.00083  -0.00095  -0.00095
   D23        0.00000  -0.00040   0.00000  -0.01445  -0.01462  -0.01462
   D24       -3.14159   0.00008   0.00000   0.00270   0.00230  -3.13929
   D25       -3.14159  -0.00023   0.00000  -0.00837  -0.00839   3.13320
   D26        0.00000   0.00026   0.00000   0.00878   0.00853   0.00853
         Item               Value     Threshold  Converged?
 Maximum Force            0.038668     0.000450     NO 
 RMS     Force            0.006815     0.000300     NO 
 Maximum Displacement     0.174620     0.001800     NO 
 RMS     Displacement     0.038763     0.001200     NO 
 Predicted change in Energy=-4.254665D-03
 GradGradGradGradGradGradGradGradGradGradGradGradGradGradGradGradGradGrad

                          Input orientation:                          
 ---------------------------------------------------------------------
 Center     Atomic      Atomic             Coordinates (Angstroms)
 Number     Number       Type             X           Y           Z
 ---------------------------------------------------------------------
      1          6           0       -2.013626   -0.253512   -0.103766
      2          6           0       -0.624103   -0.266906   -0.174421
      3          6           0       -1.972723    2.146882    0.246122
      4          6           0       -0.578860    2.137033    0.178815
      5          6           0        0.091437    0.933057   -0.039769
      6          1           0       -0.010837    3.055579    0.288687
      7          8           0       -0.012671   -1.479031   -0.427727
      8          1           0        0.906492   -1.424198   -0.121376
      9          1           0       -2.553044   -1.188785   -0.215063
     10          1           0       -2.495432    3.084373    0.411621
     11          6           0       -2.686588    0.952230    0.100270
     12          1           0       -3.771358    0.955244    0.152759
     13         17           0        1.847846    0.924098   -0.120480
 ---------------------------------------------------------------------
                    Distance matrix (angstroms):
                    1          2          3          4          5
     1  C    0.000000
     2  C    1.391383   0.000000
     3  C    2.426105   2.796785   0.000000
     4  C    2.802339   2.430173   1.395522   0.000000
     5  C    2.417298   1.403581   2.411610   1.395218   0.000000
     6  H    3.887835   3.410200   2.162530   1.085564   2.150218
     7  O    2.368685   1.381036   4.176497   3.710038   2.445306
     8  H    3.146094   1.919599   4.601907   3.870239   2.495522
     9  H    1.085401   2.138300   3.417037   3.887622   3.395029
    10  H    3.411632   3.882832   1.086049   2.150558   3.394673
    11  C    1.395823   2.411554   1.399310   2.419182   2.781618
    12  H    2.148608   3.392037   2.159585   3.404313   3.867654
    13  Cl   4.037079   2.744436   4.028194   2.729412   1.758285
                    6          7          8          9         10
     6  H    0.000000
     7  O    4.590854   0.000000
     8  H    4.591083   0.970422   0.000000
     9  H    4.973048   2.565728   3.468802   0.000000
    10  H    2.487801   5.262439   5.673128   4.319251   0.000000
    11  C    3.408697   3.652348   4.313556   2.168229   2.163218
    12  H    4.309455   4.515572   5.255395   2.493280   2.495633
    13  Cl   2.857504   3.054661   2.529949   4.882730   4.879957
                   11         12         13
    11  C    0.000000
    12  H    1.086044   0.000000
    13  Cl   4.539891   5.625930   0.000000
 Stoichiometry    C6H5ClO
 Framework group  C1[X(C6H5ClO)]
 Deg. of freedom    33
 Full point group                 C1      NOp   1
 Largest Abelian subgroup         C1      NOp   1
 Largest concise Abelian subgroup C1      NOp   1
                         Standard orientation:                         
 ---------------------------------------------------------------------
 Center     Atomic      Atomic             Coordinates (Angstroms)
 Number     Number       Type             X           Y           Z
 ---------------------------------------------------------------------
      1          6           0        1.529761    1.103340    0.007395
      2          6           0        0.147712    0.942486    0.004127
      3          6           0        1.810276   -1.306486    0.001703
      4          6           0        0.424587   -1.471861    0.001423
      5          6           0       -0.402899   -0.348545   -0.006194
      6          1           0       -0.016543   -2.463755    0.001184
      7          8           0       -0.624764    2.086450   -0.039332
      8          1           0       -1.508092    1.868131    0.297990
      9          1           0        1.940398    2.108062    0.010018
     10          1           0        2.455069   -2.180411    0.002950
     11          6           0        2.359160   -0.019322    0.000254
     12          1           0        3.436997    0.113930    0.001263
     13         17           0       -2.148312   -0.560896   -0.003000
 ---------------------------------------------------------------------
 Rotational constants (GHZ):      2.9258742      1.5315235      1.0057570
 Standard basis: 6-31+G(d) (6D, 7F)
 There are   166 symmetry adapted cartesian basis functions of A   symmetry.
 There are   166 symmetry adapted basis functions of A   symmetry.
   166 basis functions,   300 primitive gaussians,   166 cartesian basis functions
    33 alpha electrons       33 beta electrons
       nuclear repulsion energy       403.7970704390 Hartrees.
 NAtoms=   13 NActive=   13 NUniq=   13 SFac= 1.00D+00 NAtFMM=   60 NAOKFM=F Big=F
 Integral buffers will be    131072 words long.
 Raffenetti 2 integral format.
 Two-electron integral symmetry is turned on.
 Nuclear repulsion after empirical dispersion term =      403.7883041858 Hartrees.
 One-electron integrals computed using PRISM.
 NBasis=   166 RedAO= T EigKep=  3.63D-06  NBF=   166
 NBsUse=   166 1.00D-06 EigRej= -1.00D+00 NBFU=   166
 Initial guess from the checkpoint file:  "C:\Users\vivek\Downloads\molecule_31.chk"
 B after Tr=     0.000000    0.000000    0.000000
         Rot=    0.999913   -0.000035    0.000094    0.013166 Ang=  -1.51 deg.
 ExpMin= 4.38D-02 ExpMax= 2.52D+04 ExpMxC= 3.78D+03 IAcc=2 IRadAn=         4 AccDes= 0.00D+00
 Harris functional with IExCor=  402 and IRadAn=       4 diagonalized for initial guess.
 HarFok:  IExCor=  402 AccDes= 0.00D+00 IRadAn=         4 IDoV= 1 UseB2=F ITyADJ=14
 ICtDFT=  3500011 ScaDFX=  1.000000  1.000000  1.000000  1.000000
 FoFCou: FMM=F IPFlag=           0 FMFlag=      100000 FMFlg1=           0
         NFxFlg=           0 DoJE=T BraDBF=F KetDBF=T FulRan=T
         wScrn=  0.000000 ICntrl=     500 IOpCl=  0 I1Cent=   200000004 NGrid=           0
         NMat0=    1 NMatS0=      1 NMatT0=    0 NMatD0=    1 NMtDS0=    0 NMtDT0=    0
 Petite list used in FoFCou.
 Keep R1 ints in memory in canonical form, NReq=98503024.
 Requested convergence on RMS density matrix=1.00D-08 within 128 cycles.
 Requested convergence on MAX density matrix=1.00D-06.
 Requested convergence on             energy=1.00D-06.
 No special actions if energy rises.
 SCF Done:  E(RB3LYP) =  -767.084563400     A.U. after   12 cycles
            NFock= 12  Conv=0.94D-08     -V/T= 2.0058
 Calling FoFJK, ICntrl=      2127 FMM=F ISym2X=0 I1Cent= 0 IOpClX= 0 NMat=1 NMatS=1 NMatT=0.
 ***** Axes restored to original set *****
 -------------------------------------------------------------------
 Center     Atomic                   Forces (Hartrees/Bohr)
 Number     Number              X              Y              Z
 -------------------------------------------------------------------
      1        6          -0.005867006    0.004964494   -0.000245226
      2        6           0.010315383   -0.012599441   -0.005038000
      3        6          -0.001094026    0.000022354   -0.000194503
      4        6          -0.000742676   -0.000166150    0.000110234
      5        6          -0.003615705    0.002834049    0.001901850
      6        1           0.000444431   -0.000387067   -0.000051407
      7        8          -0.005360418    0.009424831    0.006368703
      8        1           0.003519616   -0.001630982   -0.003052056
      9        1           0.001021711   -0.000512620    0.000008046
     10        1          -0.000036084    0.000011844   -0.000028650
     11        6           0.000284225   -0.000577904    0.000297151
     12        1          -0.000303691    0.000193983    0.000049524
     13       17           0.001434242   -0.001577391   -0.000125666
 -------------------------------------------------------------------
 Cartesian Forces:  Max     0.012599441 RMS     0.003808060

 GradGradGradGradGradGradGradGradGradGradGradGradGradGradGradGradGradGrad
 Berny optimization.
 Using GEDIIS/GDIIS optimizer.
 FormGI is forming the generalized inverse of G from B-inverse, IUseBI=4.
 Internal  Forces:  Max     0.008262970 RMS     0.001830054
 Search for a local minimum.
 Step number   2 out of a maximum of   68
 All quantities printed in internal units (Hartrees-Bohrs-Radians)
 Mixed Optimization -- RFO/linear search
 Update second derivatives using D2CorX and points    1    2
 DE= -4.76D-03 DEPred=-4.25D-03 R= 1.12D+00
 TightC=F SS=  1.41D+00  RLast= 2.49D-01 DXNew= 5.0454D-01 7.4676D-01
 Trust test= 1.12D+00 RLast= 2.49D-01 DXMaxT set to 5.05D-01
 ITU=  1  0
 Use linear search instead of GDIIS.
     Eigenvalues ---    0.01133   0.01966   0.02068   0.02070   0.02070
     Eigenvalues ---    0.02070   0.02070   0.02070   0.02071   0.02088
     Eigenvalues ---    0.15467   0.15999   0.16000   0.16000   0.16554
     Eigenvalues ---    0.22006   0.22394   0.23560   0.24819   0.26624
     Eigenvalues ---    0.29546   0.35746   0.37230   0.37230   0.37244
     Eigenvalues ---    0.38461   0.41418   0.41843   0.45345   0.45389
     Eigenvalues ---    0.45389   0.49122   0.55220
 RFO step:  Lambda=-1.72504213D-03 EMin= 1.13348456D-02
 Quartic linear search produced a step of  0.17668.
 Iteration  1 RMS(Cart)=  0.03910237 RMS(Int)=  0.00534669
 Iteration  2 RMS(Cart)=  0.00522481 RMS(Int)=  0.00008818
 Iteration  3 RMS(Cart)=  0.00007633 RMS(Int)=  0.00004345
 Iteration  4 RMS(Cart)=  0.00000001 RMS(Int)=  0.00004345
 Variable       Old X    -DE/DX   Delta X   Delta X   Delta X     New X
                                 (Linear)    (Quad)   (Total)
    R1        2.62933   0.00535  -0.00334   0.01377   0.01045   2.63978
    R2        2.05111  -0.00007   0.00514  -0.00009   0.00505   2.05617
    R3        2.63772  -0.00045  -0.00186  -0.00115  -0.00302   2.63470
    R4        2.65238  -0.00043   0.00073  -0.00092  -0.00017   2.65222
    R5        2.60978  -0.00826  -0.01635  -0.02383  -0.04018   2.56960
    R6        2.63715   0.00067  -0.00196   0.00143  -0.00055   2.63660
    R7        2.05234   0.00002   0.00536   0.00020   0.00556   2.05789
    R8        2.64431  -0.00063  -0.00070  -0.00178  -0.00250   2.64182
    R9        2.63658   0.00039  -0.00206   0.00088  -0.00118   2.63540
   R10        2.05142  -0.00010   0.00520  -0.00019   0.00501   2.05643
   R11        3.32268   0.00145  -0.00057   0.00566   0.00509   3.32777
   R12        1.83383   0.00228   0.00348   0.00490   0.00838   1.84221
   R13        2.05233   0.00031   0.00536   0.00108   0.00644   2.05876
    A1        2.07466  -0.00206  -0.00349  -0.01308  -0.01658   2.05807
    A2        2.09119   0.00181  -0.00057   0.00984   0.00928   2.10047
    A3        2.11733   0.00026   0.00405   0.00327   0.00731   2.12464
    A4        2.08980  -0.00332  -0.00081  -0.01463  -0.01546   2.07433
    A5        2.04868   0.00191  -0.00808   0.00885   0.00069   2.04937
    A6        2.14392   0.00141   0.00875   0.00649   0.01515   2.15907
    A7        2.08767   0.00022  -0.00119   0.00176   0.00058   2.08825
    A8        2.09266  -0.00040  -0.00031  -0.00307  -0.00341   2.08924
    A9        2.10286   0.00018   0.00150   0.00131   0.00281   2.10567
   A10        2.08691   0.00078  -0.00132   0.00336   0.00203   2.08893
   A11        2.10805   0.00021   0.00241   0.00258   0.00500   2.11304
   A12        2.08822  -0.00099  -0.00109  -0.00593  -0.00701   2.08120
   A13        2.10349   0.00138   0.00161   0.00634   0.00797   2.11146
   A14        2.09496  -0.00329   0.00010  -0.01522  -0.01515   2.07981
   A15        2.08461   0.00191  -0.00173   0.00884   0.00709   2.09169
   A16        1.88794   0.00548  -0.00401   0.03964   0.03563   1.92357
   A17        2.10222  -0.00025   0.00138  -0.00173  -0.00037   2.10185
   A18        2.08406   0.00033  -0.00183   0.00241   0.00059   2.08465
   A19        2.09688  -0.00008   0.00044  -0.00065  -0.00021   2.09667
    D1        3.13593   0.00019  -0.00100   0.01043   0.00943  -3.13782
    D2        0.03569  -0.00006   0.00631  -0.00847  -0.00228   0.03341
    D3        0.00012   0.00010   0.00002   0.00517   0.00520   0.00531
    D4       -3.10012  -0.00015   0.00733  -0.01373  -0.00652  -3.10664
    D5       -0.00985   0.00006  -0.00174   0.00445   0.00267  -0.00717
    D6        3.13990   0.00000  -0.00030   0.00024  -0.00006   3.13984
    D7        3.13767  -0.00002  -0.00069  -0.00088  -0.00165   3.13602
    D8        0.00423  -0.00008   0.00075  -0.00509  -0.00438  -0.00015
    D9        0.01217  -0.00016   0.00215  -0.00960  -0.00742   0.00475
   D10        3.13674  -0.00024  -0.00086  -0.01226  -0.01303   3.12371
   D11        3.11005   0.00011  -0.00557   0.01039   0.00466   3.11471
   D12       -0.04856   0.00003  -0.00858   0.00773  -0.00095  -0.04951
   D13       -2.76939  -0.00272  -0.02675  -0.18313  -0.20984  -2.97922
   D14        0.41495  -0.00286  -0.01920  -0.20213  -0.22137   0.19357
   D15       -3.13664  -0.00001   0.00088  -0.00094  -0.00005  -3.13668
   D16       -0.00134   0.00003  -0.00024   0.00159   0.00135   0.00001
   D17        0.00485   0.00011   0.00086   0.00525   0.00615   0.01100
   D18        3.14015   0.00014  -0.00026   0.00779   0.00755  -3.13549
   D19        0.00737  -0.00017   0.00130  -0.00974  -0.00843  -0.00106
   D20        3.14074  -0.00011  -0.00015  -0.00549  -0.00567   3.13507
   D21       -3.13433  -0.00005   0.00128  -0.00349  -0.00217  -3.13650
   D22       -0.00095   0.00001  -0.00017   0.00076   0.00058  -0.00037
   D23       -0.01462   0.00003  -0.00258   0.00427   0.00168  -0.01294
   D24       -3.13929   0.00016   0.00041   0.00715   0.00754  -3.13175
   D25        3.13320  -0.00001  -0.00148   0.00173   0.00027   3.13346
   D26        0.00853   0.00012   0.00151   0.00461   0.00613   0.01465
         Item               Value     Threshold  Converged?
 Maximum Force            0.008263     0.000450     NO 
 RMS     Force            0.001830     0.000300     NO 
 Maximum Displacement     0.252954     0.001800     NO 
 RMS     Displacement     0.042023     0.001200     NO 
 Predicted change in Energy=-1.159180D-03
 GradGradGradGradGradGradGradGradGradGradGradGradGradGradGradGradGradGrad

                          Input orientation:                          
 ---------------------------------------------------------------------
 Center     Atomic      Atomic             Coordinates (Angstroms)
 Number     Number       Type             X           Y           Z
 ---------------------------------------------------------------------
      1          6           0       -2.015323   -0.250246   -0.087908
      2          6           0       -0.620107   -0.276389   -0.151532
      3          6           0       -1.977665    2.151541    0.232203
      4          6           0       -0.583501    2.135720    0.180030
      5          6           0        0.086594    0.928863   -0.018368
      6          1           0       -0.007070    3.052471    0.287281
      7          8           0       -0.025930   -1.478621   -0.376429
      8          1           0        0.938600   -1.405547   -0.255234
      9          1           0       -2.547708   -1.193738   -0.189385
     10          1           0       -2.500438    3.094941    0.382557
     11          6           0       -2.689522    0.955831    0.098369
     12          1           0       -3.778004    0.959342    0.144129
     13         17           0        1.846608    0.901893   -0.070042
 ---------------------------------------------------------------------
                    Distance matrix (angstroms):
                    1          2          3          4          5
     1  C    0.000000
     2  C    1.396911   0.000000
     3  C    2.423318   2.808035   0.000000
     4  C    2.795485   2.435064   1.395230   0.000000
     5  C    2.411056   1.403492   2.412239   1.394595   0.000000
     6  H    3.883528   3.413163   2.167477   1.088214   2.147536
     7  O    2.355809   1.359775   4.166267   3.699187   2.436564
     8  H    3.176221   1.927517   4.625481   3.879022   2.496294
     9  H    1.088076   2.135089   3.419588   3.883280   3.387363
    10  H    3.412763   3.897019   1.088991   2.153083   3.397848
    11  C    1.394225   2.421424   1.397989   2.415394   2.778700
    12  H    2.150346   3.403933   2.161092   3.404409   3.868134
    13  Cl   4.030168   2.734899   4.034605   2.736840   1.760978
                    6          7          8          9         10
     6  H    0.000000
     7  O    4.579483   0.000000
     8  H    4.589394   0.974856   0.000000
     9  H    4.971152   2.544702   3.493357   0.000000
    10  H    2.495549   5.255161   5.699838   4.326907   0.000000
    11  C    3.409859   3.639603   4.343318   2.173376   2.166173
    12  H    4.315279   4.504742   5.291365   2.502121   2.499962
    13  Cl   2.861606   3.044193   2.486575   4.869900   4.889899
                   11         12         13
    11  C    0.000000
    12  H    1.089450   0.000000
    13  Cl   4.539575   5.628981   0.000000
 Stoichiometry    C6H5ClO
 Framework group  C1[X(C6H5ClO)]
 Deg. of freedom    33
 Full point group                 C1      NOp   1
 Largest Abelian subgroup         C1      NOp   1
 Largest concise Abelian subgroup C1      NOp   1
                         Standard orientation:                         
 ---------------------------------------------------------------------
 Center     Atomic      Atomic             Coordinates (Angstroms)
 Number     Number       Type             X           Y           Z
 ---------------------------------------------------------------------
      1          6           0        1.521700    1.105784    0.013827
      2          6           0        0.133983    0.946115    0.003501
      3          6           0        1.820593   -1.298952   -0.005524
      4          6           0        0.435905   -1.470141   -0.006006
      5          6           0       -0.398214   -0.352497   -0.009258
      6          1           0       -0.007070   -2.464111   -0.008447
      7          8           0       -0.625817    2.073330   -0.029284
      8          1           0       -1.564150    1.851326    0.114212
      9          1           0        1.917845    2.119094    0.027283
     10          1           0        2.471338   -2.172123   -0.007629
     11          6           0        2.359123   -0.008895    0.005052
     12          1           0        3.439304    0.132759    0.011643
     13         17           0       -2.146428   -0.563651    0.005157
 ---------------------------------------------------------------------
 Rotational constants (GHZ):      2.9431789      1.5313920      1.0074145
 Standard basis: 6-31+G(d) (6D, 7F)
 There are   166 symmetry adapted cartesian basis functions of A   symmetry.
 There are   166 symmetry adapted basis functions of A   symmetry.
   166 basis functions,   300 primitive gaussians,   166 cartesian basis functions
    33 alpha electrons       33 beta electrons
       nuclear repulsion energy       404.2440876366 Hartrees.
 NAtoms=   13 NActive=   13 NUniq=   13 SFac= 1.00D+00 NAtFMM=   60 NAOKFM=F Big=F
 Integral buffers will be    131072 words long.
 Raffenetti 2 integral format.
 Two-electron integral symmetry is turned on.
 Nuclear repulsion after empirical dispersion term =      404.2353763253 Hartrees.
 One-electron integrals computed using PRISM.
 NBasis=   166 RedAO= T EigKep=  3.67D-06  NBF=   166
 NBsUse=   166 1.00D-06 EigRej= -1.00D+00 NBFU=   166
 Initial guess from the checkpoint file:  "C:\Users\vivek\Downloads\molecule_31.chk"
 B after Tr=     0.000000    0.000000    0.000000
         Rot=    0.999998    0.000009    0.000075   -0.002101 Ang=   0.24 deg.
 ExpMin= 4.38D-02 ExpMax= 2.52D+04 ExpMxC= 3.78D+03 IAcc=2 IRadAn=         4 AccDes= 0.00D+00
 Harris functional with IExCor=  402 and IRadAn=       4 diagonalized for initial guess.
 HarFok:  IExCor=  402 AccDes= 0.00D+00 IRadAn=         4 IDoV= 1 UseB2=F ITyADJ=14
 ICtDFT=  3500011 ScaDFX=  1.000000  1.000000  1.000000  1.000000
 FoFCou: FMM=F IPFlag=           0 FMFlag=      100000 FMFlg1=           0
         NFxFlg=           0 DoJE=T BraDBF=F KetDBF=T FulRan=T
         wScrn=  0.000000 ICntrl=     500 IOpCl=  0 I1Cent=   200000004 NGrid=           0
         NMat0=    1 NMatS0=      1 NMatT0=    0 NMatD0=    1 NMtDS0=    0 NMtDT0=    0
 Petite list used in FoFCou.
 Keep R1 ints in memory in canonical form, NReq=98503024.
 Requested convergence on RMS density matrix=1.00D-08 within 128 cycles.
 Requested convergence on MAX density matrix=1.00D-06.
 Requested convergence on             energy=1.00D-06.
 No special actions if energy rises.
 SCF Done:  E(RB3LYP) =  -767.085857722     A.U. after   12 cycles
            NFock= 12  Conv=0.56D-08     -V/T= 2.0058
 Calling FoFJK, ICntrl=      2127 FMM=F ISym2X=0 I1Cent= 0 IOpClX= 0 NMat=1 NMatS=1 NMatT=0.
 ***** Axes restored to original set *****
 -------------------------------------------------------------------
 Center     Atomic                   Forces (Hartrees/Bohr)
 Number     Number              X              Y              Z
 -------------------------------------------------------------------
      1        6          -0.003531031    0.000193226   -0.000311560
      2        6           0.001577896    0.000128692   -0.002099066
      3        6          -0.000796585    0.002976369    0.000633402
      4        6           0.001173194    0.001752928   -0.000081084
      5        6          -0.001736702    0.000867380    0.001879442
      6        1          -0.001017199   -0.001550326   -0.000194122
      7        8           0.003500478   -0.002544815    0.002596638
      8        1          -0.001932277    0.000457237   -0.001707586
      9        1           0.000582438    0.001539329   -0.000026846
     10        1           0.000909727   -0.001793985   -0.000336664
     11        6          -0.002320985   -0.001607008    0.000205406
     12        1           0.002010936   -0.000011409   -0.000117796
     13       17           0.001580111   -0.000407618   -0.000440165
 -------------------------------------------------------------------
 Cartesian Forces:  Max     0.003531031 RMS     0.001591382

 GradGradGradGradGradGradGradGradGradGradGradGradGradGradGradGradGradGrad
 Berny optimization.
 Using GEDIIS/GDIIS optimizer.
 FormGI is forming the generalized inverse of G from B-inverse, IUseBI=4.
 Internal  Forces:  Max     0.002820541 RMS     0.000904442
 Search for a local minimum.
 Step number   3 out of a maximum of   68
 All quantities printed in internal units (Hartrees-Bohrs-Radians)
 Mixed Optimization -- En-DIIS/RFO-DIIS
 Update second derivatives using D2CorX and points    1    2    3
 DE= -1.29D-03 DEPred=-1.16D-03 R= 1.12D+00
 TightC=F SS=  1.41D+00  RLast= 3.14D-01 DXNew= 8.4853D-01 9.4075D-01
 Trust test= 1.12D+00 RLast= 3.14D-01 DXMaxT set to 8.49D-01
 ITU=  1  1  0
 Use linear search instead of GDIIS.
     Eigenvalues ---    0.00861   0.01961   0.02070   0.02070   0.02070
     Eigenvalues ---    0.02070   0.02070   0.02071   0.02075   0.02144
     Eigenvalues ---    0.15938   0.16000   0.16000   0.16007   0.17173
     Eigenvalues ---    0.21989   0.22540   0.23326   0.24883   0.26427
     Eigenvalues ---    0.29382   0.37207   0.37230   0.37236   0.37549
     Eigenvalues ---    0.40109   0.41398   0.42509   0.45335   0.45389
     Eigenvalues ---    0.45794   0.50543   0.57364
 RFO step:  Lambda=-3.31123800D-04 EMin= 8.61384481D-03
 Quartic linear search produced a step of  0.26495.
 Iteration  1 RMS(Cart)=  0.02116998 RMS(Int)=  0.00165016
 Iteration  2 RMS(Cart)=  0.00172399 RMS(Int)=  0.00002631
 Iteration  3 RMS(Cart)=  0.00000717 RMS(Int)=  0.00002588
 Iteration  4 RMS(Cart)=  0.00000000 RMS(Int)=  0.00002588
 Variable       Old X    -DE/DX   Delta X   Delta X   Delta X     New X
                                 (Linear)    (Quad)   (Total)
    R1        2.63978   0.00282   0.00277   0.00373   0.00651   2.64629
    R2        2.05617  -0.00162   0.00134  -0.00335  -0.00201   2.05415
    R3        2.63470  -0.00055  -0.00080  -0.00182  -0.00263   2.63208
    R4        2.65222   0.00066  -0.00004   0.00219   0.00216   2.65438
    R5        2.56960   0.00238  -0.01065   0.00569  -0.00495   2.56465
    R6        2.63660   0.00034  -0.00015  -0.00013  -0.00029   2.63631
    R7        2.05789  -0.00204   0.00147  -0.00466  -0.00319   2.05470
    R8        2.64182   0.00112  -0.00066   0.00294   0.00226   2.64408
    R9        2.63540   0.00038  -0.00031   0.00009  -0.00021   2.63519
   R10        2.05643  -0.00186   0.00133  -0.00410  -0.00277   2.05366
   R11        3.32777   0.00160   0.00135   0.00513   0.00648   3.33425
   R12        1.84221  -0.00209   0.00222  -0.00416  -0.00194   1.84027
   R13        2.05876  -0.00201   0.00171  -0.00475  -0.00305   2.05571
    A1        2.05807   0.00009  -0.00439   0.00218  -0.00223   2.05585
    A2        2.10047   0.00029   0.00246  -0.00031   0.00217   2.10264
    A3        2.12464  -0.00038   0.00194  -0.00187   0.00005   2.12469
    A4        2.07433  -0.00106  -0.00410  -0.00214  -0.00627   2.06806
    A5        2.04937   0.00149   0.00018   0.00272   0.00281   2.05218
    A6        2.15907  -0.00041   0.00401  -0.00008   0.00384   2.16290
    A7        2.08825   0.00013   0.00015   0.00034   0.00051   2.08876
    A8        2.08924  -0.00012  -0.00090  -0.00055  -0.00148   2.08776
    A9        2.10567  -0.00002   0.00075   0.00024   0.00099   2.10666
   A10        2.08893   0.00012   0.00054  -0.00078  -0.00024   2.08869
   A11        2.11304  -0.00009   0.00132  -0.00006   0.00126   2.11430
   A12        2.08120  -0.00002  -0.00186   0.00085  -0.00101   2.08019
   A13        2.11146   0.00060   0.00211   0.00229   0.00440   2.11585
   A14        2.07981  -0.00102  -0.00401  -0.00184  -0.00590   2.07392
   A15        2.09169   0.00043   0.00188  -0.00014   0.00169   2.09339
   A16        1.92357  -0.00048   0.00944  -0.01236  -0.00292   1.92065
   A17        2.10185   0.00018  -0.00010   0.00160   0.00149   2.10334
   A18        2.08465  -0.00010   0.00016  -0.00152  -0.00136   2.08329
   A19        2.09667  -0.00008  -0.00005  -0.00007  -0.00012   2.09655
    D1       -3.13782   0.00003   0.00250  -0.00050   0.00197  -3.13586
    D2        0.03341  -0.00037  -0.00060  -0.01818  -0.01876   0.01465
    D3        0.00531  -0.00001   0.00138  -0.00121   0.00014   0.00545
    D4       -3.10664  -0.00040  -0.00173  -0.01890  -0.02059  -3.12723
    D5       -0.00717   0.00010   0.00071   0.00339   0.00410  -0.00308
    D6        3.13984   0.00001  -0.00002   0.00031   0.00030   3.14014
    D7        3.13602   0.00006  -0.00044   0.00264   0.00220   3.13822
    D8       -0.00015  -0.00003  -0.00116  -0.00044  -0.00160  -0.00175
    D9        0.00475  -0.00014  -0.00197  -0.00552  -0.00747  -0.00272
   D10        3.12371   0.00016  -0.00345   0.01064   0.00719   3.13090
   D11        3.11471   0.00031   0.00123   0.01340   0.01464   3.12935
   D12       -0.04951   0.00061  -0.00025   0.02956   0.02930  -0.02021
   D13       -2.97922  -0.00114  -0.05560  -0.06674  -0.12227  -3.10149
   D14        0.19357  -0.00155  -0.05865  -0.08532  -0.14404   0.04954
   D15       -3.13668  -0.00005  -0.00001  -0.00223  -0.00224  -3.13892
   D16        0.00001   0.00002   0.00036   0.00071   0.00107   0.00108
   D17        0.01100  -0.00012   0.00163  -0.00777  -0.00613   0.00487
   D18       -3.13549  -0.00005   0.00200  -0.00484  -0.00282  -3.13831
   D19       -0.00106  -0.00003  -0.00223   0.00113  -0.00110  -0.00216
   D20        3.13507   0.00006  -0.00150   0.00423   0.00273   3.13780
   D21       -3.13650  -0.00010  -0.00058  -0.00447  -0.00503  -3.14153
   D22       -0.00037  -0.00002   0.00015  -0.00137  -0.00121  -0.00158
   D23       -0.01294   0.00021   0.00045   0.01004   0.01051  -0.00243
   D24       -3.13175  -0.00007   0.00200  -0.00621  -0.00422  -3.13597
   D25        3.13346   0.00014   0.00007   0.00716   0.00726   3.14072
   D26        0.01465  -0.00014   0.00162  -0.00909  -0.00747   0.00718
         Item               Value     Threshold  Converged?
 Maximum Force            0.002821     0.000450     NO 
 RMS     Force            0.000904     0.000300     NO 
 Maximum Displacement     0.123723     0.001800     NO 
 RMS     Displacement     0.021045     0.001200     NO 
 Predicted change in Energy=-2.624018D-04
 GradGradGradGradGradGradGradGradGradGradGradGradGradGradGradGradGradGrad

                          Input orientation:                          
 ---------------------------------------------------------------------
 Center     Atomic      Atomic             Coordinates (Angstroms)
 Number     Number       Type             X           Y           Z
 ---------------------------------------------------------------------
      1          6           0       -2.017752   -0.250065   -0.083983
      2          6           0       -0.618890   -0.281667   -0.140398
      3          6           0       -1.978520    2.153403    0.229810
      4          6           0       -0.584382    2.135705    0.181775
      5          6           0        0.084692    0.926305   -0.003354
      6          1           0       -0.006836    3.050495    0.284832
      7          8           0       -0.024955   -1.486152   -0.336160
      8          1           0        0.943700   -1.387113   -0.320705
      9          1           0       -2.550506   -1.192074   -0.185876
     10          1           0       -2.500356    3.096692    0.371655
     11          6           0       -2.690283    0.956068    0.097500
     12          1           0       -3.777386    0.959918    0.137267
     13         17           0        1.848009    0.894548   -0.056691
 ---------------------------------------------------------------------
                    Distance matrix (angstroms):
                    1          2          3          4          5
     1  C    0.000000
     2  C    1.400356   0.000000
     3  C    2.424183   2.813399   0.000000
     4  C    2.795903   2.438990   1.395077   0.000000
     5  C    2.410523   1.404637   2.411841   1.394481   0.000000
     6  H    3.882462   3.414489   2.166873   1.086749   2.145603
     7  O    2.358547   1.357153   4.169304   3.701224   2.437772
     8  H    3.181056   1.922552   4.623602   3.872695   2.488074
     9  H    1.087010   2.135896   3.419383   3.882644   3.386017
    10  H    3.411934   3.900695   1.087302   2.151862   3.396127
    11  C    1.392835   2.424717   1.399188   2.415257   2.776967
    12  H    2.146933   3.405103   2.160761   3.402900   3.864783
    13  Cl   4.031748   2.734242   4.038455   2.741142   1.764409
                    6          7          8          9         10
     6  H    0.000000
     7  O    4.578988   0.000000
     8  H    4.578489   0.973827   0.000000
     9  H    4.969026   2.547052   3.502241   0.000000
    10  H    2.495460   5.256526   5.696086   4.325143   0.000000
    11  C    3.409195   3.640944   4.344102   2.171256   2.166450
    12  H    4.313854   4.504234   5.292159   2.498144   2.500308
    13  Cl   2.864471   3.042011   2.468493   4.870073   4.892974
                   11         12         13
    11  C    0.000000
    12  H    1.087836   0.000000
    13  Cl   4.541327   5.629116   0.000000
 Stoichiometry    C6H5ClO
 Framework group  C1[X(C6H5ClO)]
 Deg. of freedom    33
 Full point group                 C1      NOp   1
 Largest Abelian subgroup         C1      NOp   1
 Largest concise Abelian subgroup C1      NOp   1
                         Standard orientation:                         
 ---------------------------------------------------------------------
 Center     Atomic      Atomic             Coordinates (Angstroms)
 Number     Number       Type             X           Y           Z
 ---------------------------------------------------------------------
      1          6           0        1.521417    1.107655    0.007642
      2          6           0        0.130170    0.948333    0.000667
      3          6           0        1.824772   -1.297445   -0.003838
      4          6           0        0.440511   -1.470827   -0.004537
      5          6           0       -0.395059   -0.354403   -0.003746
      6          1           0       -0.001535   -2.463606   -0.007169
      7          8           0       -0.630920    2.071918   -0.012134
      8          1           0       -1.575135    1.835878    0.020756
      9          1           0        1.915505    2.120673    0.016521
     10          1           0        2.476341   -2.167890   -0.006979
     11          6           0        2.359779   -0.004604    0.003570
     12          1           0        3.437945    0.140061    0.007743
     13         17           0       -2.146783   -0.565454    0.003980
 ---------------------------------------------------------------------
 Rotational constants (GHZ):      2.9436310      1.5296080      1.0065847
 Standard basis: 6-31+G(d) (6D, 7F)
 There are   166 symmetry adapted cartesian basis functions of A   symmetry.
 There are   166 symmetry adapted basis functions of A   symmetry.
   166 basis functions,   300 primitive gaussians,   166 cartesian basis functions
    33 alpha electrons       33 beta electrons
       nuclear repulsion energy       404.1447236781 Hartrees.
 NAtoms=   13 NActive=   13 NUniq=   13 SFac= 1.00D+00 NAtFMM=   60 NAOKFM=F Big=F
 Integral buffers will be    131072 words long.
 Raffenetti 2 integral format.
 Two-electron integral symmetry is turned on.
 Nuclear repulsion after empirical dispersion term =      404.1360327667 Hartrees.
 One-electron integrals computed using PRISM.
 NBasis=   166 RedAO= T EigKep=  3.69D-06  NBF=   166
 NBsUse=   166 1.00D-06 EigRej= -1.00D+00 NBFU=   166
 Initial guess from the checkpoint file:  "C:\Users\vivek\Downloads\molecule_31.chk"
 B after Tr=     0.000000    0.000000    0.000000
         Rot=    1.000000   -0.000006    0.000003   -0.000869 Ang=  -0.10 deg.
 ExpMin= 4.38D-02 ExpMax= 2.52D+04 ExpMxC= 3.78D+03 IAcc=2 IRadAn=         4 AccDes= 0.00D+00
 Harris functional with IExCor=  402 and IRadAn=       4 diagonalized for initial guess.
 HarFok:  IExCor=  402 AccDes= 0.00D+00 IRadAn=         4 IDoV= 1 UseB2=F ITyADJ=14
 ICtDFT=  3500011 ScaDFX=  1.000000  1.000000  1.000000  1.000000
 FoFCou: FMM=F IPFlag=           0 FMFlag=      100000 FMFlg1=           0
         NFxFlg=           0 DoJE=T BraDBF=F KetDBF=T FulRan=T
         wScrn=  0.000000 ICntrl=     500 IOpCl=  0 I1Cent=   200000004 NGrid=           0
         NMat0=    1 NMatS0=      1 NMatT0=    0 NMatD0=    1 NMtDS0=    0 NMtDT0=    0
 Petite list used in FoFCou.
 Keep R1 ints in memory in canonical form, NReq=98503024.
 Requested convergence on RMS density matrix=1.00D-08 within 128 cycles.
 Requested convergence on MAX density matrix=1.00D-06.
 Requested convergence on             energy=1.00D-06.
 No special actions if energy rises.
 SCF Done:  E(RB3LYP) =  -767.086153830     A.U. after   11 cycles
            NFock= 11  Conv=0.95D-08     -V/T= 2.0058
 Calling FoFJK, ICntrl=      2127 FMM=F ISym2X=0 I1Cent= 0 IOpClX= 0 NMat=1 NMatS=1 NMatT=0.
 ***** Axes restored to original set *****
 -------------------------------------------------------------------
 Center     Atomic                   Forces (Hartrees/Bohr)
 Number     Number              X              Y              Z
 -------------------------------------------------------------------
      1        6          -0.000389634   -0.000731141   -0.000199279
      2        6          -0.001650239    0.003090364   -0.000196146
      3        6          -0.000350664    0.001318167    0.000231987
      4        6           0.000726001    0.000821514   -0.000005659
      5        6          -0.000557122   -0.000854574    0.000438510
      6        1          -0.000563182   -0.000679656   -0.000056891
      7        8           0.002994858   -0.002630310    0.000483092
      8        1          -0.000913664   -0.000032221   -0.000369058
      9        1           0.000095813    0.000901186   -0.000079285
     10        1           0.000334868   -0.000881594   -0.000109785
     11        6          -0.001290417   -0.000391396    0.000138130
     12        1           0.000908274    0.000070204   -0.000031281
     13       17           0.000655108   -0.000000542   -0.000244336
 -------------------------------------------------------------------
 Cartesian Forces:  Max     0.003090364 RMS     0.001014626

 GradGradGradGradGradGradGradGradGradGradGradGradGradGradGradGradGradGrad
 Berny optimization.
 Using GEDIIS/GDIIS optimizer.
 FormGI is forming the generalized inverse of G from B-inverse, IUseBI=4.
 Internal  Forces:  Max     0.003257989 RMS     0.000561108
 Search for a local minimum.
 Step number   4 out of a maximum of   68
 All quantities printed in internal units (Hartrees-Bohrs-Radians)
 Mixed Optimization -- En-DIIS/RFO-DIIS
 Swapping is turned off.
 Update second derivatives using D2CorX and points    2    3    4
 DE= -2.96D-04 DEPred=-2.62D-04 R= 1.13D+00
 TightC=F SS=  1.41D+00  RLast= 1.96D-01 DXNew= 1.4270D+00 5.8721D-01
 Trust test= 1.13D+00 RLast= 1.96D-01 DXMaxT set to 8.49D-01
 ITU=  1  1  1  0
     Eigenvalues ---    0.00827   0.01956   0.02070   0.02070   0.02070
     Eigenvalues ---    0.02070   0.02070   0.02074   0.02077   0.02127
     Eigenvalues ---    0.15992   0.16000   0.16000   0.16066   0.17127
     Eigenvalues ---    0.21999   0.22719   0.23891   0.24981   0.26242
     Eigenvalues ---    0.29266   0.37227   0.37230   0.37239   0.38199
     Eigenvalues ---    0.41181   0.41649   0.42678   0.45276   0.45421
     Eigenvalues ---    0.45676   0.48143   0.56130
 En-DIIS/RFO-DIIS IScMMF=        0 using points:     4    3
 RFO step:  Lambda=-3.11679600D-05.
 DidBck=F Rises=F RFO-DIIS coefs:    1.29643   -0.29643
 Iteration  1 RMS(Cart)=  0.00653243 RMS(Int)=  0.00016390
 Iteration  2 RMS(Cart)=  0.00018073 RMS(Int)=  0.00000961
 Iteration  3 RMS(Cart)=  0.00000009 RMS(Int)=  0.00000961
 Variable       Old X    -DE/DX   Delta X   Delta X   Delta X     New X
                                 (Linear)    (Quad)   (Total)
    R1        2.64629   0.00048   0.00193  -0.00091   0.00102   2.64731
    R2        2.05415  -0.00082  -0.00060  -0.00120  -0.00180   2.05235
    R3        2.63208   0.00011  -0.00078   0.00066  -0.00012   2.63196
    R4        2.65438  -0.00046   0.00064  -0.00176  -0.00111   2.65327
    R5        2.56465   0.00326  -0.00147   0.00771   0.00624   2.57089
    R6        2.63631   0.00021  -0.00009   0.00033   0.00024   2.63655
    R7        2.05470  -0.00094  -0.00095  -0.00124  -0.00218   2.05252
    R8        2.64408   0.00037   0.00067   0.00031   0.00097   2.64505
    R9        2.63519   0.00025  -0.00006   0.00033   0.00027   2.63546
   R10        2.05366  -0.00088  -0.00082  -0.00117  -0.00200   2.05166
   R11        3.33425   0.00066   0.00192   0.00098   0.00290   3.33715
   R12        1.84027  -0.00092  -0.00058  -0.00081  -0.00139   1.83888
   R13        2.05571  -0.00091  -0.00090  -0.00116  -0.00206   2.05365
    A1        2.05585   0.00038  -0.00066   0.00258   0.00192   2.05777
    A2        2.10264  -0.00005   0.00064  -0.00082  -0.00017   2.10248
    A3        2.12469  -0.00033   0.00002  -0.00176  -0.00175   2.12294
    A4        2.06806   0.00007  -0.00186   0.00160  -0.00027   2.06780
    A5        2.05218   0.00087   0.00083   0.00217   0.00296   2.05514
    A6        2.16290  -0.00094   0.00114  -0.00376  -0.00266   2.16025
    A7        2.08876   0.00017   0.00015   0.00078   0.00094   2.08970
    A8        2.08776  -0.00007  -0.00044   0.00010  -0.00035   2.08741
    A9        2.10666  -0.00010   0.00029  -0.00088  -0.00058   2.10608
   A10        2.08869  -0.00001  -0.00007  -0.00021  -0.00028   2.08841
   A11        2.11430  -0.00011   0.00037  -0.00069  -0.00032   2.11399
   A12        2.08019   0.00012  -0.00030   0.00090   0.00060   2.08079
   A13        2.11585   0.00009   0.00130  -0.00046   0.00083   2.11669
   A14        2.07392  -0.00008  -0.00175   0.00112  -0.00065   2.07326
   A15        2.09339  -0.00001   0.00050  -0.00063  -0.00015   2.09323
   A16        1.92065   0.00000  -0.00087   0.00042  -0.00044   1.92020
   A17        2.10334  -0.00004   0.00044  -0.00019   0.00025   2.10359
   A18        2.08329   0.00010  -0.00040   0.00064   0.00024   2.08353
   A19        2.09655  -0.00006  -0.00004  -0.00046  -0.00049   2.09606
    D1       -3.13586  -0.00007   0.00058  -0.00457  -0.00399  -3.13984
    D2        0.01465  -0.00021  -0.00556  -0.00590  -0.01147   0.00318
    D3        0.00545  -0.00008   0.00004  -0.00433  -0.00429   0.00116
    D4       -3.12723  -0.00022  -0.00610  -0.00566  -0.01177  -3.13900
    D5       -0.00308   0.00006   0.00121   0.00146   0.00267  -0.00040
    D6        3.14014   0.00003   0.00009   0.00140   0.00149  -3.14155
    D7        3.13822   0.00005   0.00065   0.00171   0.00236   3.14058
    D8       -0.00175   0.00002  -0.00047   0.00166   0.00118  -0.00057
    D9       -0.00272   0.00002  -0.00221   0.00388   0.00167  -0.00105
   D10        3.13090   0.00015   0.00213   0.00656   0.00869   3.13960
   D11        3.12935   0.00019   0.00434   0.00534   0.00967   3.13902
   D12       -0.02021   0.00032   0.00868   0.00802   0.01669  -0.00352
   D13       -3.10149  -0.00023  -0.03624  -0.00230  -0.03853  -3.14003
   D14        0.04954  -0.00039  -0.04270  -0.00374  -0.04646   0.00308
   D15       -3.13892  -0.00004  -0.00066  -0.00119  -0.00185  -3.14077
   D16        0.00108  -0.00001   0.00032  -0.00073  -0.00041   0.00067
   D17        0.00487  -0.00008  -0.00182  -0.00243  -0.00425   0.00062
   D18       -3.13831  -0.00005  -0.00084  -0.00197  -0.00281  -3.14113
   D19       -0.00216   0.00002  -0.00033   0.00198   0.00166  -0.00050
   D20        3.13780   0.00005   0.00081   0.00204   0.00285   3.14064
   D21       -3.14153  -0.00002  -0.00149   0.00072  -0.00077   3.14088
   D22       -0.00158   0.00001  -0.00036   0.00078   0.00042  -0.00116
   D23       -0.00243   0.00005   0.00311  -0.00052   0.00259   0.00016
   D24       -3.13597  -0.00008  -0.00125  -0.00324  -0.00450  -3.14047
   D25        3.14072   0.00002   0.00215  -0.00097   0.00118  -3.14128
   D26        0.00718  -0.00011  -0.00221  -0.00369  -0.00591   0.00127
         Item               Value     Threshold  Converged?
 Maximum Force            0.003258     0.000450     NO 
 RMS     Force            0.000561     0.000300     NO 
 Maximum Displacement     0.032740     0.001800     NO 
 RMS     Displacement     0.006504     0.001200     NO 
 Predicted change in Energy=-4.121056D-05
 GradGradGradGradGradGradGradGradGradGradGradGradGradGradGradGradGradGrad

                          Input orientation:                          
 ---------------------------------------------------------------------
 Center     Atomic      Atomic             Coordinates (Angstroms)
 Number     Number       Type             X           Y           Z
 ---------------------------------------------------------------------
      1          6           0       -2.019115   -0.249854   -0.084768
      2          6           0       -0.619547   -0.282457   -0.136351
      3          6           0       -1.978807    2.153907    0.231006
      4          6           0       -0.584566    2.135523    0.182584
      5          6           0        0.083695    0.925062    0.000400
      6          1           0       -0.007433    3.049469    0.284316
      7          8           0       -0.020334   -1.490136   -0.318835
      8          1           0        0.946706   -1.383059   -0.335616
      9          1           0       -2.553581   -1.189435   -0.189910
     10          1           0       -2.500504    3.096059    0.372073
     11          6           0       -2.691099    0.956490    0.096848
     12          1           0       -3.777190    0.961368    0.134225
     13         17           0        1.848308    0.893126   -0.060299
 ---------------------------------------------------------------------
                    Distance matrix (angstroms):
                    1          2          3          4          5
     1  C    0.000000
     2  C    1.400898   0.000000
     3  C    2.424748   2.813967   0.000000
     4  C    2.796325   2.439174   1.395203   0.000000
     5  C    2.410289   1.404049   2.411878   1.394625   0.000000
     6  H    3.881832   3.413704   2.165916   1.085693   2.145231
     7  O    2.363940   1.360457   4.173367   3.703401   2.438425
     8  H    3.184834   1.924624   4.624912   3.872176   2.486990
     9  H    1.086058   2.136812   3.418402   3.882154   3.385638
    10  H    3.411095   3.900111   1.086148   2.151594   3.395505
    11  C    1.392771   2.425016   1.399702   2.415565   2.776648
    12  H    2.146123   3.404559   2.160022   3.402033   3.863374
    13  Cl   4.032860   2.734609   4.039955   2.742520   1.765945
                    6          7          8          9         10
     6  H    0.000000
     7  O    4.579516   0.000000
     8  H    4.576243   0.973094   0.000000
     9  H    4.967501   2.554287   3.508664   0.000000
    10  H    2.495050   5.259447   5.696190   4.322511   0.000000
    11  C    3.408485   3.645786   4.346739   2.169363   2.165602
    12  H    4.312048   4.508780   5.294552   2.495644   2.498680
    13  Cl   2.865720   3.039506   2.463677   4.871394   4.894081
                   11         12         13
    11  C    0.000000
    12  H    1.086744   0.000000
    13  Cl   4.542568   5.629273   0.000000
 Stoichiometry    C6H5ClO
 Framework group  C1[X(C6H5ClO)]
 Deg. of freedom    33
 Full point group                 C1      NOp   1
 Largest Abelian subgroup         C1      NOp   1
 Largest concise Abelian subgroup C1      NOp   1
                         Standard orientation:                         
 ---------------------------------------------------------------------
 Center     Atomic      Atomic             Coordinates (Angstroms)
 Number     Number       Type             X           Y           Z
 ---------------------------------------------------------------------
      1          6           0        1.521069    1.109841    0.001527
      2          6           0        0.129515    0.948320    0.000202
      3          6           0        1.827740   -1.295435   -0.000860
      4          6           0        0.443570   -1.470551   -0.001098
      5          6           0       -0.393158   -0.354816   -0.000472
      6          1           0        0.003501   -2.463057   -0.001906
      7          8           0       -0.638544    2.071229   -0.002080
[...]
    D1       -3.14125  -0.00001   0.00000  -0.00034  -0.00034   3.14159
    D2       -0.00037   0.00001   0.00000   0.00037   0.00037   0.00000
    D3        0.00025  -0.00001   0.00000  -0.00025  -0.00025   0.00000
    D4        3.14114   0.00001   0.00000   0.00045   0.00045  -3.14159
    D5        0.00007   0.00000   0.00000  -0.00007  -0.00007   0.00000
    D6        3.14156   0.00000   0.00000   0.00003   0.00003   3.14159
    D7        3.14157   0.00000   0.00000   0.00002   0.00002  -3.14159
    D8       -0.00012   0.00000   0.00000   0.00012   0.00012   0.00000
    D9       -0.00038   0.00001   0.00000   0.00038   0.00038   0.00000
   D10        3.14132   0.00001   0.00000   0.00027   0.00027   3.14159
   D11       -3.14122  -0.00001   0.00000  -0.00037  -0.00037   3.14159
   D12        0.00048  -0.00001   0.00000  -0.00048  -0.00048   0.00000
   D13       -3.14138  -0.00001   0.00000  -0.00022  -0.00022   3.14159
   D14       -0.00053   0.00001   0.00000   0.00053   0.00053   0.00000
   D15       -3.14149   0.00000   0.00000  -0.00010  -0.00010  -3.14159
   D16        0.00016   0.00000   0.00000  -0.00016  -0.00016   0.00000
   D17        0.00014  -0.00001   0.00000  -0.00014  -0.00014   0.00000
   D18       -3.14139  -0.00001   0.00000  -0.00020  -0.00020  -3.14159
   D19       -0.00027   0.00001   0.00000   0.00027   0.00027   0.00000
   D20        3.14142   0.00000   0.00000   0.00017   0.00017  -3.14159
   D21        3.14136   0.00001   0.00000   0.00023   0.00023   3.14159
   D22       -0.00013   0.00000   0.00000   0.00013   0.00013   0.00000
   D23        0.00019   0.00000   0.00000  -0.00019  -0.00019   0.00000
   D24       -3.14152   0.00000   0.00000  -0.00007  -0.00007  -3.14159
   D25       -3.14146   0.00000   0.00000  -0.00013  -0.00013   3.14159
   D26        0.00002   0.00000   0.00000  -0.00002  -0.00002   0.00000
         Item               Value     Threshold  Converged?
 Maximum Force            0.000115     0.000450     YES
 RMS     Force            0.000025     0.000300     YES
 Maximum Displacement     0.000609     0.001800     YES
 RMS     Displacement     0.000145     0.001200     YES
 Predicted change in Energy=-8.078420D-08
 Optimization completed.
    -- Stationary point found.
                           ----------------------------
                           !   Optimized Parameters   !
                           ! (Angstroms and Degrees)  !
 --------------------------                            --------------------------
 ! Name  Definition              Value          Derivative Info.                !
 --------------------------------------------------------------------------------
 ! R1    R(1,2)                  1.4005         -DE/DX =   -0.0001              !
 ! R2    R(1,9)                  1.0858         -DE/DX =    0.0                 !
 ! R3    R(1,11)                 1.393          -DE/DX =    0.0                 !
 ! R4    R(2,5)                  1.4039         -DE/DX =    0.0                 !
 ! R5    R(2,7)                  1.3612         -DE/DX =    0.0001              !
 ! R6    R(3,4)                  1.3953         -DE/DX =    0.0                 !
 ! R7    R(3,10)                 1.0859         -DE/DX =    0.0                 !
 ! R8    R(3,11)                 1.3998         -DE/DX =    0.0                 !
 ! R9    R(4,5)                  1.3947         -DE/DX =    0.0                 !
 ! R10   R(4,6)                  1.0854         -DE/DX =    0.0                 !
 ! R11   R(5,13)                 1.7661         -DE/DX =    0.0                 !
 ! R12   R(7,8)                  0.9728         -DE/DX =    0.0                 !
 ! R13   R(11,12)                1.0864         -DE/DX =    0.0                 !
 ! A1    A(2,1,9)              117.9841         -DE/DX =    0.0                 !
 ! A2    A(2,1,11)             120.4231         -DE/DX =    0.0                 !
 ! A3    A(9,1,11)             121.5928         -DE/DX =    0.0                 !
 ! A4    A(1,2,5)              118.5405         -DE/DX =    0.0                 !
 ! A5    A(1,2,7)              117.7329         -DE/DX =    0.0                 !
 ! A6    A(5,2,7)              123.7265         -DE/DX =    0.0                 !
 ! A7    A(4,3,10)             119.7449         -DE/DX =    0.0                 !
 ! A8    A(4,3,11)             119.6147         -DE/DX =    0.0                 !
 ! A9    A(10,3,11)            120.6403         -DE/DX =    0.0                 !
 ! A10   A(3,4,5)              119.6407         -DE/DX =    0.0                 !
 ! A11   A(3,4,6)              121.1059         -DE/DX =    0.0                 !
 ! A12   A(5,4,6)              119.2534         -DE/DX =    0.0                 !
 ! A13   A(2,5,4)              121.2541         -DE/DX =    0.0                 !
 ! A14   A(2,5,13)             118.8551         -DE/DX =    0.0                 !
 ! A15   A(4,5,13)             119.8907         -DE/DX =    0.0                 !
 ! A16   A(2,7,8)              109.9038         -DE/DX =    0.0001              !
 ! A17   A(1,11,3)             120.5268         -DE/DX =    0.0                 !
 ! A18   A(1,11,12)            119.3885         -DE/DX =    0.0                 !
 ! A19   A(3,11,12)            120.0847         -DE/DX =    0.0                 !
 ! D1    D(9,1,2,5)            180.0194         -DE/DX =    0.0                 !
 ! D2    D(9,1,2,7)             -0.021          -DE/DX =    0.0                 !
 ! D3    D(11,1,2,5)             0.0144         -DE/DX =    0.0                 !
 ! D4    D(11,1,2,7)          -180.026          -DE/DX =    0.0                 !
 ! D5    D(2,1,11,3)             0.004          -DE/DX =    0.0                 !
 ! D6    D(2,1,11,12)          179.9984         -DE/DX =    0.0                 !
 ! D7    D(9,1,11,3)          -180.0012         -DE/DX =    0.0                 !
 ! D8    D(9,1,11,12)           -0.0068         -DE/DX =    0.0                 !
 ! D9    D(1,2,5,4)             -0.0219         -DE/DX =    0.0                 !
 ! D10   D(1,2,5,13)           179.9845         -DE/DX =    0.0                 !
 ! D11   D(7,2,5,4)            180.0212         -DE/DX =    0.0                 !
 ! D12   D(7,2,5,13)             0.0275         -DE/DX =    0.0                 !
 ! D13   D(1,2,7,8)            180.0123         -DE/DX =    0.0                 !
 ! D14   D(5,2,7,8)             -0.0304         -DE/DX =    0.0                 !
 ! D15   D(10,3,4,5)          -179.9941         -DE/DX =    0.0                 !
 ! D16   D(10,3,4,6)             0.0092         -DE/DX =    0.0                 !
 ! D17   D(11,3,4,5)             0.0081         -DE/DX =    0.0                 !
 ! D18   D(11,3,4,6)          -179.9887         -DE/DX =    0.0                 !
 ! D19   D(4,3,11,1)            -0.0154         -DE/DX =    0.0                 !
 ! D20   D(4,3,11,12)         -180.0098         -DE/DX =    0.0                 !
 ! D21   D(10,3,11,1)          179.9868         -DE/DX =    0.0                 !
 ! D22   D(10,3,11,12)          -0.0076         -DE/DX =    0.0                 !
 ! D23   D(3,4,5,2)              0.0107         -DE/DX =    0.0                 !
 ! D24   D(3,4,5,13)          -179.9957         -DE/DX =    0.0                 !
 ! D25   D(6,4,5,2)            180.0075         -DE/DX =    0.0                 !
 ! D26   D(6,4,5,13)             0.0011         -DE/DX =    0.0                 !
 --------------------------------------------------------------------------------
 GradGradGradGradGradGradGradGradGradGradGradGradGradGradGradGradGradGrad

 1|1|UNPC-ASUS|Freq|RB3LYP|6-31+G(d)|C6H5Cl1O1|VIVEK|14-Sep-2023|0||#N 
 Geom=AllCheck Guess=TCheck SCRF=Check GenChk RB3LYP/6-31+G(d) Freq||Ti
 tle Card Required||0,1|C,-2.0192504003,-0.2502776742,-0.0855094693|C,-
 0.620038311,-0.2822375824,-0.136607203|C,-1.9784677867,2.1535842602,0.
 2314565062|C,-0.584132544,2.135339775,0.1825837465|C,0.0838814477,0.92
 46936041,0.0000000143|H,-0.0074670539,3.0492269102,0.2844499458|O,-0.0
 201741602,-1.4908775267,-0.3162435793|H,0.9462694699,-1.3815581453,-0.
 3339942811|H,-2.5545086107,-1.1889215095,-0.1918305946|H,-2.5002857097
 ,3.0951995563,0.3734426981|C,-2.6910669839,0.9562972207,0.0968154025|H
 ,-3.7768630084,0.9616480614,0.1338642665|Cl,1.8486374012,0.8939454603,
 -0.0627545127||Version=EM64W-G09RevD.01|State=1-A|HF=-767.0862024|RMSD
 =8.175e-009|RMSF=4.742e-005|ZeroPoint=0.0951893|Thermal=0.101802|Dipol
 e=-0.2308416,0.3264741,0.0509009|DipoleDeriv=-0.0563956,0.3251696,0.03
 93859,-0.0623376,-0.0774901,0.0136524,-0.0119622,0.0006995,-0.1646292,
 0.156552,-0.6263583,-0.0836173,-0.5137404,1.0781277,0.1420218,-0.06845
 21,0.1454691,0.1560028,-0.1558544,-0.0938327,-0.01249,-0.0421824,-0.04
 22452,0.0166973,-0.0056491,0.0183917,-0.1554708,-0.0288386,0.058286,0.
 0053906,-0.1046266,0.0386447,0.021684,-0.0162043,0.0163078,-0.0958992,
 1.0337604,-0.0921755,-0.0489544,0.2197745,-0.1967543,-0.0238548,-0.007
 7943,-0.0135016,-0.0731132,0.0382062,-0.0665298,-0.0053794,-0.0570229,
 -0.0003507,-0.0168564,-0.0040863,-0.0165535,0.1392555,-0.5155647,0.539
 2466,0.0763161,0.5109694,-1.1734452,-0.1238606,0.0723743,-0.1244318,-0
 .3858281,0.2620547,-0.0489386,-0.0044508,-0.0685248,0.3586064,0.007096
 4,-0.0070387,0.0064277,0.3236182,0.0305476,-0.0523181,-0.0028918,-0.04
 94601,-0.0243565,-0.0215796,-0.0024775,-0.0214658,0.1483547,0.0091945,
 0.0672062,0.0136287,0.0670853,-0.0568172,-0.0297561,0.0136153,-0.02974
 01,0.146699,0.1036764,-0.0273027,-0.0114271,0.1104372,0.1604918,0.0346
 019,0.0069058,0.0392074,-0.1232875,-0.1052843,0.0013009,0.0084061,-0.0
 007976,0.0742102,-0.00878,0.0080821,-0.0088728,0.1393065,-0.7720542,0.
 0162464,0.0260833,-0.0095739,-0.1386216,-0.0110662,0.0226869,-0.011937
 6,-0.0550087|Polar=110.2947676,-3.3233654,91.7517884,-2.5173639,5.9083
 091,48.8445131|PG=C01 [X(C6H5Cl1O1)]|NImag=0||0.67764140,0.01489299,0.
 74058357,-0.01659313,0.08124762,0.13447235,-0.31495084,-0.04994946,0.0
 0179685,0.70300151,0.02341690,-0.12196728,-0.00844763,-0.01155000,0.67
 387999,0.01149426,-0.00599206,-0.06525478,-0.02007553,0.07023452,0.156
 22292,0.06006519,-0.02148673,-0.00462582,-0.05371369,-0.03285074,-0.00
 260668,0.68090822,0.02117466,-0.05562564,-0.00898834,-0.03244052,-0.01
 343638,-0.00051322,-0.03422964,0.71199940,0.00103004,-0.00756805,0.005
 88470,-0.00255037,-0.00049479,-0.00140696,-0.02311811,0.07902580,0.134
 69040,-0.04565552,0.02647555,0.00498788,0.06765551,0.02385414,0.000906
 46,-0.34114001,0.03409392,0.01393785,0.69488225,0.02440174,-0.01691682
 ,-0.00287444,-0.02586669,-0.05314749,-0.00613821,-0.03031898,-0.124200
 40,-0.00772668,0.04475062,0.70626160,0.00470512,-0.00293845,-0.0019422
 1,-0.00568596,-0.00780681,-0.00110634,0.00540648,-0.00987803,-0.059683
 63,-0.01306408,0.07555710,0.13500297,-0.02659937,-0.01899607,-0.001460
 79,-0.15459240,-0.12168230,-0.01294120,-0.02670195,0.02560369,0.004448
 50,-0.15067563,0.11615975,0.01868399,0.49262351,-0.06930641,0.03347690
 ,0.00606285,-0.04527488,-0.24641189,-0.02337255,0.08038378,0.02827542,
 0.00039707,0.05258851,-0.28705350,-0.03293584,-0.01232038,0.64837826,-
 0.00811870,0.00438559,0.00602454,-0.00282742,-0.02083631,-0.06141930,0
 .01170639,0.00222944,0.00491965,0.01025564,-0.03505295,-0.05658720,-0.
 01467577,0.07305367,0.11025027,-0.00064662,0.00096642,0.00012185,-0.00
 159509,0.00234371,0.00054161,-0.01021598,-0.02749545,-0.00318071,-0.13
 697746,-0.12923183,-0.01371137,0.00923148,0.01477170,0.00174113,0.1438
 7877,0.00077892,0.00012912,0.00010227,0.00397140,-0.00163877,-0.001061
 79,0.00195529,0.00541166,0.00017268,-0.12648262,-0.26170714,-0.0258760
 5,-0.01617438,-0.01952792,-0.00240953,0.13595964,0.27571118,0.00009417
 ,0.00009834,-0.00083060,0.00076264,-0.00100703,0.00523403,0.00072530,0
 .00115501,0.00374274,-0.01335150,-0.02578421,-0.03754535,-0.00235948,-
 0.00344210,0.00233909,0.01402163,0.02880652,0.02742903,-0.03338189,0.0
 5603911,0.00873576,-0.14458093,0.10340122,0.01717518,0.00364277,0.0057
 6387,0.00059612,-0.00704657,-0.00035697,0.00040205,0.00596222,-0.00967
 123,-0.00126627,0.00038697,-0.00045951,-0.00006920,0.64327953,0.018723
 76,-0.00555416,-0.00221270,0.05277278,-0.26991100,-0.03223775,0.003454
 55,-0.00383773,-0.00044149,-0.00688619,0.00143037,-0.00043758,0.022926
 15,-0.05153055,-0.00842296,0.00115659,-0.00139738,-0.00024485,-0.05122
 117,0.38158469,0.00380787,-0.00346385,0.00591871,0.01047705,-0.0338998
 1,-0.04424200,0.00029064,-0.00051373,-0.00145609,-0.00046775,-0.000657
 52,0.00641037,0.00304819,-0.00735591,0.00535273,0.00014564,-0.00019081
 ,0.00012486,-0.02732844,0.04866661,0.03367091,0.00262303,0.00215865,0.
 00027419,-0.02567484,0.00343326,0.00118158,0.00024913,-0.00063380,-0.0
 0009307,-0.00166555,-0.00024653,0.00000191,0.00432228,-0.00449204,-0.0
 0069776,0.00032270,-0.00036039,-0.00005731,-0.46890645,-0.03516297,0.0
 1081755,0.49019466,0.00225094,-0.00734295,-0.00134649,0.04428549,0.003
 32010,-0.00053566,-0.00059562,-0.00047594,-0.00003953,0.00055803,-0.00
 002216,0.00006043,0.00458761,-0.00197819,-0.00057311,0.00003989,-0.000
 01002,-0.00000772,-0.08496036,-0.05379293,-0.00364578,0.03480177,0.058
 21220,0.00028957,-0.00134423,0.00208278,0.00657252,0.00082700,-0.00389
 749,-0.00008937,-0.00003924,-0.00003052,0.00011007,0.00008631,-0.00060
 883,0.00050377,-0.00026834,0.00113489,-0.00000411,0.00000549,0.0000404
 5,0.00424019,-0.00530734,-0.00558017,-0.01152887,0.00572535,0.00721730
 ,-0.13026869,-0.12181965,-0.01289997,-0.01244295,-0.02986650,-0.003358
 99,-0.00096578,0.00313349,0.00066635,-0.00100297,0.00093770,0.00012912
 ,-0.00375815,0.00172213,0.00052530,0.00010511,-0.00007670,-0.00002897,
 0.00202698,-0.00018884,-0.00020838,0.00024112,0.00003358,-0.00002692,0
 .13370595,-0.12375334,-0.26852069,-0.02688898,0.00206729,0.00256247,-0
 .00044047,0.00394880,-0.00243544,-0.00131819,0.00074101,0.00029160,0.0
 0012577,0.00021035,0.00065304,-0.00059433,-0.00011518,-0.00001466,0.00
 006211,0.00011908,0.00088050,0.00057103,-0.00008003,0.00000892,0.00009
 555,0.13190106,0.28362250,-0.01316054,-0.02695164,-0.03721178,0.000871
 33,0.00063327,0.00541291,0.00077468,-0.00129148,0.00632832,0.00010351,
 0.00011942,-0.00083211,0.00032388,-0.00064589,0.00499519,-0.00003396,0
 .00006097,-0.00044574,-0.00016635,0.00057904,-0.00337927,-0.00004162,0
 .00009178,-0.00067999,0.01377941,0.02996538,0.02739246,-0.00122689,-0.
 00302517,-0.00015800,-0.00118078,-0.00075352,-0.00007577,-0.12431096,0
 .11788312,0.01866595,-0.01151827,0.02886532,0.00427098,-0.00369695,-0.
 00156494,0.00013182,0.00071756,-0.00024622,-0.00019563,0.00036957,0.00
 013838,-0.00001226,-0.00004594,-0.00014754,-0.00002064,0.00048476,-0.0
 0079580,-0.00010621,0.12894292,-0.00413148,-0.00258186,-0.00100197,-0.
 00100962,0.00018026,0.00011847,0.11809741,-0.27160101,-0.03559699,-0.0
 0215243,0.00364244,0.00029383,-0.00056715,0.00152727,-0.00063658,0.000
 34433,0.00066756,0.00062932,0.00026123,0.00000872,0.00006514,-0.000002
 72,-0.00001100,0.00000912,0.00081880,-0.00088086,-0.00020622,-0.126351
 70,0.28619764,-0.00030550,-0.00103904,0.00591086,-0.00010815,0.0001101
 4,-0.00044064,0.01869430,-0.03558884,-0.03766820,0.00016628,-0.0007410
 1,0.00186112,0.00026335,-0.00060396,0.00639465,-0.00011736,0.00065003,
 -0.00408550,0.00000370,0.00006937,-0.00054070,-0.00000135,0.00001401,-
 0.00007714,0.00010803,-0.00015218,0.00044443,-0.02021507,0.03889377,0.
 02992618,-0.18044693,0.12294666,0.02043597,-0.02223812,0.03188788,0.00
 496540,-0.17984553,-0.11988425,-0.01186224,-0.03082152,-0.02634291,-0.
 00224300,-0.00093108,-0.00500544,-0.00071639,-0.00552343,0.00075215,0.
 00049953,-0.00390748,-0.00434196,-0.00027950,-0.00111852,0.00124509,0.
 00025907,0.01279440,-0.01516029,-0.00235329,0.01225128,0.01528128,0.00
 167403,0.74241463,0.06346785,-0.29629837,-0.03387471,0.08014828,0.0342
 2373,0.00183781,-0.05956691,-0.27622739,-0.02661335,-0.07201325,0.0320
 0047,0.00579630,-0.00086768,-0.06576701,-0.00834684,0.00149389,0.00149
 621,-0.00071611,-0.01062815,0.00098848,-0.00015567,-0.00005338,0.00169
 020,-0.00000065,0.01451972,-0.01715662,-0.00308777,-0.01542511,-0.0179
 0738,-0.00210215,-0.00301898,0.66226532,0.01255935,-0.03586729,-0.0617
 6601,0.01136172,0.00344425,0.00020503,-0.00387361,-0.02460124,-0.06318
 009,-0.00829676,0.00426845,0.00723192,-0.00016954,-0.00819919,-0.00365
 452,0.00059839,-0.00068978,0.00639996,-0.00111614,-0.00036221,0.004823
 58,0.00008696,-0.00004519,0.00171250,0.00157581,-0.00209109,0.00214612
 ,-0.00238966,-0.00312451,0.00150583,-0.02081715,0.07024822,0.14252664,
 -0.01102288,-0.00184386,0.00022930,0.00142453,0.00204622,0.00046847,-0
 .01137721,0.00259132,0.00082742,0.00038707,-0.00327883,-0.00023420,0.0
 0089580,0.00003398,-0.00003708,-0.00062534,0.00021726,0.00005545,-0.00
 100925,0.00015523,0.00005876,0.00002437,0.00015888,0.00001508,0.000784
 54,0.00034008,-0.00012276,0.00072275,-0.00035928,-0.00019744,-0.340795
 55,0.00132655,0.01035626,0.36075907,0.02854291,0.00388179,-0.00085557,
 0.00135808,-0.00414168,-0.00156443,-0.02779655,0.00544850,0.00123911,-
 0.00249432,-0.00441092,-0.00134039,0.00023415,-0.00149206,-0.00015859,
 -0.00139831,0.00017202,0.00004543,0.00167948,0.00024864,-0.00004096,0.
 00020512,-0.00042571,-0.00004260,-0.00027651,0.00064069,0.00065386,0.0
 0036709,0.00061844,0.00056622,0.00099919,-0.05961384,-0.00307556,-0.00
 141182,0.05883079,0.00425798,0.00015965,0.00300030,0.00037370,-0.00159
 090,0.00711409,-0.00319738,0.00021989,0.00324464,-0.00012943,-0.001313
 31,0.00617379,-0.00001143,-0.00014905,-0.00037410,-0.00015783,-0.00000
 817,0.00018226,0.00026182,0.00001031,0.00012399,0.00002129,-0.00004167
 ,-0.00016017,-0.00020480,0.00063318,-0.00413818,-0.00010054,0.00058976
 ,-0.00366765,0.01031042,-0.00308212,-0.03738643,-0.01140475,0.00444895
 ,0.02656509,0.00387000,-0.00635845,-0.00084408,-0.04111190,0.00631972,
 0.00232521,0.00340578,0.00443959,0.00063228,-0.03642133,0.00052762,0.0
 0133896,-0.14607978,-0.00186478,0.00397912,0.00094133,0.00016516,-0.00
 009664,0.00316452,-0.00152631,-0.00034938,-0.00056599,-0.00225775,-0.0
 0032037,-0.00170433,0.00057697,0.00013193,-0.00150907,-0.00022865,0.00
 003518,-0.00183216,0.00061716,0.00012437,-0.00016792,-0.00000853,-0.00
 001903,0.21801086,-0.00045944,-0.00326360,-0.00092189,-0.01851215,-0.0
 0351207,-0.00033465,-0.00099465,-0.00329505,-0.00103559,0.02696702,0.0
 0383195,-0.00062029,0.00088626,-0.03854978,-0.00263750,0.00116459,0.00
 070813,0.00040530,-0.00996658,0.00088236,0.00062126,0.00043306,0.00082
 750,0.00025355,-0.00083831,0.00034856,0.00007931,0.00105611,0.00013979
 ,-0.00007636,0.00064159,0.00030621,0.00009516,0.00002426,0.00024334,0.
 00012348,-0.00040177,0.04133267,-0.00006050,-0.00072659,0.00371115,-0.
 00096837,-0.00116589,0.00357853,-0.00008682,-0.00121602,0.00461504,0.0
 0484184,0.00025706,0.00162552,0.00434654,-0.00254075,-0.01937589,0.000
 03507,0.00043817,-0.00258523,-0.00146840,0.00034157,-0.00122693,0.0000
 3649,0.00034358,-0.00115360,-0.00005599,0.00003222,-0.00003235,0.00020
 502,-0.00003315,0.00043678,0.00012716,0.00009703,-0.00056452,-0.000014
 50,0.00012454,-0.00067764,-0.00693755,0.00404822,0.01164914||-0.000101
 68,0.00005161,0.00001726,0.00014021,-0.00013912,-0.00009500,-0.0000198
 1,0.00005217,-0.00000028,0.00000605,0.00001435,0.00000628,-0.00003123,
 0.00005963,0.00003230,0.00000016,-0.00003002,-0.00000154,-0.00003344,0
 .00005543,0.00003371,-0.00005226,0.00002479,0.00000688,0.00002006,0.00
 000577,0.00000076,0.00002316,-0.00002761,-0.00001066,-0.00002085,-0.00
 005154,0.00001503,0.00002997,-0.00000508,-0.00000120,0.00003967,-0.000
 01036,-0.00000355|||@


 REFRAIN FROM ILLUSIONS, INSIST ON WORK AND NOT WORDS,
 PATIENTLY SEEK DIVINE AND SCIENTIFIC TRUTH.
 LAST WORDS OF MARIA MENDELEEVA TO HER SON DMITRI, C. 1850
 Job cpu time:       0 days  0 hours  2 minutes 14.0 seconds.
 File lengths (MBytes):  RWF=     47 Int=      0 D2E=      0 Chk=      3 Scr=      1
 Normal termination of Gaussian 09 at Thu Sep 14 13:13:36 2023.
