 Entering Gaussian System, Link 0=C:\G09W\g09.exe
 Input=C:\Users\vivek\Downloads\14_09_23\molecule_33.gjf
 Output=C:\Users\vivek\Downloads\14_09_23\molecule_33.log
 Initial command:
 C:/G09W\l1.exe ".\Gau-14716.inp" "C:\Users\vivek\Downloads\14_09_23\molecule_33.log" /scrdir=".\"
 Entering Link 1 = C:/G09W\l1.exe PID=     17140.
  
 Copyright (c) 1988,1990,1992,1993,1995,1998,2003,2009,2013,
            Gaussian, Inc.  All Rights Reserved.
  
 This is part of the Gaussian(R) 09 program.  It is based on
 the Gaussian(R) 03 system (copyright 2003, Gaussian, Inc.),
 the Gaussian(R) 98 system (copyright 1998, Gaussian, Inc.),
 the Gaussian(R) 94 system (copyright 1995, Gaussian, Inc.),
 the Gaussian 92(TM) system (copyright 1992, Gaussian, Inc.),
 the Gaussian 90(TM) system (copyright 1990, Gaussian, Inc.),
 the Gaussian 88(TM) system (copyright 1988, Gaussian, Inc.),
 the Gaussian 86(TM) system (copyright 1986, Carnegie Mellon
 University), and the Gaussian 82(TM) system (copyright 1983,
 Carnegie Mellon University). Gaussian is a federally registered
 trademark of Gaussian, Inc.
  
 This software contains proprietary and confidential information,
 including trade secrets, belonging to Gaussian, Inc.
  
 This software is provided under written license and may be
 used, copied, transmitted, or stored only in accord with that
 written license.
  
 The following legend is applicable only to US Government
 contracts under FAR:
  
                    RESTRICTED RIGHTS LEGEND
  
 Use, reproduction and disclosure by the US Government is
 subject to restrictions as set forth in subparagraphs (a)
 and (c) of the Commercial Computer Software - Restricted
 Rights clause in FAR 52.227-19.
  
 Gaussian, Inc.
 340 Quinnipiac St., Bldg. 40, Wallingford CT 06492
  
  
 ---------------------------------------------------------------
 Warning -- This program may not be used in any manner that
 competes with the business of Gaussian, Inc. or will provide
 assistance to any competitor of Gaussian, Inc.  The licensee
 of this program is prohibited from giving any competitor of
 Gaussian, Inc. access to this program.  By using this program,
 the user acknowledges that Gaussian, Inc. is engaged in the
 business of creating and licensing software in the field of
 computational chemistry and represents and warrants to the
 licensee that it is not a competitor of Gaussian, Inc. and that
 it will not use this program in any manner prohibited above.
 ---------------------------------------------------------------
  

 Cite this work as:
 Gaussian 09, Revision D.01,
 M. J. Frisch, G. W. Trucks, H. B. Schlegel, G. E. Scuseria, 
 M. A. Robb, J. R. Cheeseman, G. Scalmani, V. Barone, B. Mennucci, 
 G. A. Petersson, H. Nakatsuji, M. Caricato, X. Li, H. P. Hratchian, 
 A. F. Izmaylov, J. Bloino, G. Zheng, J. L. Sonnenberg, M. Hada, 
 M. Ehara, K. Toyota, R. Fukuda, J. Hasegawa, M. Ishida, T. Nakajima, 
 Y. Honda, O. Kitao, H. Nakai, T. Vreven, J. A. Montgomery, Jr., 
 J. E. Peralta, F. Ogliaro, M. Bearpark, J. J. Heyd, E. Brothers, 
 K. N. Kudin, V. N. Staroverov, T. Keith, R. Kobayashi, J. Normand, 
 K. Raghavachari, A. Rendell, J. C. Burant, S. S. Iyengar, J. Tomasi, 
 M. Cossi, N. Rega, J. M. Millam, M. Klene, J. E. Knox, J. B. Cross, 
 V. Bakken, C. Adamo, J. Jaramillo, R. Gomperts, R. E. Stratmann, 
 O. Yazyev, A. J. Austin, R. Cammi, C. Pomelli, J. W. Ochterski, 
 R. L. Martin, K. Morokuma, V. G. Zakrzewski, G. A. Voth, 
 P. Salvador, J. J. Dannenberg, S. Dapprich, A. D. Daniels, 
 O. Farkas, J. B. Foresman, J. V. Ortiz, J. Cioslowski, 
 and D. J. Fox, Gaussian, Inc., Wallingford CT, 2013.
 
 ******************************************
 Gaussian 09:  EM64W-G09RevD.01 13-Apr-2013
                14-Sep-2023 
 ******************************************
 %nprocshared=6
 Will use up to    6 processors via shared memory.
 %mem=8GB
 %chk=C:\Users\vivek\Downloads\molecule_39.chk
 ---------------------------------------------------------------------
 # opt freq rb3lyp/6-31+g(d) geom=connectivity empiricaldispersion=gd3
 ---------------------------------------------------------------------
 1/14=-1,18=20,19=15,26=3,38=1,57=2/1,3;
 2/9=110,12=2,17=6,18=5,40=1/2;
 3/5=1,6=6,7=11,11=2,16=1,25=1,30=1,71=1,74=-5,116=1,124=31/1,2,3;
 4//1;
 5/5=2,38=5/2;
 6/7=2,8=2,9=2,10=2,28=1/1;
 7//1,2,3,16;
 1/14=-1,18=20,19=15,26=3/3(2);
 2/9=110/2;
 99//99;
 2/9=110/2;
 3/5=1,6=6,7=11,11=2,16=1,25=1,30=1,71=1,74=-5,116=1,124=31/1,2,3;
 4/5=5,16=3,69=1/1;
 5/5=2,38=5/2;
 7//1,2,3,16;
 1/14=-1,18=20,19=15,26=3/3(-5);
 2/9=110/2;
 6/7=2,8=2,9=2,10=2,19=2,28=1/1;
 99/9=1/99;
 -------------------
 Title Card Required
 -------------------
 Symbolic Z-matrix:
 Charge =  0 Multiplicity = 1
 C                    -4.15426  -1.52235   0.01378 
 C                    -2.75303  -1.50062   0.01158 
 C                    -2.07125  -0.27626   0.00496 
 C                    -2.79069   0.92636   0.00054 
 C                    -4.19192   0.90463   0.00274 
 C                    -4.87371  -0.31972   0.00936 
 H                    -0.12071  -1.17276   0.00613 
 H                    -4.67482  -2.45717   0.01884 
 H                    -2.20372  -2.41885   0.01496 
 C                    -0.67002  -0.25453   0.00276 
 C                    -2.1089    2.15072  -0.00609 
 H                    -4.74123   1.82286  -0.00064 
 C                    -0.70767   2.17245  -0.00829 
 C                     0.01177   0.96982  -0.00386 
 H                    -2.65821   3.06895  -0.00946 
 H                    -0.18711   3.10727  -0.01334 
 H                     1.08164   0.98642  -0.00555 
 O                    -6.30353  -0.3419    0.0116 
 H                    -6.62485  -0.351    -0.89298 
 

 GradGradGradGradGradGradGradGradGradGradGradGradGradGradGradGradGradGrad
 Berny optimization.
 Initialization pass.
                           ----------------------------
                           !    Initial Parameters    !
                           ! (Angstroms and Degrees)  !
 --------------------------                            --------------------------
 ! Name  Definition              Value          Derivative Info.                !
 --------------------------------------------------------------------------------
 ! R1    R(1,2)                  1.4014         estimate D2E/DX2                !
 ! R2    R(1,6)                  1.4014         estimate D2E/DX2                !
 ! R3    R(1,8)                  1.07           estimate D2E/DX2                !
 ! R4    R(2,3)                  1.4014         estimate D2E/DX2                !
 ! R5    R(2,9)                  1.07           estimate D2E/DX2                !
 ! R6    R(3,4)                  1.4014         estimate D2E/DX2                !
 ! R7    R(3,10)                 1.4014         estimate D2E/DX2                !
 ! R8    R(4,5)                  1.4014         estimate D2E/DX2                !
 ! R9    R(4,11)                 1.4014         estimate D2E/DX2                !
 ! R10   R(5,6)                  1.4014         estimate D2E/DX2                !
 ! R11   R(5,12)                 1.07           estimate D2E/DX2                !
 ! R12   R(6,18)                 1.43           estimate D2E/DX2                !
 ! R13   R(7,10)                 1.07           estimate D2E/DX2                !
 ! R14   R(10,14)                1.4014         estimate D2E/DX2                !
 ! R15   R(11,13)                1.4014         estimate D2E/DX2                !
 ! R16   R(11,15)                1.07           estimate D2E/DX2                !
 ! R17   R(13,14)                1.4014         estimate D2E/DX2                !
 ! R18   R(13,16)                1.07           estimate D2E/DX2                !
 ! R19   R(14,17)                1.07           estimate D2E/DX2                !
 ! R20   R(18,19)                0.96           estimate D2E/DX2                !
 ! A1    A(2,1,6)              120.0            estimate D2E/DX2                !
 ! A2    A(2,1,8)              120.0            estimate D2E/DX2                !
 ! A3    A(6,1,8)              120.0            estimate D2E/DX2                !
 ! A4    A(1,2,3)              120.0            estimate D2E/DX2                !
 ! A5    A(1,2,9)              120.0            estimate D2E/DX2                !
 ! A6    A(3,2,9)              120.0            estimate D2E/DX2                !
 ! A7    A(2,3,4)              120.0            estimate D2E/DX2                !
 ! A8    A(2,3,10)             120.0            estimate D2E/DX2                !
 ! A9    A(4,3,10)             120.0            estimate D2E/DX2                !
 ! A10   A(3,4,5)              120.0            estimate D2E/DX2                !
 ! A11   A(3,4,11)             120.0            estimate D2E/DX2                !
 ! A12   A(5,4,11)             120.0            estimate D2E/DX2                !
 ! A13   A(4,5,6)              120.0            estimate D2E/DX2                !
 ! A14   A(4,5,12)             120.0            estimate D2E/DX2                !
 ! A15   A(6,5,12)             120.0            estimate D2E/DX2                !
 ! A16   A(1,6,5)              120.0            estimate D2E/DX2                !
 ! A17   A(1,6,18)             120.0            estimate D2E/DX2                !
 ! A18   A(5,6,18)             120.0            estimate D2E/DX2                !
 ! A19   A(3,10,7)             120.0            estimate D2E/DX2                !
 ! A20   A(3,10,14)            120.0            estimate D2E/DX2                !
 ! A21   A(7,10,14)            120.0            estimate D2E/DX2                !
 ! A22   A(4,11,13)            120.0            estimate D2E/DX2                !
 ! A23   A(4,11,15)            120.0            estimate D2E/DX2                !
 ! A24   A(13,11,15)           120.0            estimate D2E/DX2                !
 ! A25   A(11,13,14)           120.0            estimate D2E/DX2                !
 ! A26   A(11,13,16)           120.0            estimate D2E/DX2                !
 ! A27   A(14,13,16)           120.0            estimate D2E/DX2                !
 ! A28   A(10,14,13)           120.0            estimate D2E/DX2                !
 ! A29   A(10,14,17)           120.0            estimate D2E/DX2                !
 ! A30   A(13,14,17)           120.0            estimate D2E/DX2                !
 ! A31   A(6,18,19)            109.4712         estimate D2E/DX2                !
 ! D1    D(6,1,2,3)              0.0            estimate D2E/DX2                !
 ! D2    D(6,1,2,9)            180.0            estimate D2E/DX2                !
 ! D3    D(8,1,2,3)           -180.0            estimate D2E/DX2                !
 ! D4    D(8,1,2,9)              0.0            estimate D2E/DX2                !
 ! D5    D(2,1,6,5)              0.0            estimate D2E/DX2                !
 ! D6    D(2,1,6,18)           180.0            estimate D2E/DX2                !
 ! D7    D(8,1,6,5)            179.9999         estimate D2E/DX2                !
 ! D8    D(8,1,6,18)            -0.0001         estimate D2E/DX2                !
 ! D9    D(1,2,3,4)              0.0            estimate D2E/DX2                !
 ! D10   D(1,2,3,10)          -179.9999         estimate D2E/DX2                !
 ! D11   D(9,2,3,4)           -179.9999         estimate D2E/DX2                !
 ! D12   D(9,2,3,10)             0.0001         estimate D2E/DX2                !
 ! D13   D(2,3,4,5)             -0.0001         estimate D2E/DX2                !
 ! D14   D(2,3,4,11)           180.0            estimate D2E/DX2                !
 ! D15   D(10,3,4,5)           179.9999         estimate D2E/DX2                !
 ! D16   D(10,3,4,11)           -0.0001         estimate D2E/DX2                !
 ! D17   D(2,3,10,7)             0.0001         estimate D2E/DX2                !
 ! D18   D(2,3,10,14)         -180.0            estimate D2E/DX2                !
 ! D19   D(4,3,10,7)          -179.9998         estimate D2E/DX2                !
 ! D20   D(4,3,10,14)            0.0            estimate D2E/DX2                !
 ! D21   D(3,4,5,6)              0.0001         estimate D2E/DX2                !
 ! D22   D(3,4,5,12)           180.0            estimate D2E/DX2                !
 ! D23   D(11,4,5,6)          -180.0            estimate D2E/DX2                !
 ! D24   D(11,4,5,12)            0.0            estimate D2E/DX2                !
 ! D25   D(3,4,11,13)            0.0            estimate D2E/DX2                !
 ! D26   D(3,4,11,15)         -180.0            estimate D2E/DX2                !
 ! D27   D(5,4,11,13)         -179.9999         estimate D2E/DX2                !
 ! D28   D(5,4,11,15)            0.0            estimate D2E/DX2                !
 ! D29   D(4,5,6,1)              0.0            estimate D2E/DX2                !
 ! D30   D(4,5,6,18)          -180.0            estimate D2E/DX2                !
 ! D31   D(12,5,6,1)          -179.9999         estimate D2E/DX2                !
 ! D32   D(12,5,6,18)            0.0001         estimate D2E/DX2                !
 ! D33   D(1,6,18,19)          -90.0            estimate D2E/DX2                !
 ! D34   D(5,6,18,19)           90.0            estimate D2E/DX2                !
 ! D35   D(3,10,14,13)           0.0            estimate D2E/DX2                !
 ! D36   D(3,10,14,17)         180.0            estimate D2E/DX2                !
 ! D37   D(7,10,14,13)         179.9999         estimate D2E/DX2                !
 ! D38   D(7,10,14,17)          -0.0002         estimate D2E/DX2                !
 ! D39   D(4,11,13,14)           0.0            estimate D2E/DX2                !
 ! D40   D(4,11,13,16)        -179.9999         estimate D2E/DX2                !
 ! D41   D(15,11,13,14)       -180.0            estimate D2E/DX2                !
 ! D42   D(15,11,13,16)          0.0001         estimate D2E/DX2                !
 ! D43   D(11,13,14,10)          0.0            estimate D2E/DX2                !
 ! D44   D(11,13,14,17)       -180.0            estimate D2E/DX2                !
 ! D45   D(16,13,14,10)        179.9999         estimate D2E/DX2                !
 ! D46   D(16,13,14,17)         -0.0001         estimate D2E/DX2                !
 --------------------------------------------------------------------------------
 Trust Radius=3.00D-01 FncErr=1.00D-07 GrdErr=1.00D-06
 Number of steps in this run=    107 maximum allowed number of steps=    114.
 GradGradGradGradGradGradGradGradGradGradGradGradGradGradGradGradGradGrad

                          Input orientation:                          
 ---------------------------------------------------------------------
 Center     Atomic      Atomic             Coordinates (Angstroms)
 Number     Number       Type             X           Y           Z
 ---------------------------------------------------------------------
      1          6           0       -4.154263   -1.522346    0.013784
      2          6           0       -2.753033   -1.500615    0.011584
      3          6           0       -2.071246   -0.276261    0.004960
      4          6           0       -2.790688    0.926364    0.000538
      5          6           0       -4.191918    0.904633    0.002737
      6          6           0       -4.873705   -0.319721    0.009360
      7          1           0       -0.120706   -1.172761    0.006132
      8          1           0       -4.674823   -2.457167    0.018842
      9          1           0       -2.203723   -2.418846    0.014962
     10          6           0       -0.670016   -0.254530    0.002758
     11          6           0       -2.108901    2.150718   -0.006085
     12          1           0       -4.741228    1.822863   -0.000639
     13          6           0       -0.707671    2.172448   -0.008286
     14          6           0        0.011771    0.969824   -0.003865
     15          1           0       -2.658211    3.068948   -0.009462
     16          1           0       -0.187111    3.107270   -0.013342
     17          1           0        1.081641    0.986416   -0.005545
     18          8           0       -6.303532   -0.341895    0.011605
     19          1           0       -6.624849   -0.350998   -0.892979
 ---------------------------------------------------------------------
                    Distance matrix (angstroms):
                    1          2          3          4          5
     1  C    0.000000
     2  C    1.401400   0.000000
     3  C    2.427296   1.401400   0.000000
     4  C    2.802800   2.427296   1.401400   0.000000
     5  C    2.427296   2.802800   2.427296   1.401400   0.000000
     6  C    1.401400   2.427296   2.802800   2.427296   1.401400
     7  H    4.048685   2.652671   2.146700   3.396345   4.570596
     8  H    1.070000   2.146700   3.396345   3.872800   3.396345
     9  H    2.146700   1.070000   2.146700   3.396345   3.872800
    10  C    3.707756   2.427296   1.401400   2.427296   3.707756
    11  C    4.204200   3.707756   2.427296   1.401400   2.427296
    12  H    3.396345   3.872800   3.396345   2.146700   1.070000
    13  C    5.052820   4.204200   2.802800   2.427296   3.707756
    14  C    4.854592   3.707756   2.427296   2.802800   4.204200
    15  H    4.828943   4.570596   3.396345   2.146700   2.652671
    16  H    6.096915   5.274200   3.872800   3.396345   4.570596
    17  H    5.805941   4.570596   3.396345   3.872800   5.274200
    18  O    2.452106   3.734792   4.232800   3.734792   2.452106
    19  H    2.880637   4.138939   4.641895   4.138939   2.880637
                    6          7          8          9         10
     6  C    0.000000
     7  H    4.828943   0.000000
     8  H    2.146700   4.731791   0.000000
     9  H    3.396345   2.427296   2.471400   0.000000
    10  C    4.204200   1.070000   4.570596   2.652671   0.000000
    11  C    3.707756   3.872800   5.274200   4.570596   2.802800
    12  H    2.146700   5.506636   4.280590   4.942800   4.570596
    13  C    4.854592   3.396345   6.096915   4.828943   2.427296
    14  C    5.052820   2.146700   5.805941   4.048685   1.401400
    15  H    4.048685   4.942800   5.882642   5.506636   3.872800
    16  H    5.805941   4.280590   7.148675   5.882642   3.396345
    17  H    6.096915   2.471400   6.707886   4.731791   2.146700
    18  O    1.430000   6.238406   2.669667   4.595886   5.634200
    19  H    1.970203   6.617218   3.011639   4.964545   6.022598
                   11         12         13         14         15
    11  C    0.000000
    12  H    2.652671   0.000000
    13  C    1.401400   4.048685   0.000000
    14  C    2.427296   4.828943   1.401400   0.000000
    15  H    1.070000   2.427296   2.146700   3.396345   0.000000
    16  H    2.146700   4.731791   1.070000   2.146700   2.471400
    17  H    3.396345   5.882642   2.146700   1.070000   4.280590
    18  O    4.879381   2.669667   6.134817   6.450108   4.992260
    19  H    5.238221   3.011639   6.493340   6.824942   5.311389
                   16         17         18         19
    16  H    0.000000
    17  H    2.471400   0.000000
    18  O    7.021963   7.503698   0.000000
    19  H    7.360561   7.871862   0.960000   0.000000
 Stoichiometry    C10H8O
 Framework group  C1[X(C10H8O)]
 Deg. of freedom    51
 Full point group                 C1      NOp   1
 Largest Abelian subgroup         C1      NOp   1
 Largest concise Abelian subgroup C1      NOp   1
                         Standard orientation:                         
 ---------------------------------------------------------------------
 Center     Atomic      Atomic             Coordinates (Angstroms)
 Number     Number       Type             X           Y           Z
 ---------------------------------------------------------------------
      1          6           0       -1.856723    1.190685   -0.022462
      2          6           0       -0.540906    1.672628   -0.005756
      3          6           0        0.534446    0.774008   -0.001099
      4          6           0        0.293981   -0.606555   -0.013150
      5          6           0       -1.021836   -1.088497   -0.029855
      6          6           0       -2.097188   -0.189877   -0.034511
      7          1           0        2.033863    2.310040    0.024811
      8          1           0       -2.677778    1.876802   -0.026018
      9          1           0       -0.357306    2.726718    0.003444
     10          6           0        1.850263    1.255950    0.015608
     11          6           0        1.369333   -1.505175   -0.008495
     12          1           0       -1.205436   -2.142588   -0.039057
     13          6           0        2.685150   -1.023233    0.008212
     14          6           0        2.925615    0.357330    0.020264
     15          1           0        1.185733   -2.559265   -0.017696
     16          1           0        3.506205   -1.709349    0.011765
     17          1           0        3.930270    0.725304    0.033019
     18          8           0       -3.439858   -0.681655   -0.051557
     19          1           0       -3.749499   -0.798003    0.849657
 ---------------------------------------------------------------------
 Rotational constants (GHZ):      2.8546131      0.8230505      0.6401459
 Standard basis: 6-31+G(d) (6D, 7F)
 There are   225 symmetry adapted cartesian basis functions of A   symmetry.
 There are   225 symmetry adapted basis functions of A   symmetry.
   225 basis functions,   384 primitive gaussians,   225 cartesian basis functions
    38 alpha electrons       38 beta electrons
       nuclear repulsion energy       544.0615989689 Hartrees.
 NAtoms=   19 NActive=   19 NUniq=   19 SFac= 1.00D+00 NAtFMM=   60 NAOKFM=F Big=F
 Integral buffers will be    131072 words long.
 Raffenetti 2 integral format.
 Two-electron integral symmetry is turned on.
 Nuclear repulsion after empirical dispersion term =      544.0486888498 Hartrees.
 One-electron integrals computed using PRISM.
 NBasis=   225 RedAO= T EigKep=  1.06D-06  NBF=   225
 NBsUse=   224 1.00D-06 EigRej=  7.21D-07 NBFU=   224
 ExpMin= 4.38D-02 ExpMax= 5.48D+03 ExpMxC= 8.25D+02 IAcc=2 IRadAn=         4 AccDes= 0.00D+00
 Harris functional with IExCor=  402 and IRadAn=       4 diagonalized for initial guess.
 HarFok:  IExCor=  402 AccDes= 0.00D+00 IRadAn=         4 IDoV= 1 UseB2=F ITyADJ=14
 ICtDFT=  3500011 ScaDFX=  1.000000  1.000000  1.000000  1.000000
 FoFCou: FMM=F IPFlag=           0 FMFlag=      100000 FMFlg1=           0
         NFxFlg=           0 DoJE=T BraDBF=F KetDBF=T FulRan=T
         wScrn=  0.000000 ICntrl=     500 IOpCl=  0 I1Cent=   200000004 NGrid=           0
         NMat0=    1 NMatS0=      1 NMatT0=    0 NMatD0=    1 NMtDS0=    0 NMtDT0=    0
 Petite list used in FoFCou.
 Keep R1 ints in memory in canonical form, NReq=329172959.
 Requested convergence on RMS density matrix=1.00D-08 within 128 cycles.
 Requested convergence on MAX density matrix=1.00D-06.
 Requested convergence on             energy=1.00D-06.
 No special actions if energy rises.
 SCF Done:  E(RB3LYP) =  -461.128079021     A.U. after   14 cycles
            NFock= 14  Conv=0.90D-08     -V/T= 2.0092

 **********************************************************************

            Population analysis using the SCF density.

 **********************************************************************

 Orbital symmetries:
       Occupied  (A) (A) (A) (A) (A) (A) (A) (A) (A) (A) (A) (A)
                 (A) (A) (A) (A) (A) (A) (A) (A) (A) (A) (A) (A)
                 (A) (A) (A) (A) (A) (A) (A) (A) (A) (A) (A) (A)
                 (A) (A)
       Virtual   (A) (A) (A) (A) (A) (A) (A) (A) (A) (A) (A) (A)
                 (A) (A) (A) (A) (A) (A) (A) (A) (A) (A) (A) (A)
                 (A) (A) (A) (A) (A) (A) (A) (A) (A) (A) (A) (A)
                 (A) (A) (A) (A) (A) (A) (A) (A) (A) (A) (A) (A)
                 (A) (A) (A) (A) (A) (A) (A) (A) (A) (A) (A) (A)
                 (A) (A) (A) (A) (A) (A) (A) (A) (A) (A) (A) (A)
                 (A) (A) (A) (A) (A) (A) (A) (A) (A) (A) (A) (A)
                 (A) (A) (A) (A) (A) (A) (A) (A) (A) (A) (A) (A)
                 (A) (A) (A) (A) (A) (A) (A) (A) (A) (A) (A) (A)
                 (A) (A) (A) (A) (A) (A) (A) (A) (A) (A) (A) (A)
                 (A) (A) (A) (A) (A) (A) (A) (A) (A) (A) (A) (A)
                 (A) (A) (A) (A) (A) (A) (A) (A) (A) (A) (A) (A)
                 (A) (A) (A) (A) (A) (A) (A) (A) (A) (A) (A) (A)
                 (A) (A) (A) (A) (A) (A) (A) (A) (A) (A) (A) (A)
                 (A) (A) (A) (A) (A) (A) (A) (A) (A) (A) (A) (A)
                 (A) (A) (A) (A) (A) (A)
 The electronic state is 1-A.
 Alpha  occ. eigenvalues --  -19.17702 -10.25769 -10.20499 -10.20351 -10.20257
 Alpha  occ. eigenvalues --  -10.20157 -10.20016 -10.19955 -10.19891 -10.19878
 Alpha  occ. eigenvalues --  -10.19828  -1.04124  -0.88839  -0.82626  -0.78700
 Alpha  occ. eigenvalues --   -0.75151  -0.72260  -0.64191  -0.62080  -0.61499
 Alpha  occ. eigenvalues --   -0.54860  -0.52649  -0.51351  -0.47659  -0.46449
 Alpha  occ. eigenvalues --   -0.44887  -0.42989  -0.42385  -0.41390  -0.39754
 Alpha  occ. eigenvalues --   -0.39075  -0.35388  -0.35273  -0.32691  -0.30592
 Alpha  occ. eigenvalues --   -0.29508  -0.25374  -0.21934
 Alpha virt. eigenvalues --   -0.05523  -0.01803  -0.00119   0.00420   0.00781
 Alpha virt. eigenvalues --    0.01412   0.02690   0.03862   0.05088   0.05739
 Alpha virt. eigenvalues --    0.05860   0.06299   0.06681   0.07453   0.08684
 Alpha virt. eigenvalues --    0.09499   0.10103   0.10517   0.11424   0.12274
 Alpha virt. eigenvalues --    0.12406   0.13301   0.14010   0.14620   0.15001
 Alpha virt. eigenvalues --    0.15252   0.16203   0.16799   0.17118   0.18642
 Alpha virt. eigenvalues --    0.19012   0.19194   0.19787   0.20532   0.21033
 Alpha virt. eigenvalues --    0.21157   0.21400   0.21954   0.22191   0.22737
 Alpha virt. eigenvalues --    0.24342   0.24507   0.25424   0.26126   0.26757
 Alpha virt. eigenvalues --    0.27181   0.27441   0.27837   0.29009   0.29205
 Alpha virt. eigenvalues --    0.29773   0.30107   0.31708   0.32577   0.33001
 Alpha virt. eigenvalues --    0.34415   0.34903   0.35819   0.36527   0.37624
 Alpha virt. eigenvalues --    0.39109   0.40960   0.42611   0.44617   0.52882
 Alpha virt. eigenvalues --    0.54444   0.61144   0.64613   0.65955   0.66871
 Alpha virt. eigenvalues --    0.67307   0.67417   0.70790   0.71228   0.71816
 Alpha virt. eigenvalues --    0.73288   0.73689   0.74973   0.75398   0.76402
 Alpha virt. eigenvalues --    0.76636   0.76692   0.77165   0.79976   0.80717
 Alpha virt. eigenvalues --    0.82434   0.87325   0.88349   0.90090   0.92276
 Alpha virt. eigenvalues --    0.94141   0.94753   0.96087   0.98309   1.01723
 Alpha virt. eigenvalues --    1.02599   1.05760   1.07724   1.08110   1.10592
 Alpha virt. eigenvalues --    1.11106   1.13587   1.14189   1.15826   1.18305
 Alpha virt. eigenvalues --    1.18916   1.21188   1.22053   1.23659   1.24909
 Alpha virt. eigenvalues --    1.25970   1.30340   1.32146   1.34856   1.38741
 Alpha virt. eigenvalues --    1.38966   1.40147   1.42849   1.45926   1.46971
 Alpha virt. eigenvalues --    1.47481   1.48275   1.49066   1.50099   1.51882
 Alpha virt. eigenvalues --    1.57335   1.67867   1.73875   1.77317   1.81484
 Alpha virt. eigenvalues --    1.84411   1.85857   1.86192   1.91808   1.92780
 Alpha virt. eigenvalues --    1.93632   1.97252   1.98228   2.00197   2.01104
 Alpha virt. eigenvalues --    2.01123   2.02707   2.08242   2.11425   2.14440
 Alpha virt. eigenvalues --    2.18042   2.18284   2.20603   2.23565   2.27500
 Alpha virt. eigenvalues --    2.30976   2.31821   2.34341   2.35197   2.37484
 Alpha virt. eigenvalues --    2.40687   2.47441   2.55944   2.60161   2.60972
 Alpha virt. eigenvalues --    2.62447   2.65447   2.67836   2.68754   2.76005
 Alpha virt. eigenvalues --    2.79871   2.79957   2.85583   2.87874   2.91142
 Alpha virt. eigenvalues --    3.00543   3.02756   3.10664   3.40431   3.49118
 Alpha virt. eigenvalues --    4.16273   4.23215   4.26390   4.29761   4.30010
 Alpha virt. eigenvalues --    4.33273   4.34442   4.43581   4.46234   4.60792
 Alpha virt. eigenvalues --    4.85145
          Condensed to atoms (all electrons):
               1          2          3          4          5          6
     1  C    9.556842  -0.647536  -1.271136   0.883168  -1.168905  -1.774936
     2  C   -0.647536   9.042179  -2.395790  -2.851549   0.553211   0.422123
     3  C   -1.271136  -2.395790  15.885211   1.499790  -2.505234   1.133307
     4  C    0.883168  -2.851549   1.499790  14.639187  -1.143682  -0.989369
     5  C   -1.168905   0.553211  -2.505234  -1.143682  11.244314  -3.224528
     6  C   -1.774936   0.422123   1.133307  -0.989369  -3.224528  11.976052
     7  H   -0.005086  -0.059577  -0.012319   0.070381   0.005625   0.001946
     8  H    0.378037  -0.083852  -0.005586   0.025490   0.056876  -0.068348
     9  H    0.043610   0.218322   0.037655   0.107022  -0.006285  -0.037546
    10  C   -0.541110   2.652667  -3.804341  -3.302633  -0.193950   1.376056
    11  C    0.992129  -0.235124  -3.326271  -3.089277   2.638829  -2.647053
    12  H    0.044277  -0.020960   0.050094  -0.078554   0.261622   0.060376
    13  C    0.068065   0.112374   0.605807  -0.210540  -0.433456  -0.445146
    14  C   -0.193056  -0.829056   0.415399   0.748661   0.042038  -0.138345
    15  H    0.000974   0.006188   0.073499  -0.008587  -0.055613  -0.004619
    16  H   -0.000998   0.008647   0.015963   0.023480  -0.018742   0.000706
    17  H    0.000954  -0.019037   0.031111   0.015261   0.007650  -0.000995
    18  O   -0.404169   0.012613   0.030323  -0.091146  -0.338628   0.866464
    19  H   -0.021397  -0.011020   0.010065  -0.020819  -0.116717   0.157982
               7          8          9         10         11         12
     1  C   -0.005086   0.378037   0.043610  -0.541110   0.992129   0.044277
     2  C   -0.059577  -0.083852   0.218322   2.652667  -0.235124  -0.020960
     3  C   -0.012319  -0.005586   0.037655  -3.804341  -3.326271   0.050094
     4  C    0.070381   0.025490   0.107022  -3.302633  -3.089277  -0.078554
     5  C    0.005625   0.056876  -0.006285  -0.193950   2.638829   0.261622
     6  C    0.001946  -0.068348  -0.037546   1.376056  -2.647053   0.060376
     7  H    0.542579  -0.000012   0.004330   0.245934  -0.020589   0.000002
     8  H   -0.000012   0.518583  -0.004301  -0.017875   0.011707  -0.000158
     9  H    0.004330  -0.004301   0.534382  -0.099198   0.017803   0.000018
    10  C    0.245934  -0.017875  -0.099198  11.218086  -0.213711   0.007529
    11  C   -0.020589   0.011707   0.017803  -0.213711  11.863823  -0.035401
    12  H    0.000002  -0.000158   0.000018   0.007529  -0.035401   0.528410
    13  C    0.008217  -0.000985  -0.000892  -0.545013  -0.073159  -0.010731
    14  C    0.041648   0.000959  -0.000328  -0.947092  -0.311815   0.001547
    15  H    0.000020   0.000000   0.000002  -0.017566   0.237802   0.003918
    16  H   -0.000175   0.000000   0.000000   0.047547  -0.065956  -0.000012
    17  H   -0.004341   0.000000  -0.000011  -0.066868   0.044297   0.000000
    18  O    0.000002  -0.002002  -0.000578   0.025941  -0.059657  -0.002974
    19  H    0.000000   0.000395   0.000002   0.003897  -0.007698   0.000232
              13         14         15         16         17         18
     1  C    0.068065  -0.193056   0.000974  -0.000998   0.000954  -0.404169
     2  C    0.112374  -0.829056   0.006188   0.008647  -0.019037   0.012613
     3  C    0.605807   0.415399   0.073499   0.015963   0.031111   0.030323
     4  C   -0.210540   0.748661  -0.008587   0.023480   0.015261  -0.091146
     5  C   -0.433456   0.042038  -0.055613  -0.018742   0.007650  -0.338628
     6  C   -0.445146  -0.138345  -0.004619   0.000706  -0.000995   0.866464
     7  H    0.008217   0.041648   0.000020  -0.000175  -0.004341   0.000002
     8  H   -0.000985   0.000959   0.000000   0.000000   0.000000  -0.002002
     9  H   -0.000892  -0.000328   0.000002   0.000000  -0.000011  -0.000578
    10  C   -0.545013  -0.947092  -0.017566   0.047547  -0.066868   0.025941
    11  C   -0.073159  -0.311815   0.237802  -0.065956   0.044297  -0.059657
    12  H   -0.010731   0.001547   0.003918  -0.000012   0.000000  -0.002974
    13  C    6.345747   0.641664   0.038255   0.348631  -0.065062  -0.001185
    14  C    0.641664   6.621707   0.006464  -0.063918   0.348298  -0.004504
    15  H    0.038255   0.006464   0.541255  -0.004342  -0.000175  -0.000051
    16  H    0.348631  -0.063918  -0.004342   0.534033  -0.004299  -0.000001
    17  H   -0.065062   0.348298  -0.000175  -0.004299   0.534453   0.000000
    18  O   -0.001185  -0.004504  -0.000051  -0.000001   0.000000   8.492489
    19  H   -0.001105  -0.000216   0.000000   0.000000   0.000000   0.180557
              19
     1  C   -0.021397
     2  C   -0.011020
     3  C    0.010065
     4  C   -0.020819
     5  C   -0.116717
     6  C    0.157982
     7  H    0.000000
     8  H    0.000395
     9  H    0.000002
    10  C    0.003897
    11  C   -0.007698
    12  H    0.000232
    13  C   -0.001105
    14  C   -0.000216
    15  H    0.000000
    16  H    0.000000
    17  H    0.000000
    18  O    0.180557
    19  H    0.324905
 Mulliken charges:
               1
     1  C    0.060273
     2  C    0.125176
     3  C   -0.467550
     4  C   -0.226286
     5  C    0.395574
     6  C   -0.664126
     7  H    0.181415
     8  H    0.191071
     9  H    0.185993
    10  C    0.171699
    11  C    0.279321
    12  H    0.190764
    13  C   -0.381486
    14  C   -0.380056
    15  H    0.182576
    16  H    0.179435
    17  H    0.178765
    18  O   -0.703495
    19  H    0.500937
 Sum of Mulliken charges =   0.00000
 Mulliken charges with hydrogens summed into heavy atoms:
               1
     1  C    0.251344
     2  C    0.311169
     3  C   -0.467550
     4  C   -0.226286
     5  C    0.586338
     6  C   -0.664126
    10  C    0.353115
    11  C    0.461896
    13  C   -0.202051
    14  C   -0.201290
    18  O   -0.202558
 Electronic spatial extent (au):  <R**2>=           1706.4322
 Charge=              0.0000 electrons
 Dipole moment (field-independent basis, Debye):
    X=              0.8461    Y=              0.3438    Z=              1.5574  Tot=              1.8054
 Quadrupole moment (field-independent basis, Debye-Ang):
   XX=            -61.5133   YY=            -57.1890   ZZ=            -67.8133
   XY=             -1.0600   XZ=             -6.5070   YZ=             -1.4258
 Traceless Quadrupole moment (field-independent basis, Debye-Ang):
   XX=              0.6586   YY=              4.9829   ZZ=             -5.6414
   XY=             -1.0600   XZ=             -6.5070   YZ=             -1.4258
 Octapole moment (field-independent basis, Debye-Ang**2):
  XXX=              8.4831  YYY=              0.0638  ZZZ=              1.8587  XYY=             -1.4616
  XXY=              2.0720  XXZ=             26.4897  XZZ=            -14.8094  YZZ=             -2.8988
  YYZ=              1.2447  XYZ=              5.9593
 Hexadecapole moment (field-independent basis, Debye-Ang**3):
 XXXX=          -1588.1114 YYYY=           -526.3727 ZZZZ=            -84.4138 XXXY=             -1.9581
 XXXZ=           -104.2798 YYYX=              3.2133 YYYZ=             -1.3620 ZZZX=             -8.5737
 ZZZY=             -1.9671 XXYY=           -351.2947 XXZZ=           -293.9219 YYZZ=           -121.8531
 XXYZ=            -22.6480 YYXZ=             -5.5669 ZZXY=             10.7705
 N-N= 5.440486888498D+02 E-N=-2.158416787066D+03  KE= 4.569149336528D+02
 Calling FoFJK, ICntrl=      2127 FMM=F ISym2X=0 I1Cent= 0 IOpClX= 0 NMat=1 NMatS=1 NMatT=0.
 ***** Axes restored to original set *****
 -------------------------------------------------------------------
 Center     Atomic                   Forces (Hartrees/Bohr)
 Number     Number              X              Y              Z
 -------------------------------------------------------------------
      1        6           0.023856906   -0.002105280    0.000959759
      2        6          -0.037330201    0.001144495    0.000314149
      3        6           0.013048001   -0.019042862    0.000312314
      4        6          -0.011973545    0.016242956    0.000549591
      5        6          -0.021787310   -0.029532091    0.001082977
      6        6          -0.014067126    0.024912195   -0.006800962
      7        1           0.005777303   -0.010786613    0.000069584
      8        1          -0.007364726   -0.009290625    0.000265107
      9        1           0.005959371   -0.010280594    0.000043788
     10        6           0.019259809    0.031582642   -0.000326277
     11        6           0.036409041    0.002644233   -0.000053563
     12        1          -0.007397513    0.009177556    0.000062691
     13        6          -0.027179952   -0.001521044   -0.000108709
     14        6          -0.013110237   -0.023273858    0.000155464
     15        1          -0.006759048    0.010112109    0.000051285
     16        1           0.005569508    0.010795558   -0.000035626
     17        1           0.012159210   -0.000118830    0.000004743
     18        8           0.026520139   -0.000453811    0.013031373
     19        1          -0.001589631   -0.000206135   -0.009577687
 -------------------------------------------------------------------
 Cartesian Forces:  Max     0.037330201 RMS     0.014055029

 GradGradGradGradGradGradGradGradGradGradGradGradGradGradGradGradGradGrad
 Berny optimization.
 FormGI is forming the generalized inverse of G from B-inverse, IUseBI=4.
 Internal  Forces:  Max     0.025322761 RMS     0.007480488
 Search for a local minimum.
 Step number   1 out of a maximum of  107
 All quantities printed in internal units (Hartrees-Bohrs-Radians)
 Mixed Optimization -- RFO/linear search
 Second derivative matrix not updated -- first step.
 ITU=  0
     Eigenvalues ---    0.01295   0.01930   0.02070   0.02070   0.02070
     Eigenvalues ---    0.02070   0.02070   0.02070   0.02070   0.02070
     Eigenvalues ---    0.02070   0.02070   0.02070   0.02070   0.02070
     Eigenvalues ---    0.02070   0.16000   0.16000   0.16000   0.16000
     Eigenvalues ---    0.16000   0.16000   0.16000   0.16000   0.22000
     Eigenvalues ---    0.22301   0.22718   0.23522   0.24381   0.24757
     Eigenvalues ---    0.25000   0.37230   0.37230   0.37230   0.37230
     Eigenvalues ---    0.37230   0.37230   0.37230   0.39186   0.40989
     Eigenvalues ---    0.41052   0.41682   0.43123   0.45389   0.45389
     Eigenvalues ---    0.45389   0.45389   0.45389   0.45389   0.45389
     Eigenvalues ---    0.55473
 RFO step:  Lambda=-1.32894864D-02 EMin= 1.29493786D-02
 Linear search not attempted -- first point.
 Iteration  1 RMS(Cart)=  0.02738749 RMS(Int)=  0.00029834
 Iteration  2 RMS(Cart)=  0.00030432 RMS(Int)=  0.00011195
 Iteration  3 RMS(Cart)=  0.00000011 RMS(Int)=  0.00011195
 Variable       Old X    -DE/DX   Delta X   Delta X   Delta X     New X
                                 (Linear)    (Quad)   (Total)
    R1        2.64826  -0.01508   0.00000  -0.03408  -0.03409   2.61417
    R2        2.64826   0.00912   0.00000   0.01581   0.01581   2.66407
    R3        2.02201   0.01170   0.00000   0.03034   0.03034   2.05235
    R4        2.64826   0.01729   0.00000   0.03892   0.03891   2.68717
    R5        2.02201   0.01188   0.00000   0.03081   0.03081   2.05282
    R6        2.64826   0.02532   0.00000   0.06147   0.06155   2.70981
    R7        2.64826   0.01709   0.00000   0.03837   0.03840   2.68666
    R8        2.64826   0.01703   0.00000   0.03826   0.03827   2.68653
    R9        2.64826   0.01694   0.00000   0.03801   0.03805   2.68631
   R10        2.64826  -0.01860   0.00000  -0.04174  -0.04173   2.60653
   R11        2.02201   0.01168   0.00000   0.03028   0.03028   2.05229
   R12        2.70231  -0.02491   0.00000  -0.05886  -0.05886   2.64345
   R13        2.02201   0.01223   0.00000   0.03171   0.03171   2.05371
   R14        2.64826  -0.01469   0.00000  -0.03320  -0.03324   2.61502
   R15        2.64826  -0.01450   0.00000  -0.03283  -0.03286   2.61540
   R16        2.02201   0.01214   0.00000   0.03150   0.03150   2.05350
   R17        2.64826   0.01318   0.00000   0.02465   0.02458   2.67284
   R18        2.02201   0.01214   0.00000   0.03148   0.03148   2.05349
   R19        2.02201   0.01216   0.00000   0.03153   0.03153   2.05354
   R20        1.81414   0.00956   0.00000   0.01683   0.01683   1.83097
    A1        2.09440   0.00120   0.00000  -0.00431  -0.00426   2.09014
    A2        2.09440   0.00134   0.00000   0.01337   0.01334   2.10773
    A3        2.09440  -0.00254   0.00000  -0.00906  -0.00909   2.08530
    A4        2.09440   0.00300   0.00000   0.01489   0.01494   2.10934
    A5        2.09440  -0.00167   0.00000  -0.00844  -0.00847   2.08593
    A6        2.09440  -0.00133   0.00000  -0.00646  -0.00649   2.08791
    A7        2.09440  -0.00701   0.00000  -0.02033  -0.02032   2.07407
    A8        2.09440   0.01251   0.00000   0.03613   0.03603   2.13043
    A9        2.09440  -0.00550   0.00000  -0.01580  -0.01572   2.07868
   A10        2.09440  -0.00534   0.00000  -0.01417  -0.01414   2.08025
   A11        2.09440  -0.00607   0.00000  -0.01794  -0.01785   2.07654
   A12        2.09440   0.01142   0.00000   0.03211   0.03200   2.12639
   A13        2.09440  -0.00017   0.00000   0.00084   0.00093   2.09533
   A14        2.09440   0.00174   0.00000   0.00910   0.00904   2.10344
   A15        2.09440  -0.00156   0.00000  -0.00994  -0.00999   2.08440
   A16        2.09440   0.00833   0.00000   0.02308   0.02275   2.11715
   A17        2.09440  -0.00562   0.00000  -0.01705  -0.01747   2.07693
   A18        2.09440  -0.00272   0.00000  -0.00603  -0.00647   2.08793
   A19        2.09440  -0.00164   0.00000  -0.00866  -0.00867   2.08573
   A20        2.09440   0.00209   0.00000   0.01049   0.01050   2.10489
   A21        2.09440  -0.00045   0.00000  -0.00183  -0.00183   2.09256
   A22        2.09440   0.00198   0.00000   0.00989   0.00991   2.10430
   A23        2.09440  -0.00160   0.00000  -0.00847  -0.00848   2.08592
   A24        2.09440  -0.00038   0.00000  -0.00142  -0.00143   2.09296
   A25        2.09440   0.00414   0.00000   0.00834   0.00824   2.10264
   A26        2.09440  -0.00245   0.00000  -0.00637  -0.00632   2.08807
   A27        2.09440  -0.00169   0.00000  -0.00196  -0.00192   2.09248
   A28        2.09440   0.00336   0.00000   0.00502   0.00492   2.09932
   A29        2.09440  -0.00200   0.00000  -0.00436  -0.00431   2.09009
   A30        2.09440  -0.00136   0.00000  -0.00067  -0.00062   2.09378
   A31        1.91063  -0.00309   0.00000  -0.01785  -0.01785   1.89279
    D1        0.00000   0.00024   0.00000   0.00740   0.00727   0.00727
    D2        3.14159   0.00008   0.00000   0.00269   0.00260  -3.13899
    D3       -3.14159   0.00044   0.00000   0.01313   0.01303  -3.12856
    D4        0.00000   0.00028   0.00000   0.00843   0.00837   0.00837
    D5        0.00000  -0.00048   0.00000  -0.01513  -0.01528  -0.01528
    D6        3.14159   0.00123   0.00000   0.03724   0.03715  -3.10444
    D7        3.14159  -0.00068   0.00000  -0.02087  -0.02097   3.12062
    D8        0.00000   0.00103   0.00000   0.03151   0.03146   0.03146
    D9        0.00000   0.00008   0.00000   0.00253   0.00249   0.00249
   D10       -3.14159  -0.00002   0.00000  -0.00052  -0.00056   3.14103
   D11       -3.14159   0.00024   0.00000   0.00723   0.00716  -3.13443
   D12        0.00000   0.00014   0.00000   0.00418   0.00411   0.00411
   D13        0.00000  -0.00015   0.00000  -0.00472  -0.00467  -0.00467
   D14        3.14159  -0.00016   0.00000  -0.00501  -0.00494   3.13665
   D15        3.14159  -0.00006   0.00000  -0.00167  -0.00171   3.13988
   D16        0.00000  -0.00007   0.00000  -0.00196  -0.00198  -0.00198
   D17        0.00000   0.00007   0.00000   0.00208   0.00211   0.00211
   D18       -3.14159   0.00011   0.00000   0.00339   0.00344  -3.13815
   D19       -3.14159  -0.00003   0.00000  -0.00097  -0.00095   3.14065
   D20        0.00000   0.00001   0.00000   0.00034   0.00038   0.00038
   D21        0.00000  -0.00009   0.00000  -0.00301  -0.00301  -0.00300
   D22        3.14159  -0.00031   0.00000  -0.00941  -0.00947   3.13212
   D23       -3.14159  -0.00008   0.00000  -0.00273  -0.00272   3.13887
   D24        0.00000  -0.00030   0.00000  -0.00912  -0.00919  -0.00919
   D25        0.00000   0.00009   0.00000   0.00267   0.00269   0.00269
   D26       -3.14159   0.00007   0.00000   0.00199   0.00199  -3.13960
   D27       -3.14159   0.00008   0.00000   0.00238   0.00241  -3.13918
   D28        0.00000   0.00006   0.00000   0.00170   0.00171   0.00171
   D29        0.00000   0.00041   0.00000   0.01294   0.01307   0.01307
   D30       -3.14159  -0.00130   0.00000  -0.03943  -0.03969   3.10190
   D31       -3.14159   0.00063   0.00000   0.01934   0.01946  -3.12213
   D32        0.00000  -0.00108   0.00000  -0.03304  -0.03330  -0.03330
   D33       -1.57080  -0.00074   0.00000  -0.02199  -0.02158  -1.59237
   D34        1.57080   0.00096   0.00000   0.03038   0.02997   1.60076
   D35        0.00000   0.00002   0.00000   0.00056   0.00057   0.00057
   D36        3.14159  -0.00002   0.00000  -0.00059  -0.00061   3.14099
   D37        3.14159   0.00006   0.00000   0.00187   0.00190  -3.13969
   D38        0.00000   0.00002   0.00000   0.00072   0.00073   0.00073
   D39        0.00000  -0.00006   0.00000  -0.00176  -0.00178  -0.00178
   D40       -3.14159  -0.00001   0.00000  -0.00041  -0.00043   3.14116
   D41       -3.14159  -0.00004   0.00000  -0.00108  -0.00107   3.14052
   D42        0.00000   0.00001   0.00000   0.00027   0.00027   0.00027
   D43        0.00000   0.00001   0.00000   0.00014   0.00012   0.00012
   D44       -3.14159   0.00004   0.00000   0.00130   0.00130  -3.14029
   D45        3.14159  -0.00004   0.00000  -0.00121  -0.00123   3.14037
   D46        0.00000   0.00000   0.00000  -0.00005  -0.00005  -0.00005
         Item               Value     Threshold  Converged?
 Maximum Force            0.025323     0.000450     NO 
 RMS     Force            0.007480     0.000300     NO 
 Maximum Displacement     0.114337     0.001800     NO 
 RMS     Displacement     0.027388     0.001200     NO 
 Predicted change in Energy=-6.911607D-03
 GradGradGradGradGradGradGradGradGradGradGradGradGradGradGradGradGradGrad

                          Input orientation:                          
 ---------------------------------------------------------------------
 Center     Atomic      Atomic             Coordinates (Angstroms)
 Number     Number       Type             X           Y           Z
 ---------------------------------------------------------------------
      1          6           0       -4.164840   -1.531705    0.005505
      2          6           0       -2.781554   -1.517308    0.006797
      3          6           0       -2.064974   -0.289092   -0.000260
      4          6           0       -2.801462    0.941283   -0.005651
      5          6           0       -4.222471    0.898738   -0.009593
      6          6           0       -4.877201   -0.315281   -0.011802
      7          1           0       -0.079230   -1.172830    0.006531
      8          1           0       -4.710639   -2.470488    0.023065
      9          1           0       -2.236589   -2.456961    0.017698
     10          6           0       -0.643961   -0.244314    0.001554
     11          6           0       -2.088148    2.170895   -0.006564
     12          1           0       -4.801733    1.817367   -0.004838
     13          6           0       -0.704179    2.181742   -0.005525
     14          6           0        0.022625    0.968362   -0.001374
     15          1           0       -2.637498    3.108474   -0.008753
     16          1           0       -0.174229    3.130416   -0.006652
     17          1           0        1.109156    0.986508    0.000636
     18          8           0       -6.274983   -0.347267    0.032578
     19          1           0       -6.610303   -0.364196   -0.876295
 ---------------------------------------------------------------------
                    Distance matrix (angstroms):
                    1          2          3          4          5
     1  C    0.000000
     2  C    1.383361   0.000000
     3  C    2.439991   1.421988   0.000000
     4  C    2.823932   2.458703   1.433969   0.000000
     5  C    2.431172   2.813145   2.462889   1.421651   0.000000
     6  C    1.409767   2.415978   2.812373   2.426455   1.379318
     7  H    4.101342   2.724193   2.173527   3.446763   4.632289
     8  H    1.086057   2.151787   3.429079   3.909727   3.404565
     9  H    2.138785   1.086303   2.174725   3.444952   3.899383
    10  C    3.748864   2.487940   1.421719   2.461809   3.756651
    11  C    4.245238   3.752843   2.460105   1.421536   2.484699
    12  H    3.409109   3.898886   3.453555   2.183714   1.086023
    13  C    5.076021   4.242477   2.820782   2.436665   3.744929
    14  C    4.877012   3.747271   2.437060   2.824220   4.245675
    15  H    4.885104   4.628050   3.445477   2.173387   2.719389
    16  H    6.136815   5.329133   3.907428   3.419745   4.622625
    17  H    5.844352   4.626744   3.420856   3.910885   5.332359
    18  O    2.419985   3.684250   4.210539   3.705020   2.401481
    19  H    2.849726   4.094977   4.629589   4.119413   2.836885
                    6          7          8          9         10
     6  C    0.000000
     7  H    4.874039   0.000000
     8  H    2.161915   4.809797   0.000000
     9  H    3.400073   2.510641   2.474093   0.000000
    10  C    4.233856   1.086779   4.636182   2.726267   0.000000
    11  C    3.736297   3.900823   5.331115   4.630300   2.814068
    12  H    2.133995   5.589584   4.288914   4.985013   4.640866
    13  C    4.863052   3.412310   6.139690   4.885323   2.426814
    14  C    5.065189   2.143628   5.850648   4.103321   1.383809
    15  H    4.091256   4.987438   5.951786   5.579919   3.900703
    16  H    5.830163   4.304314   7.207637   5.955896   3.407274
    17  H    6.126278   2.464759   6.769147   4.801227   2.142042
    18  O    1.398852   6.250567   2.637296   4.556277   5.632048
    19  H    1.937365   6.639894   2.975574   4.930342   6.031768
                   11         12         13         14         15
    11  C    0.000000
    12  H    2.736518   0.000000
    13  C    1.384012   4.113723   0.000000
    14  C    2.429295   4.898494   1.414409   0.000000
    15  H    1.086667   2.520096   2.143960   3.414145   0.000000
    16  H    2.140973   4.810186   1.086660   2.171003   2.463367
    17  H    3.409630   5.969000   2.171821   1.086685   4.305838
    18  O    4.885925   2.618685   6.118104   6.433653   5.017485
    19  H    5.256711   2.964723   6.490173   6.821798   5.347452
                   16         17         18         19
    16  H    0.000000
    17  H    2.498694   0.000000
    18  O    7.022465   7.503698   0.000000
    19  H    7.375069   7.885649   0.968905   0.000000
 Stoichiometry    C10H8O
 Framework group  C1[X(C10H8O)]
 Deg. of freedom    51
 Full point group                 C1      NOp   1
 Largest Abelian subgroup         C1      NOp   1
 Largest concise Abelian subgroup C1      NOp   1
                         Standard orientation:                         
 ---------------------------------------------------------------------
 Center     Atomic      Atomic             Coordinates (Angstroms)
 Number     Number       Type             X           Y           Z
 ---------------------------------------------------------------------
      1          6           0       -1.876956    1.186835   -0.016922
      2          6           0       -0.582683    1.675102   -0.004947
      3          6           0        0.530542    0.790376    0.001345
      4          6           0        0.290492   -0.623327   -0.008073
      5          6           0       -1.049161   -1.099069   -0.017587
      6          6           0       -2.099663   -0.205227   -0.014106
      7          1           0        2.060481    2.334133    0.019259
      8          1           0       -2.725978    1.863883   -0.033879
      9          1           0       -0.415616    2.748482   -0.004706
     10          6           0        1.870994    1.264019    0.012973
     11          6           0        1.401222   -1.510481   -0.007965
     12          1           0       -1.255708   -2.165148   -0.033682
     13          6           0        2.694841   -1.018660    0.004293
     14          6           0        2.932022    0.375681    0.014751
     15          1           0        1.229375   -2.583436   -0.016946
     16          1           0        3.532792   -1.710519    0.004602
     17          1           0        3.951123    0.752838    0.023120
     18          8           0       -3.413516   -0.681934   -0.071780
     19          1           0       -3.738247   -0.796251    0.833901
 ---------------------------------------------------------------------
 Rotational constants (GHZ):      2.8255438      0.8186789      0.6360146
 Standard basis: 6-31+G(d) (6D, 7F)
 There are   225 symmetry adapted cartesian basis functions of A   symmetry.
 There are   225 symmetry adapted basis functions of A   symmetry.
   225 basis functions,   384 primitive gaussians,   225 cartesian basis functions
    38 alpha electrons       38 beta electrons
       nuclear repulsion energy       541.9959944893 Hartrees.
 NAtoms=   19 NActive=   19 NUniq=   19 SFac= 1.00D+00 NAtFMM=   60 NAOKFM=F Big=F
 Integral buffers will be    131072 words long.
 Raffenetti 2 integral format.
 Two-electron integral symmetry is turned on.
 Nuclear repulsion after empirical dispersion term =      541.9830690200 Hartrees.
 One-electron integrals computed using PRISM.
 NBasis=   225 RedAO= T EigKep=  1.24D-06  NBF=   225
 NBsUse=   224 1.00D-06 EigRej=  7.38D-07 NBFU=   224
 Initial guess from the checkpoint file:  "C:\Users\vivek\Downloads\molecule_39.chk"
 B after Tr=     0.000000    0.000000    0.000000
         Rot=    0.999998    0.000121   -0.000029   -0.002134 Ang=   0.24 deg.
 ExpMin= 4.38D-02 ExpMax= 5.48D+03 ExpMxC= 8.25D+02 IAcc=2 IRadAn=         4 AccDes= 0.00D+00
 Harris functional with IExCor=  402 and IRadAn=       4 diagonalized for initial guess.
 HarFok:  IExCor=  402 AccDes= 0.00D+00 IRadAn=         4 IDoV= 1 UseB2=F ITyADJ=14
 ICtDFT=  3500011 ScaDFX=  1.000000  1.000000  1.000000  1.000000
 FoFCou: FMM=F IPFlag=           0 FMFlag=      100000 FMFlg1=           0
         NFxFlg=           0 DoJE=T BraDBF=F KetDBF=T FulRan=T
         wScrn=  0.000000 ICntrl=     500 IOpCl=  0 I1Cent=   200000004 NGrid=           0
         NMat0=    1 NMatS0=      1 NMatT0=    0 NMatD0=    1 NMtDS0=    0 NMtDT0=    0
 Petite list used in FoFCou.
 Keep R1 ints in memory in canonical form, NReq=329172959.
 Requested convergence on RMS density matrix=1.00D-08 within 128 cycles.
 Requested convergence on MAX density matrix=1.00D-06.
 Requested convergence on             energy=1.00D-06.
 No special actions if energy rises.
 SCF Done:  E(RB3LYP) =  -461.135160505     A.U. after   13 cycles
            NFock= 13  Conv=0.69D-08     -V/T= 2.0098
 Calling FoFJK, ICntrl=      2127 FMM=F ISym2X=0 I1Cent= 0 IOpClX= 0 NMat=1 NMatS=1 NMatT=0.
 ***** Axes restored to original set *****
 -------------------------------------------------------------------
 Center     Atomic                   Forces (Hartrees/Bohr)
 Number     Number              X              Y              Z
 -------------------------------------------------------------------
      1        6           0.008030881   -0.003986990    0.000321903
      2        6          -0.006103296    0.001094213   -0.000104164
      3        6           0.001969340   -0.003003143    0.000179789
      4        6          -0.002114719    0.002504249   -0.000206105
      5        6           0.000767720   -0.004269043    0.000495445
      6        6          -0.006423609    0.006639709    0.000212336
      7        1          -0.000726191   -0.001154537   -0.000008675
      8        1          -0.001111124    0.000646426    0.000026107
      9        1           0.001534454   -0.000069257    0.000056554
     10        6           0.001869473    0.005976340   -0.000025801
     11        6           0.006499359   -0.000870502   -0.000049628
     12        1           0.000070305    0.000443201    0.000104700
     13        6          -0.005408068    0.002080005    0.000031387
     14        6          -0.000533062   -0.005650310    0.000035441
     15        1          -0.001288276   -0.000072987    0.000018337
     16        1           0.000557021    0.000012737    0.000001618
     17        1           0.000173971    0.000514027   -0.000018402
     18        8           0.004399860   -0.000504719   -0.000728547
     19        1          -0.002164040   -0.000329419   -0.000342296
 -------------------------------------------------------------------
 Cartesian Forces:  Max     0.008030881 RMS     0.002741922

 GradGradGradGradGradGradGradGradGradGradGradGradGradGradGradGradGradGrad
 Berny optimization.
 Using GEDIIS/GDIIS optimizer.
 FormGI is forming the generalized inverse of G from B-inverse, IUseBI=4.
 Internal  Forces:  Max     0.004510236 RMS     0.001108410
 Search for a local minimum.
 Step number   2 out of a maximum of  107
 All quantities printed in internal units (Hartrees-Bohrs-Radians)
 Mixed Optimization -- RFO/linear search
 Update second derivatives using D2CorX and points    1    2
 DE= -7.08D-03 DEPred=-6.91D-03 R= 1.02D+00
 TightC=F SS=  1.41D+00  RLast= 2.01D-01 DXNew= 5.0454D-01 6.0340D-01
 Trust test= 1.02D+00 RLast= 2.01D-01 DXMaxT set to 5.05D-01
 ITU=  1  0
 Use linear search instead of GDIIS.
     Eigenvalues ---    0.01295   0.01958   0.02070   0.02070   0.02070
     Eigenvalues ---    0.02070   0.02070   0.02070   0.02070   0.02070
     Eigenvalues ---    0.02070   0.02070   0.02070   0.02070   0.02070
     Eigenvalues ---    0.02075   0.15776   0.16000   0.16000   0.16000
     Eigenvalues ---    0.16000   0.16000   0.16000   0.16166   0.22000
     Eigenvalues ---    0.22303   0.22461   0.23527   0.24348   0.24742
     Eigenvalues ---    0.24905   0.36946   0.37230   0.37230   0.37230
     Eigenvalues ---    0.37230   0.37230   0.37367   0.38942   0.40493
     Eigenvalues ---    0.41162   0.41766   0.43375   0.43415   0.45389
     Eigenvalues ---    0.45389   0.45389   0.45389   0.45389   0.46909
     Eigenvalues ---    0.55411
 RFO step:  Lambda=-4.08773964D-04 EMin= 1.29460299D-02
 Quartic linear search produced a step of  0.07900.
 Iteration  1 RMS(Cart)=  0.00777180 RMS(Int)=  0.00012047
 Iteration  2 RMS(Cart)=  0.00010493 RMS(Int)=  0.00001997
 Iteration  3 RMS(Cart)=  0.00000000 RMS(Int)=  0.00001997
 Variable       Old X    -DE/DX   Delta X   Delta X   Delta X     New X
                                 (Linear)    (Quad)   (Total)
    R1        2.61417  -0.00353  -0.00269  -0.00670  -0.00940   2.60478
    R2        2.66407   0.00451   0.00125   0.00997   0.01122   2.67529
    R3        2.05235   0.00000   0.00240  -0.00156   0.00084   2.05319
    R4        2.68717  -0.00028   0.00307  -0.00276   0.00031   2.68747
    R5        2.05282   0.00083   0.00243   0.00082   0.00325   2.05607
    R6        2.70981   0.00082   0.00486  -0.00114   0.00373   2.71354
    R7        2.68666  -0.00029   0.00303  -0.00262   0.00042   2.68708
    R8        2.68653   0.00001   0.00302  -0.00187   0.00116   2.68769
    R9        2.68631   0.00018   0.00301  -0.00143   0.00158   2.68790
   R10        2.60653  -0.00189  -0.00330  -0.00224  -0.00553   2.60101
   R11        2.05229   0.00034   0.00239  -0.00057   0.00183   2.05411
   R12        2.64345  -0.00225  -0.00465  -0.00290  -0.00755   2.63590
   R13        2.05371   0.00061   0.00250   0.00015   0.00265   2.05637
   R14        2.61502  -0.00365  -0.00263  -0.00705  -0.00968   2.60534
   R15        2.61540  -0.00372  -0.00260  -0.00718  -0.00978   2.60562
   R16        2.05350   0.00058   0.00249   0.00008   0.00257   2.05607
   R17        2.67284   0.00212   0.00194   0.00367   0.00561   2.67845
   R18        2.05349   0.00028   0.00249  -0.00080   0.00169   2.05518
   R19        2.05354   0.00018   0.00249  -0.00108   0.00141   2.05495
   R20        1.83097   0.00108   0.00133   0.00124   0.00257   1.83353
    A1        2.09014   0.00051  -0.00034   0.00252   0.00219   2.09232
    A2        2.10773   0.00107   0.00105   0.00708   0.00813   2.11586
    A3        2.08530  -0.00158  -0.00072  -0.00959  -0.01032   2.07499
    A4        2.10934   0.00072   0.00118   0.00218   0.00336   2.11270
    A5        2.08593   0.00096  -0.00067   0.00783   0.00716   2.09309
    A6        2.08791  -0.00168  -0.00051  -0.01003  -0.01054   2.07737
    A7        2.07407  -0.00040  -0.00161  -0.00124  -0.00286   2.07122
    A8        2.13043   0.00090   0.00285   0.00225   0.00509   2.13552
    A9        2.07868  -0.00050  -0.00124  -0.00101  -0.00224   2.07644
   A10        2.08025  -0.00025  -0.00112  -0.00061  -0.00172   2.07853
   A11        2.07654  -0.00084  -0.00141  -0.00246  -0.00386   2.07268
   A12        2.12639   0.00110   0.00253   0.00307   0.00558   2.13197
   A13        2.09533   0.00110   0.00007   0.00554   0.00563   2.10095
   A14        2.10344  -0.00086   0.00071  -0.00536  -0.00465   2.09878
   A15        2.08440  -0.00024  -0.00079  -0.00017  -0.00097   2.08343
   A16        2.11715  -0.00168   0.00180  -0.00848  -0.00674   2.11041
   A17        2.07693  -0.00037  -0.00138  -0.00097  -0.00243   2.07450
   A18        2.08793   0.00203  -0.00051   0.00883   0.00823   2.09616
   A19        2.08573  -0.00168  -0.00068  -0.00996  -0.01064   2.07509
   A20        2.10489   0.00085   0.00083   0.00333   0.00415   2.10905
   A21        2.09256   0.00084  -0.00014   0.00663   0.00649   2.09905
   A22        2.10430   0.00085   0.00078   0.00357   0.00435   2.10866
   A23        2.08592  -0.00160  -0.00067  -0.00949  -0.01016   2.07576
   A24        2.09296   0.00075  -0.00011   0.00592   0.00580   2.09877
   A25        2.10264  -0.00014   0.00065  -0.00157  -0.00093   2.10171
   A26        2.08807   0.00057  -0.00050   0.00428   0.00379   2.09186
   A27        2.09248  -0.00043  -0.00015  -0.00271  -0.00286   2.08962
   A28        2.09932  -0.00021   0.00039  -0.00185  -0.00148   2.09784
   A29        2.09009   0.00062  -0.00034   0.00449   0.00415   2.09424
   A30        2.09378  -0.00041  -0.00005  -0.00263  -0.00268   2.09110
   A31        1.89279   0.00351  -0.00141   0.02458   0.02317   1.91596
    D1        0.00727   0.00005   0.00057   0.00219   0.00276   0.01003
    D2       -3.13899   0.00000   0.00021   0.00010   0.00029  -3.13870
    D3       -3.12856   0.00005   0.00103   0.00214   0.00316  -3.12540
    D4        0.00837   0.00001   0.00066   0.00005   0.00069   0.00906
    D5       -0.01528  -0.00014  -0.00121  -0.00685  -0.00805  -0.02333
    D6       -3.10444   0.00013   0.00293   0.00640   0.00927  -3.09517
    D7        3.12062  -0.00014  -0.00166  -0.00675  -0.00838   3.11224
    D8        0.03146   0.00013   0.00249   0.00651   0.00894   0.04040
    D9        0.00249   0.00001   0.00020   0.00054   0.00073   0.00323
   D10        3.14103   0.00000  -0.00004   0.00011   0.00006   3.14109
   D11       -3.13443   0.00005   0.00057   0.00258   0.00313  -3.13130
   D12        0.00411   0.00004   0.00032   0.00215   0.00245   0.00656
   D13       -0.00467   0.00002  -0.00037   0.00122   0.00085  -0.00382
   D14        3.13665  -0.00004  -0.00039  -0.00163  -0.00203   3.13462
   D15        3.13988   0.00003  -0.00013   0.00164   0.00149   3.14137
   D16       -0.00198  -0.00003  -0.00016  -0.00122  -0.00138  -0.00337
   D17        0.00211   0.00003   0.00017   0.00116   0.00134   0.00346
   D18       -3.13815   0.00003   0.00027   0.00122   0.00151  -3.13664
   D19        3.14065   0.00001  -0.00008   0.00073   0.00066   3.14131
   D20        0.00038   0.00002   0.00003   0.00079   0.00083   0.00121
   D21       -0.00300  -0.00013  -0.00024  -0.00585  -0.00611  -0.00912
   D22        3.13212  -0.00012  -0.00075  -0.00493  -0.00571   3.12641
   D23        3.13887  -0.00007  -0.00022  -0.00291  -0.00314   3.13573
   D24       -0.00919  -0.00006  -0.00073  -0.00198  -0.00273  -0.01193
   D25        0.00269   0.00002   0.00021   0.00065   0.00087   0.00356
   D26       -3.13960   0.00003   0.00016   0.00152   0.00168  -3.13793
   D27       -3.13918  -0.00004   0.00019  -0.00229  -0.00210  -3.14128
   D28        0.00171  -0.00003   0.00014  -0.00142  -0.00129   0.00042
   D29        0.01307   0.00017   0.00103   0.00868   0.00971   0.02278
   D30        3.10190  -0.00017  -0.00314  -0.00496  -0.00815   3.09375
   D31       -3.12213   0.00017   0.00154   0.00778   0.00932  -3.11280
   D32       -0.03330  -0.00017  -0.00263  -0.00585  -0.00854  -0.04183
   D33       -1.59237   0.00004  -0.00170   0.01147   0.00976  -1.58261
   D34        1.60076   0.00042   0.00237   0.02503   0.02740   1.62816
   D35        0.00057   0.00001   0.00004   0.00024   0.00029   0.00086
   D36        3.14099   0.00000  -0.00005   0.00022   0.00016   3.14115
   D37       -3.13969   0.00001   0.00015   0.00031   0.00047  -3.13922
   D38        0.00073   0.00001   0.00006   0.00029   0.00035   0.00107
   D39       -0.00178   0.00000  -0.00014   0.00038   0.00024  -0.00154
   D40        3.14116   0.00000  -0.00003  -0.00002  -0.00006   3.14110
   D41        3.14052  -0.00001  -0.00008  -0.00048  -0.00057   3.13995
   D42        0.00027  -0.00002   0.00002  -0.00089  -0.00087  -0.00059
   D43        0.00012  -0.00002   0.00001  -0.00085  -0.00084  -0.00072
   D44       -3.14029  -0.00001   0.00010  -0.00082  -0.00072  -3.14102
   D45        3.14037  -0.00001  -0.00010  -0.00044  -0.00054   3.13982
   D46       -0.00005  -0.00001   0.00000  -0.00041  -0.00042  -0.00047
         Item               Value     Threshold  Converged?
 Maximum Force            0.004510     0.000450     NO 
 RMS     Force            0.001108     0.000300     NO 
 Maximum Displacement     0.047856     0.001800     NO 
 RMS     Displacement     0.007763     0.001200     NO 
 Predicted change in Energy=-2.405367D-04
 GradGradGradGradGradGradGradGradGradGradGradGradGradGradGradGradGradGrad

                          Input orientation:                          
 ---------------------------------------------------------------------
 Center     Atomic      Atomic             Coordinates (Angstroms)
 Number     Number       Type             X           Y           Z
 ---------------------------------------------------------------------
      1          6           0       -4.161414   -1.529884    0.001863
      2          6           0       -2.783110   -1.514943    0.005138
      3          6           0       -2.062838   -0.288701   -0.002038
      4          6           0       -2.800237    0.943424   -0.008770
      5          6           0       -4.221787    0.898527   -0.012802
      6          6           0       -4.879935   -0.310287   -0.021106
      7          1           0       -0.084154   -1.175319    0.007081
      8          1           0       -4.714683   -2.464743    0.022368
      9          1           0       -2.230171   -2.451870    0.020054
     10          6           0       -0.641707   -0.240841    0.001707
     11          6           0       -2.081668    2.170942   -0.007263
     12          1           0       -4.798802    1.819677   -0.003655
     13          6           0       -0.702883    2.182325   -0.003713
     14          6           0        0.024816    0.966023    0.000381
     15          1           0       -2.637533    3.106255   -0.008860
     16          1           0       -0.169301    3.129986   -0.003064
     17          1           0        1.112048    0.986532    0.003705
     18          8           0       -6.273228   -0.348606    0.032687
     19          1           0       -6.635628   -0.384151   -0.866653
 ---------------------------------------------------------------------
                    Distance matrix (angstroms):
                    1          2          3          4          5
     1  C    0.000000
     2  C    1.378389   0.000000
     3  C    2.438149   1.422150   0.000000
     4  C    2.823149   2.458466   1.435944   0.000000
     5  C    2.429206   2.809796   2.463876   1.422264   0.000000
     6  C    1.415704   2.418380   2.817244   2.428392   1.376393
     7  H    4.092652   2.720242   2.168264   3.444769   4.628309
     8  H    1.086502   2.152531   3.430456   3.909178   3.399377
     9  H    2.140115   1.088024   2.169744   3.442939   3.897791
    10  C    3.748329   2.491777   1.421941   2.462081   3.757039
    11  C    4.245179   3.752056   2.459721   1.422373   2.489815
    12  H    3.409671   3.896509   3.454093   2.182225   1.086990
    13  C    5.073654   4.242312   2.820541   2.435938   3.745785
    14  C    4.873816   3.746954   2.435701   2.825158   4.247160
    15  H    4.880176   4.623512   3.443261   2.168942   2.717340
    16  H    6.136073   5.329862   3.908057   3.420952   4.626246
    17  H    5.843095   4.629215   3.421426   3.912542   5.334586
    18  O    2.419943   3.679949   4.210959   3.705769   2.401212
    19  H    2.861601   4.108601   4.654790   4.148330   2.863730
                    6          7          8          9         10
     6  C    0.000000
     7  H    4.873253   0.000000
     8  H    2.161222   4.806729   0.000000
     9  H    3.407246   2.497026   2.484546   0.000000
    10  C    4.238858   1.088184   4.640613   2.722536   0.000000
    11  C    3.739918   3.897145   5.331343   4.625278   2.808962
    12  H    2.131579   5.585519   4.285324   4.984430   4.639741
    13  C    4.864275   3.414194   6.139255   4.879440   2.423945
    14  C    5.068137   2.144124   5.850939   4.094795   1.378687
    15  H    4.086719   4.985166   5.945716   5.573108   3.896984
    16  H    5.833170   4.306159   7.208476   5.950197   3.403773
    17  H    6.130759   2.470730   6.772181   4.795133   2.140586
    18  O    1.394857   6.244097   2.628156   4.557432   5.632636
    19  H    1.950093   6.656664   2.968038   4.946692   6.058190
                   11         12         13         14         15
    11  C    0.000000
    12  H    2.739748   0.000000
    13  C    1.378836   4.111942   0.000000
    14  C    2.426760   4.898575   1.417376   0.000000
    15  H    1.088025   2.515233   2.143955   3.415960   0.000000
    16  H    2.139376   4.811361   1.087553   2.172655   2.468353
    17  H    3.406284   5.969283   2.173466   1.087430   4.307290
    18  O    4.890694   2.622346   6.118470   6.433867   5.015582
    19  H    5.292032   2.995922   6.521420   6.851002   5.376198
                   16         17         18         19
    16  H    0.000000
    17  H    2.497258   0.000000
    18  O    7.025653   7.505047   0.000000
    19  H    7.410015   7.915982   0.970263   0.000000
 Stoichiometry    C10H8O
 Framework group  C1[X(C10H8O)]
 Deg. of freedom    51
 Full point group                 C1      NOp   1
 Largest Abelian subgroup         C1      NOp   1
 Largest concise Abelian subgroup C1      NOp   1
                         Standard orientation:                         
 ---------------------------------------------------------------------
 Center     Atomic      Atomic             Coordinates (Angstroms)
 Number     Number       Type             X           Y           Z
 ---------------------------------------------------------------------
      1          6           0       -1.874088    1.187238   -0.016125
      2          6           0       -0.584097    1.672792   -0.005361
      3          6           0        0.531559    0.790881    0.002071
      4          6           0        0.290833   -0.624718   -0.005915
      5          6           0       -1.050325   -1.098032   -0.016192
      6          6           0       -2.101883   -0.209993   -0.007609
      7          1           0        2.054381    2.334292    0.018383
      8          1           0       -2.728395    1.858219   -0.036866
      9          1           0       -0.408232    2.746503   -0.009163
     10          6           0        1.873399    1.261279    0.012613
     11          6           0        1.405430   -1.508356   -0.007192
     12          1           0       -1.254168   -2.165542   -0.036605
     13          6           0        2.694581   -1.019308    0.003323
     14          6           0        2.931984    0.378005    0.013756
     15          1           0        1.226352   -2.581500   -0.016727
     16          1           0        3.535339   -1.709162    0.002636
     17          1           0        3.952720    0.752897    0.021456
     18          8           0       -3.413891   -0.678670   -0.075455
     19          1           0       -3.771219   -0.785076    0.820315
 ---------------------------------------------------------------------
 Rotational constants (GHZ):      2.8307264      0.8179455      0.6358071
 Standard basis: 6-31+G(d) (6D, 7F)
 There are   225 symmetry adapted cartesian basis functions of A   symmetry.
 There are   225 symmetry adapted basis functions of A   symmetry.
   225 basis functions,   384 primitive gaussians,   225 cartesian basis functions
    38 alpha electrons       38 beta electrons
       nuclear repulsion energy       542.0518334949 Hartrees.
 NAtoms=   19 NActive=   19 NUniq=   19 SFac= 1.00D+00 NAtFMM=   60 NAOKFM=F Big=F
 Integral buffers will be    131072 words long.
 Raffenetti 2 integral format.
 Two-electron integral symmetry is turned on.
 Nuclear repulsion after empirical dispersion term =      542.0389209308 Hartrees.
 One-electron integrals computed using PRISM.
 NBasis=   225 RedAO= T EigKep=  1.25D-06  NBF=   225
 NBsUse=   224 1.00D-06 EigRej=  7.27D-07 NBFU=   224
 Initial guess from the checkpoint file:  "C:\Users\vivek\Downloads\molecule_39.chk"
 B after Tr=     0.000000    0.000000    0.000000
         Rot=    1.000000    0.000073    0.000080    0.000074 Ang=   0.02 deg.
 ExpMin= 4.38D-02 ExpMax= 5.48D+03 ExpMxC= 8.25D+02 IAcc=2 IRadAn=         4 AccDes= 0.00D+00
 Harris functional with IExCor=  402 and IRadAn=       4 diagonalized for initial guess.
 HarFok:  IExCor=  402 AccDes= 0.00D+00 IRadAn=         4 IDoV= 1 UseB2=F ITyADJ=14
 ICtDFT=  3500011 ScaDFX=  1.000000  1.000000  1.000000  1.000000
 FoFCou: FMM=F IPFlag=           0 FMFlag=      100000 FMFlg1=           0
         NFxFlg=           0 DoJE=T BraDBF=F KetDBF=T FulRan=T
         wScrn=  0.000000 ICntrl=     500 IOpCl=  0 I1Cent=   200000004 NGrid=           0
         NMat0=    1 NMatS0=      1 NMatT0=    0 NMatD0=    1 NMtDS0=    0 NMtDT0=    0
 Petite list used in FoFCou.
 Keep R1 ints in memory in canonical form, NReq=329172959.
 Requested convergence on RMS density matrix=1.00D-08 within 128 cycles.
 Requested convergence on MAX density matrix=1.00D-06.
 Requested convergence on             energy=1.00D-06.
 No special actions if energy rises.
 SCF Done:  E(RB3LYP) =  -461.135433489     A.U. after   12 cycles
            NFock= 12  Conv=0.73D-08     -V/T= 2.0098
 Calling FoFJK, ICntrl=      2127 FMM=F ISym2X=0 I1Cent= 0 IOpClX= 0 NMat=1 NMatS=1 NMatT=0.
 ***** Axes restored to original set *****
 -------------------------------------------------------------------
 Center     Atomic                   Forces (Hartrees/Bohr)
 Number     Number              X              Y              Z
 -------------------------------------------------------------------
      1        6           0.001542900   -0.001320512   -0.000227865
      2        6          -0.000488241   -0.000292182   -0.000042231
      3        6          -0.000177685    0.000411941    0.000012591
      4        6          -0.000206343   -0.000423229    0.000094846
      5        6           0.000705038    0.000053072    0.000027261
      6        6          -0.002850062    0.000866661    0.000338229
      7        1          -0.000332134   -0.000032367   -0.000013787
      8        1          -0.000228665    0.000386845   -0.000035898
      9        1           0.000176224    0.000275247    0.000042728
     10        6          -0.000020275   -0.000026242   -0.000002960
     11        6          -0.000040358    0.000119780    0.000004277
     12        1           0.000223999    0.000029740   -0.000063482
     13        6          -0.000223431    0.001068847   -0.000013688
     14        6           0.000888016   -0.000662864    0.000020321
     15        1          -0.000185005   -0.000272595   -0.000015445
     16        1           0.000033462   -0.000413734    0.000001503
     17        1          -0.000354345    0.000260247   -0.000005175
     18        8           0.001397859    0.000291849   -0.000610355
     19        1           0.000139047   -0.000320505    0.000489129
 -------------------------------------------------------------------
 Cartesian Forces:  Max     0.002850062 RMS     0.000600976

 GradGradGradGradGradGradGradGradGradGradGradGradGradGradGradGradGradGrad
 Berny optimization.
 Using GEDIIS/GDIIS optimizer.
 FormGI is forming the generalized inverse of G from B-inverse, IUseBI=4.
 Internal  Forces:  Max     0.001535802 RMS     0.000285755
 Search for a local minimum.
 Step number   3 out of a maximum of  107
 All quantities printed in internal units (Hartrees-Bohrs-Radians)
 Mixed Optimization -- En-DIIS/RFO-DIIS
 Update second derivatives using D2CorX and points    1    2    3
 DE= -2.73D-04 DEPred=-2.41D-04 R= 1.13D+00
 TightC=F SS=  1.41D+00  RLast= 6.10D-02 DXNew= 8.4853D-01 1.8308D-01
 Trust test= 1.13D+00 RLast= 6.10D-02 DXMaxT set to 5.05D-01
 ITU=  1  1  0
 Use linear search instead of GDIIS.
     Eigenvalues ---    0.01234   0.01986   0.02068   0.02070   0.02070
     Eigenvalues ---    0.02070   0.02070   0.02070   0.02070   0.02070
     Eigenvalues ---    0.02070   0.02070   0.02070   0.02070   0.02073
     Eigenvalues ---    0.02081   0.13955   0.16000   0.16000   0.16000
     Eigenvalues ---    0.16000   0.16000   0.16025   0.16502   0.21998
     Eigenvalues ---    0.22254   0.22639   0.23320   0.24344   0.24706
     Eigenvalues ---    0.24836   0.36140   0.37230   0.37230   0.37230
     Eigenvalues ---    0.37230   0.37246   0.37384   0.37927   0.41106
     Eigenvalues ---    0.41578   0.41811   0.43298   0.43999   0.45389
     Eigenvalues ---    0.45389   0.45389   0.45389   0.46313   0.46908
     Eigenvalues ---    0.55878
 RFO step:  Lambda=-3.70133771D-05 EMin= 1.23443341D-02
 Quartic linear search produced a step of  0.14733.
 Iteration  1 RMS(Cart)=  0.00452069 RMS(Int)=  0.00005396
 Iteration  2 RMS(Cart)=  0.00004936 RMS(Int)=  0.00000204
 Iteration  3 RMS(Cart)=  0.00000000 RMS(Int)=  0.00000204
 Variable       Old X    -DE/DX   Delta X   Delta X   Delta X     New X
                                 (Linear)    (Quad)   (Total)
    R1        2.60478  -0.00038  -0.00138  -0.00041  -0.00180   2.60298
    R2        2.67529   0.00124   0.00165   0.00251   0.00417   2.67946
    R3        2.05319  -0.00022   0.00012  -0.00048  -0.00035   2.05284
    R4        2.68747   0.00001   0.00005   0.00024   0.00029   2.68776
    R5        2.05607  -0.00015   0.00048  -0.00045   0.00003   2.05609
    R6        2.71354  -0.00048   0.00055  -0.00130  -0.00075   2.71279
    R7        2.68708  -0.00014   0.00006  -0.00012  -0.00006   2.68702
    R8        2.68769  -0.00054   0.00017  -0.00120  -0.00103   2.68666
    R9        2.68790  -0.00007   0.00023  -0.00006   0.00018   2.68807
   R10        2.60101   0.00022  -0.00081   0.00072  -0.00010   2.60091
   R11        2.05411  -0.00009   0.00027  -0.00017   0.00010   2.05421
   R12        2.63590  -0.00154  -0.00111  -0.00415  -0.00526   2.63064
   R13        2.05637  -0.00014   0.00039  -0.00036   0.00003   2.05640
[...]
 487,0.67776045,0.00763798,-0.00252443,0.00028192,-0.00249936,-0.039022
 20,-0.00049859,0.04895186,-0.22558133,0.00021156,0.02300053,0.63994852
 ,-0.00108553,0.00080080,-0.00424300,0.00152387,0.00003123,0.00539983,-
 0.00309789,0.00021562,-0.06471893,0.01856993,0.00533435,0.15270518,0.0
 5085809,-0.01730585,0.00141672,-0.03802621,-0.02047891,-0.00153914,-0.
 01239842,0.04751733,-0.00016918,-0.29407598,0.00388209,-0.00820040,0.6
 8116553,0.01948523,-0.05033688,0.00016182,-0.02429678,-0.01537626,-0.0
 0099688,0.03479562,0.02395395,0.00139046,0.03160874,-0.11098472,0.0006
 1441,-0.00302710,0.75329977,0.00175828,-0.00112305,0.00573048,-0.00157
 460,-0.00086434,0.00055495,-0.00028693,0.00183405,0.00508638,-0.007942
 91,-0.00035147,-0.05845378,0.01962459,0.00577709,0.11914678,-0.1495096
 1,0.09542170,-0.00228329,-0.02519186,0.03064759,-0.00059519,0.00430915
 ,-0.00041506,0.00032916,-0.02923542,-0.03090052,-0.00130233,-0.1682932
 9,-0.12849666,-0.00492555,0.67230990,0.01990496,-0.25194495,-0.0011014
 3,0.07764820,0.03147166,0.00300267,-0.02151472,-0.05032004,-0.00116986
 ,-0.07203372,0.00663005,-0.00245377,-0.06259044,-0.32074028,-0.0045893
 0,0.04677523,0.71390258,-0.00298373,0.00153422,-0.05881195,-0.00015951
 ,0.00136164,0.00001184,0.00013315,-0.00043222,-0.00521328,-0.00168559,
 -0.00101702,-0.00016760,-0.00431576,-0.00689256,-0.06152657,0.01885524
 ,0.00693270,0.14571514,0.00006437,-0.00030558,0.00000575,0.00107450,0.
 00184485,0.00016131,-0.01161337,0.02838184,-0.00024948,-0.00515811,-0.
 00219776,-0.00037625,-0.00011249,0.00169705,0.00000751,0.00039130,0.00
 013469,0.00001550,0.13166485,0.00054640,0.00001922,0.00002097,-0.00155
 338,0.00076651,-0.00001868,-0.00093014,0.00237392,-0.00003913,-0.00074
 427,0.00139356,-0.00005993,-0.00027469,-0.00003519,-0.00001122,-0.0003
 3221,0.00030002,-0.00000864,-0.12663632,0.28457595,0.00001371,-0.00000
 881,-0.00018102,0.00012974,0.00009988,-0.00305098,-0.00052239,0.000983
 94,0.00309497,-0.00036282,-0.00011055,0.00502091,-0.00001094,0.0000578
 6,0.00012510,0.00001092,0.00000747,-0.00001708,0.00255719,-0.00199816,
 0.02468545,-0.12823246,-0.11788775,-0.00446456,-0.01181909,-0.02995622
 ,-0.00078269,-0.00515494,0.00246856,-0.00044871,-0.00098374,0.00022415
 ,-0.00000796,-0.00104221,0.00318990,-0.00013229,0.00752563,0.01364013,
 0.00029126,-0.00002330,0.00005918,-0.00000604,0.13543256,-0.11847699,-
 0.26285264,-0.00627615,0.00144314,0.00410106,0.00006382,0.00103322,0.0
 0171673,-0.00002543,0.00111397,0.00038057,0.00004890,0.00445634,-0.003
 09211,0.00009341,-0.01911562,-0.01918792,-0.00087056,-0.00001343,0.000
 01506,-0.00000176,0.12885413,0.27734029,-0.00446875,-0.00625327,-0.031
 77728,-0.00049192,-0.00103221,0.00263098,-0.00046236,0.00002435,0.0083
 4650,0.00000006,0.00001771,-0.00069580,-0.00012000,0.00004945,0.003592
 61,-0.00001396,0.00027062,0.00280126,-0.00000674,0.00000059,0.00016673
 ,0.00515134,0.00686004,0.02224186,-0.01144427,0.02919813,-0.00025345,-
 0.12475505,0.11712727,-0.00202828,0.01126533,-0.01409069,0.00013893,-0
 .00163359,-0.00262442,-0.00024336,-0.00048041,-0.00047223,0.00000810,-
 0.00454534,-0.00244620,-0.00047208,-0.00046878,0.00028896,-0.00002400,
 0.00061188,-0.00020957,0.00018986,0.13077336,-0.00197488,0.00343054,-0
 .00007023,0.11796241,-0.27098279,0.00193455,0.01509438,-0.01956598,0.0
 0031262,-0.00436281,-0.00239902,-0.00021753,-0.00075722,0.00017034,-0.
 00001744,-0.00092348,0.00170549,-0.00009356,-0.00144282,0.00022510,-0.
 00005095,0.00030626,0.00098121,0.00006496,-0.12658519,0.28655481,-0.00
 054224,0.00101772,0.00356717,-0.00202072,0.00190620,-0.03559215,0.0004
 0935,-0.00070667,0.00354455,-0.00025962,-0.00015709,0.00463037,0.00000
 521,-0.00000720,-0.00083227,-0.00045772,-0.00014641,0.00830961,-0.0000
 4005,0.00000946,0.00029378,0.00019443,0.00004693,-0.00487548,0.0025331
 5,-0.00198948,0.02465181,0.02244511,-0.01182173,0.00053452,-0.04703544
 ,-0.02644433,-0.00199878,-0.28513305,0.00393166,-0.00786375,-0.0108515
 1,0.04992002,0.00006965,-0.01004327,-0.00575429,-0.00054292,-0.0024260
 9,0.02102228,0.00007816,-0.12667025,0.11761657,-0.00207384,0.00036567,
 -0.00011804,-0.00000470,0.00092516,0.00179139,0.00016079,0.64927377,0.
 00666772,-0.00996210,0.00010324,-0.04548176,-0.00521983,-0.00166579,0.
 03103553,-0.11077652,0.00059988,0.03571106,0.02437523,0.00146948,-0.00
 514720,-0.00962544,-0.00030641,0.00000111,0.00859064,0.00007110,0.1182
 8305,-0.26750372,0.00197077,-0.00156463,-0.00010910,-0.00005998,-0.001
 54971,0.00080140,-0.00001689,0.00108338,0.75885452,0.00070658,-0.00054
 176,0.00399758,-0.00217546,-0.00100169,0.00308440,-0.00761179,-0.00034
 626,-0.05907491,-0.00006257,0.00196600,0.00049284,-0.00053754,-0.00032
 815,0.00394758,-0.00011639,0.00080582,0.00092313,-0.00206773,0.0019471
 4,-0.03592072,-0.00001841,-0.00000980,0.00047179,0.00012966,0.00009928
 ,-0.00319227,0.01811780,0.00589396,0.13134522,0.01167573,-0.00915372,0
 .00029705,-0.01291608,-0.00374542,-0.00062295,0.05074722,-0.00109904,0
 .00170496,-0.14150613,-0.05179787,-0.00327976,-0.04695363,-0.04648971,
 -0.00225880,-0.00139878,0.02616574,0.00003896,-0.00067247,-0.00053421,
 -0.00001057,0.00038555,-0.00025193,0.00002814,0.00044616,0.00139187,0.
 00002530,-0.04037008,-0.02593204,-0.00160549,0.73199442,0.00930044,-0.
 00633305,0.00025916,-0.00346163,-0.00747221,-0.00022693,0.01067433,-0.
 03608845,0.00002249,-0.07955371,-0.25184309,-0.00454602,-0.02525294,-0
 .00450611,-0.00097426,0.00363618,0.01782844,0.00025076,-0.00066090,0.0
 0028771,-0.00001543,0.00010620,-0.00008950,0.00000747,-0.00074448,-0.0
 0075243,-0.00003384,-0.01893527,-0.01394803,-0.00077868,-0.04955836,0.
 67582281,0.00046932,-0.00038594,0.00073549,-0.00062032,-0.00023629,0.0
 0390502,0.00181551,-0.00039006,0.00167840,-0.00353998,-0.00357748,-0.0
 6144682,-0.00206194,-0.00171441,0.00527701,-0.00017032,0.00103805,0.00
 443120,-0.00001176,-0.00001110,-0.00051187,0.00003139,-0.00000488,-0.0
 0047979,0.00000516,0.00004113,0.00009369,-0.00154046,-0.00102315,-0.00
 137804,0.02061335,0.00334692,0.12967116,-0.00171179,-0.00275764,-0.000
 28528,-0.00067227,-0.00050146,-0.00000538,-0.00478755,-0.00228495,-0.0
 0036379,-0.01110729,0.02741797,-0.00021589,-0.13015824,0.12333664,-0.0
 0225027,0.01155589,-0.01458551,0.00006449,-0.00049612,0.00001063,-0.00
 002397,0.00054422,-0.00089696,0.00000207,0.00008540,0.00014285,0.00003
 288,-0.00006441,0.00168975,0.00000286,0.00106421,0.00172735,0.00017065
 ,0.13483551,-0.00420564,-0.00272836,-0.00022513,-0.00077481,0.00029274
 ,-0.00001821,-0.00086246,0.00134307,-0.00006417,-0.00075980,0.00391534
 ,-0.00001234,0.12079583,-0.26855335,0.00203675,0.01787546,-0.02025106,
 0.00038216,-0.00001841,-0.00000508,-0.00000249,0.00067939,-0.00107569,
 0.00001141,0.00009927,-0.00003322,0.00001072,-0.00044865,-0.00008732,-
 0.00001908,-0.00151530,0.00075440,-0.00001506,-0.13221091,0.28392025,-
 0.00029856,-0.00017523,0.00571464,-0.00000831,-0.00000892,-0.00065196,
 -0.00035048,-0.00011351,0.00500814,-0.00047652,0.00097218,0.00234834,-
 0.00227499,0.00212328,-0.03306522,0.00036640,-0.00074930,0.00584828,-0
 .00002432,-0.00000148,0.00019409,0.00001678,-0.00004368,0.00024574,0.0
 0003247,0.00001230,-0.00081775,-0.00001694,0.00005537,0.00029894,0.000
 14015,0.00009830,-0.00334901,0.00268840,-0.00219778,0.02283940,-0.0141
 3241,0.00861499,-0.00038461,0.01270786,0.01056490,0.00055463,-0.039717
 75,0.00498661,-0.00119864,-0.04686415,-0.05453925,-0.00225944,0.022366
 75,0.00850867,0.00069075,-0.00143059,-0.02247159,-0.00031759,-0.001213
 00,-0.00443762,-0.00036219,-0.00026838,0.00019311,-0.00001315,0.000314
 60,-0.00002155,0.00001522,0.05588611,0.02129663,0.00193221,-0.38563670
 ,0.03084938,-0.01117658,0.00009793,0.00049048,0.00001550,0.71772237,0.
 00896124,-0.00633564,0.00026131,-0.00966949,-0.00727397,-0.00040178,0.
 02631181,-0.00160709,0.00094095,-0.02110605,0.02741103,-0.00051228,-0.
 01117805,-0.01093237,-0.00053694,-0.00080734,0.01338412,0.00007989,-0.
 00290760,-0.00264173,-0.00020018,0.00024637,-0.00010627,0.00000632,-0.
 00014152,0.00013229,-0.00000251,-0.02007331,-0.05803442,-0.00129995,-0
 .02591205,-0.12875539,-0.00156562,-0.00023150,-0.00002220,-0.00000641,
 0.04719329,0.68642026,-0.00038172,0.00024983,-0.00083139,0.00036655,0.
 00030441,-0.00034791,-0.00100072,0.00019742,-0.00408543,-0.00194674,-0
 .00167965,0.00317298,0.00050747,0.00015036,0.00488175,-0.00011706,-0.0
 0067612,0.00169022,-0.00034761,-0.00025414,0.00795083,-0.00001260,0.00
 000423,0.00015545,0.00001435,0.00000144,-0.00012948,0.00154757,0.00014
 498,0.00628956,-0.01170534,0.00041604,-0.05811165,0.00000853,0.0000189
 8,-0.00021038,0.02094984,0.00682662,0.13169320,-0.00117591,0.00050155,
 -0.00006503,-0.00336756,0.00389104,-0.00027301,-0.02639786,-0.03285010
 ,-0.00138118,0.00373498,0.00006848,0.00026080,-0.00276409,-0.00154699,
 -0.00009660,0.00207526,0.00030950,0.00010184,0.01208858,0.01616337,0.0
 0043366,-0.00058970,-0.00010423,-0.00000132,0.00012085,-0.00030063,0.0
 0000490,-0.19378657,-0.14031922,-0.00604737,-0.02713298,0.02983110,-0.
 00089814,0.00009297,-0.00002410,0.00000855,-0.16667596,0.10336562,-0.0
 0274840,0.73817420,-0.01892889,0.01088424,-0.00056725,0.02310430,0.017
 42828,0.00091761,-0.06683719,0.00307080,-0.00234639,-0.01816247,-0.045
 87838,-0.00102689,0.01747136,0.00906709,0.00069890,0.00006423,-0.02369
 640,-0.00021031,-0.01556682,-0.01935639,-0.00076153,-0.00018647,0.0002
 5636,0.00000123,0.00053958,0.00008141,0.00002034,-0.08375718,-0.318400
 86,-0.00535224,0.07013345,0.02589389,0.00262917,-0.00003340,0.00037983
 ,0.00000395,0.04194286,-0.25179621,-0.00031741,0.03695905,0.66606460,-
 0.00024595,0.00011080,0.00082128,-0.00009403,0.00024739,0.00548534,-0.
 00169772,-0.00115921,0.00431888,0.00009162,-0.00039044,-0.00371518,0.0
 0008092,0.00003435,-0.00041859,0.00009977,-0.00020239,-0.00075625,0.00
 013777,0.00034711,0.00399321,-0.00000197,0.00000407,-0.00058223,0.0000
 1264,-0.00000855,-0.00009945,-0.00552102,-0.00732841,-0.05836254,-0.00
 052420,0.00122246,0.00652435,0.00000854,0.00000399,-0.00015860,-0.0033
 1905,0.00182672,-0.06053097,0.02168756,0.00631466,0.12794136,0.0003541
 5,-0.00010995,0.00001262,0.00038130,-0.00086896,0.00000402,-0.00152096
 ,-0.00260424,-0.00025044,0.01070066,-0.01473912,0.00011825,0.00103642,
 -0.00142010,0.00012421,-0.00007006,0.00043744,0.00001443,0.00012635,0.
 00012735,0.00004812,-0.00000702,0.00003130,-0.00000116,-0.00012593,-0.
 00023959,-0.00001333,-0.00058798,-0.00070700,-0.00001030,-0.12589146,0
 .11795312,-0.00205987,-0.00041314,0.00023708,-0.00002394,-0.01111530,0
 .02979517,-0.00023904,-0.00531377,-0.00188608,-0.00048121,0.13236138,-
 0.00006416,0.00013099,-0.00000070,0.00135632,-0.00075071,0.00004006,-0
 .00428651,-0.00211470,-0.00021519,0.01522672,-0.01999417,0.00031438,0.
 00150524,0.00073871,0.00008646,-0.00007537,0.00014025,0.00000205,0.000
 14211,-0.00004075,0.00001587,-0.00008765,0.00003670,-0.00000300,-0.000
 22534,-0.00040190,-0.00001339,-0.00087533,0.00005697,-0.00002545,0.118
 21850,-0.26920828,0.00196124,-0.00137750,0.00014893,-0.00004986,-0.001
 89883,0.00356079,-0.00006715,-0.00038759,0.00173935,-0.00007126,-0.127
 18848,0.28495939,0.00001295,-0.00000224,-0.00003586,0.00002472,-0.0000
 3764,0.00003489,-0.00026590,-0.00015660,0.00494454,0.00039658,-0.00073
 199,0.00340153,0.00015149,-0.00001606,-0.00289049,0.00001000,0.0000201
 1,-0.00036700,0.00004816,0.00001546,-0.00121446,-0.00000230,0.00000103
 ,0.00003470,-0.00001318,-0.00001388,0.00019116,-0.00001173,-0.00001999
 ,-0.00048141,-0.00205740,0.00195183,-0.03565006,-0.00003897,0.00000658
 ,0.00033387,-0.00053370,0.00104038,0.00364846,-0.00046730,-0.00012399,
 0.00793212,0.00258823,-0.00202524,0.02455700,-0.00026206,0.00023058,-0
 .00001201,0.00042504,0.00009848,0.00004333,-0.00083782,0.00036434,-0.0
 0001149,-0.00535368,0.00208144,-0.00046923,0.00022829,-0.00148795,-0.0
 0001481,-0.00025651,-0.00010631,0.00001458,0.00043248,0.00083752,0.000
 01530,-0.00000740,-0.00001969,-0.00000043,-0.00000756,-0.00007883,-0.0
 0000255,-0.00123619,0.00312836,-0.00019166,-0.01160246,-0.02943021,-0.
 00080561,-0.00000443,0.00005042,-0.00000709,-0.13174423,-0.12142184,-0
 .00445809,0.01206658,0.01484015,0.00046254,0.00060302,0.00034076,0.000
 19581,0.13713709,0.00004335,-0.00002464,-0.00000002,-0.00015163,-0.000
 01892,0.00000183,0.00082248,0.00038790,0.00003627,0.00104723,0.0015099
 6,-0.00002980,-0.00009961,-0.00009984,-0.00000692,0.00018807,0.0001941
 1,0.00001491,-0.00083688,-0.00108189,-0.00004138,-0.00002506,-0.000018
 22,-0.00000106,0.00003600,0.00003870,0.00000123,0.00426439,-0.00306938
 ,0.00007289,0.00199703,0.00415439,0.00007482,-0.00002216,0.00000601,-0
 .00000268,-0.12194448,-0.26629314,-0.00640341,-0.01638250,-0.01828044,
 -0.00076857,-0.00031435,0.00095321,0.00004371,0.13112796,0.28095073,-0
 .00001368,0.00000655,0.00014279,0.00004094,0.00001053,-0.00078762,-0.0
 0000727,0.00002033,-0.00040997,-0.00047880,0.00000668,0.00860252,-0.00
 000190,-0.00005532,0.00025814,0.00001708,0.00000446,-0.00069980,-0.000
 00022,0.00001714,0.00021716,-0.00000044,-0.00000079,-0.00000090,-0.000
 00150,-0.00000280,0.00004453,-0.00018078,0.00003358,0.00507493,-0.0005
 1255,-0.00102352,0.00358620,-0.00000774,-0.00000014,0.00021184,-0.0044
 6339,-0.00638509,-0.03680473,0.00017175,0.00032204,0.00279708,0.000189
 67,0.00006633,-0.00490067,0.00513402,0.00696692,0.02546553,-0.00015826
 ,-0.00032876,0.00001313,-0.00061194,0.00052330,-0.00003589,0.00117023,
 -0.00285926,-0.00027667,0.00058649,0.00002048,0.00003460,-0.00000458,-
 0.00001376,0.00002590,0.00022834,-0.00001663,0.00000487,0.00084723,-0.
 00048252,0.00019468,-0.00010210,-0.00001094,-0.00000080,0.00001545,-0.
 00004086,-0.00000625,-0.01196541,0.00225120,-0.00050207,0.00071152,0.0
 0308095,-0.00012050,0.00000874,0.00002119,-0.00000104,-0.01103833,-0.0
 0269900,-0.00048688,-0.33872052,0.00019364,-0.01060796,-0.00067644,-0.
 00017539,-0.00003666,0.00073298,0.00047323,0.00012829,0.35913506,-0.00
 036852,-0.00025627,-0.00000940,-0.00102336,0.00083009,-0.00003321,-0.0
 0150668,-0.00485741,-0.00017551,-0.00040250,-0.00109501,-0.00002057,0.
 00023633,0.00035783,0.00001861,0.00008542,-0.00038351,-0.00000137,0.00
 022832,0.00071935,0.00005991,-0.00016048,0.00000095,-0.00000484,0.0000
 3047,-0.00001364,-0.00000076,-0.02933190,0.00452822,-0.00101017,0.0018
 2090,-0.00494092,-0.00002897,-0.00008851,0.00001439,-0.00000336,0.0286
 8808,0.00472961,0.00102583,0.00064987,-0.05971945,-0.00020867,0.001477
 15,0.00004187,0.00004910,-0.00039926,0.00069990,0.00001876,0.00006816,
 0.05928081,0.00001266,-0.00000805,-0.00062101,-0.00005031,0.00002097,0
 .00055381,-0.00026375,-0.00022323,0.00831710,0.00003025,-0.00000616,-0
 .00039879,0.00002812,0.00001003,-0.00074641,0.00000552,-0.00000536,0.0
 0008435,0.00020136,0.00003507,-0.00484827,-0.00000218,0.00000055,-0.00
 008163,-0.00000558,-0.00000328,0.00018305,-0.00079649,0.00009328,0.002
 98586,-0.00013171,0.00001539,0.00497786,-0.00000200,0.00000053,0.00004
 375,-0.00019504,-0.00006970,0.00217466,-0.01060332,-0.00022524,-0.0353
 1216,-0.00002120,-0.00000871,0.00032450,0.00012024,0.00004923,-0.00280
 943,0.01168016,0.00032454,0.02513555,-0.04129666,0.00246413,-0.0016554
 5,0.00199612,0.00349841,-0.00010932,-0.00380677,0.00059656,-0.00005697
 ,0.00748074,-0.00196672,0.00001989,-0.04395010,-0.01272022,-0.00190974
 ,-0.29364235,0.03668924,-0.00860044,-0.00023834,0.00030310,-0.00000485
 ,0.00383520,-0.00010798,0.00023451,-0.00138934,0.00009179,-0.00004894,
 0.00168098,-0.00057200,0.00006239,-0.00229010,0.00040309,-0.00007449,0
 .00101715,0.00051435,0.00018108,0.00043986,0.00055549,0.00003012,-0.00
 254716,-0.00026663,-0.00009418,0.00016261,-0.00018331,0.00000185,-0.00
 028602,-0.00025392,-0.00001169,-0.00020029,-0.00003340,-0.00000729,0.4
 7175664,0.04223470,0.00154802,0.00142548,-0.00578222,-0.00790234,-0.00
 033198,0.00193163,0.00411269,0.00012455,0.00540938,-0.00606233,0.00007
 478,-0.05097187,0.00460742,-0.00180450,-0.01760638,-0.10746327,-0.0012
 8791,-0.00013877,0.00000287,-0.00000475,0.00076440,0.00250635,0.000077
 66,0.00161934,0.00004097,0.00005665,-0.00192910,-0.00043673,-0.0000688
 9,-0.00389051,-0.00094066,-0.00014419,0.00038251,0.00157646,0.00006567
 ,0.00207727,-0.00170934,0.00005894,-0.00004317,0.00225771,0.00001915,0
 .00002671,0.00002002,0.00000075,-0.00015342,-0.00002368,-0.00000553,-0
 .00000055,0.00007278,0.00000043,0.14553088,0.54921675,-0.00128782,0.00
 003689,0.00673579,-0.00019418,-0.00000633,0.00604387,-0.00004398,0.000
 07626,-0.00202620,0.00008746,-0.00018499,0.00630591,-0.00226383,-0.000
 46595,0.00721850,-0.00913779,0.00060950,-0.03760788,-0.00000904,0.0000
 1075,-0.00001522,0.00024217,0.00004595,-0.00287338,-0.00003524,0.00000
 335,0.00004194,0.00005003,-0.00002113,-0.00026202,-0.00011440,0.000006
 58,-0.00003843,0.00017968,0.00006991,-0.00401340,0.00004309,0.00000610
 ,-0.00026201,-0.00009144,0.00001030,0.00007055,0.00000403,-0.00000680,
 0.00005450,-0.00001080,-0.00000891,-0.00001904,-0.00000716,-0.00000060
 ,0.00000369,0.01715481,0.01022977,0.02258768,0.00334920,-0.00146428,0.
 00012130,-0.00079002,-0.00048629,-0.00000010,0.00074169,0.00038744,0.0
 0000404,0.00054600,-0.00194000,-0.00005896,-0.00735216,0.00310393,-0.0
 0030393,-0.02239559,-0.04696228,-0.00107778,-0.00002344,-0.00002769,-0
 .00000172,-0.00047036,0.00220017,-0.00002069,0.00029207,-0.00005310,0.
 00001017,-0.00040654,0.00012575,-0.00000471,-0.00065394,0.00003538,-0.
 00002541,0.00011322,0.00005661,0.00003284,0.00030131,-0.00028126,0.000
 01976,0.00011867,0.00037651,0.00000592,-0.00000383,0.00003584,-0.00000
 263,-0.00002714,0.00003081,-0.00000180,0.00004182,0.00002993,0.0000005
 5,-0.09872218,-0.11946084,-0.00456558,0.12534124,0.00538728,0.00406066
 ,0.00023100,-0.00018396,-0.00106511,-0.00000730,0.00015291,0.00018985,
 -0.00000006,-0.00020353,-0.00017959,-0.00002482,0.00121937,0.00208743,
 0.00004058,0.00397763,-0.00015993,0.00018472,0.00001337,-0.00001453,0.
 00000028,-0.00067040,-0.00080383,-0.00003747,0.00015031,-0.00001327,0.
 00000497,-0.00014057,-0.00003352,-0.00000294,0.00015266,0.00013649,0.0
 0000580,0.00028281,0.00040486,0.00002116,-0.00009295,-0.00013035,-0.00
 000119,0.00021896,0.00000456,0.00000679,-0.00000744,-0.00001667,-0.000
 00130,-0.00000250,0.00001524,-0.00000014,-0.00000447,-0.00000959,-0.00
 000029,-0.17454287,-0.44142369,-0.01041068,0.16429339,0.43695099,0.000
 18597,-0.00000879,-0.00048605,0.00000146,-0.00001937,-0.00089180,0.000
 00190,0.00000944,0.00072075,-0.00004172,-0.00008496,0.00175947,-0.0003
 1892,0.00010743,0.00211402,-0.00057448,-0.00159745,-0.00464762,-0.0000
 0136,-0.00000124,0.00001738,-0.00004723,0.00006409,0.00067886,0.000012
 35,-0.00000193,-0.00001281,-0.00000714,0.00000611,-0.00023994,-0.00002
 473,0.00000128,0.00008530,0.00003518,0.00001335,-0.00082068,0.00002214
 ,-0.00000784,-0.00034318,0.00000406,0.00001306,0.00005178,-0.00000310,
 0.00000037,0.00008266,-0.00000206,0.00000093,0.00003144,0.00000026,0.0
 0000069,0.00003350,-0.00511129,-0.00848609,-0.00194485,0.00586871,0.00
 999091,0.00381176||0.00001811,-0.00000039,-0.00000197,-0.00002394,-0.0
 0001177,-0.00000133,0.00001542,0.00000347,-0.00000090,-0.00000038,0.00
 000989,0.00000250,-0.00000196,-0.00002165,-0.00000473,0.00000944,0.000
 03918,0.00001193,-0.00000106,-0.00000454,-0.00000045,-0.00000471,0.000
 00404,0.00000029,-0.00000320,-0.00000312,0.00000069,-0.00000897,-0.000
 00707,-0.00000131,0.00000105,-0.00000555,-0.00000320,-0.00000221,0.000
 00788,0.00000023,0.00000850,-0.00002571,0.00000208,-0.00001079,0.00000
 498,-0.00000016,0.00001050,0.00000211,-0.00000063,0.00000536,-0.000001
 74,0.00000142,0.00000406,-0.00001301,-0.00000032,-0.00001077,0.0000159
 7,-0.00000066,-0.00000445,0.00000703,-0.00000349|||@


 HAPPINESS IS NOT HAVING WHAT YOU WANT --
 HAPPINESS IS WANTING WHAT YOU HAVE!

              -- FROM MRS. SEVERN'S DESK
 Job cpu time:       0 days  0 hours  5 minutes 34.0 seconds.
 File lengths (MBytes):  RWF=    105 Int=      0 D2E=      0 Chk=      5 Scr=      1
 Normal termination of Gaussian 09 at Thu Sep 14 14:15:52 2023.
