 Entering Link 1 = C:\G09W\l1.exe PID=      4932.
  
 Copyright (c) 1988,1990,1992,1993,1995,1998,2003,2009,2013,
            Gaussian, Inc.  All Rights Reserved.
  
 This is part of the Gaussian(R) 09 program.  It is based on
 the Gaussian(R) 03 system (copyright 2003, Gaussian, Inc.),
 the Gaussian(R) 98 system (copyright 1998, Gaussian, Inc.),
 the Gaussian(R) 94 system (copyright 1995, Gaussian, Inc.),
 the Gaussian 92(TM) system (copyright 1992, Gaussian, Inc.),
 the Gaussian 90(TM) system (copyright 1990, Gaussian, Inc.),
 the Gaussian 88(TM) system (copyright 1988, Gaussian, Inc.),
 the Gaussian 86(TM) system (copyright 1986, Carnegie Mellon
 University), and the Gaussian 82(TM) system (copyright 1983,
 Carnegie Mellon University). Gaussian is a federally registered
 trademark of Gaussian, Inc.
  
 This software contains proprietary and confidential information,
 including trade secrets, belonging to Gaussian, Inc.
  
 This software is provided under written license and may be
 used, copied, transmitted, or stored only in accord with that
 written license.
  
 The following legend is applicable only to US Government
 contracts under FAR:
  
                    RESTRICTED RIGHTS LEGEND
  
 Use, reproduction and disclosure by the US Government is
 subject to restrictions as set forth in subparagraphs (a)
 and (c) of the Commercial Computer Software - Restricted
 Rights clause in FAR 52.227-19.
  
 Gaussian, Inc.
 340 Quinnipiac St., Bldg. 40, Wallingford CT 06492
  
  
 ---------------------------------------------------------------
 Warning -- This program may not be used in any manner that
 competes with the business of Gaussian, Inc. or will provide
 assistance to any competitor of Gaussian, Inc.  The licensee
 of this program is prohibited from giving any competitor of
 Gaussian, Inc. access to this program.  By using this program,
 the user acknowledges that Gaussian, Inc. is engaged in the
 business of creating and licensing software in the field of
 computational chemistry and represents and warrants to the
 licensee that it is not a competitor of Gaussian, Inc. and that
 it will not use this program in any manner prohibited above.
 ---------------------------------------------------------------
  

 Cite this work as:
 Gaussian 09, Revision D.01,
 M. J. Frisch, G. W. Trucks, H. B. Schlegel, G. E. Scuseria, 
 M. A. Robb, J. R. Cheeseman, G. Scalmani, V. Barone, B. Mennucci, 
 G. A. Petersson, H. Nakatsuji, M. Caricato, X. Li, H. P. Hratchian, 
 A. F. Izmaylov, J. Bloino, G. Zheng, J. L. Sonnenberg, M. Hada, 
 M. Ehara, K. Toyota, R. Fukuda, J. Hasegawa, M. Ishida, T. Nakajima, 
 Y. Honda, O. Kitao, H. Nakai, T. Vreven, J. A. Montgomery, Jr., 
 J. E. Peralta, F. Ogliaro, M. Bearpark, J. J. Heyd, E. Brothers, 
 K. N. Kudin, V. N. Staroverov, T. Keith, R. Kobayashi, J. Normand, 
 K. Raghavachari, A. Rendell, J. C. Burant, S. S. Iyengar, J. Tomasi, 
 M. Cossi, N. Rega, J. M. Millam, M. Klene, J. E. Knox, J. B. Cross, 
 V. Bakken, C. Adamo, J. Jaramillo, R. Gomperts, R. E. Stratmann, 
 O. Yazyev, A. J. Austin, R. Cammi, C. Pomelli, J. W. Ochterski, 
 R. L. Martin, K. Morokuma, V. G. Zakrzewski, G. A. Voth, 
 P. Salvador, J. J. Dannenberg, S. Dapprich, A. D. Daniels, 
 O. Farkas, J. B. Foresman, J. V. Ortiz, J. Cioslowski, 
 and D. J. Fox, Gaussian, Inc., Wallingford CT, 2013.
 
 ******************************************
 Gaussian 09:  EM64W-G09RevD.01 13-Apr-2013
                13-Sep-2023 
 ******************************************
 %nprocshared=2
 Will use up to    2 processors via shared memory.
 %mem=2GB
 %chk=E:\PROJECT- VIT group\ML\Substrates\molecule_20.chk
 ---------------------------------------------
 # opt freq b3lyp/6-31g empiricaldispersio=gd3
 ---------------------------------------------
 1/14=-1,18=20,19=15,26=3,38=1/1,3;
 2/9=110,12=2,17=6,18=5,40=1/2;
 3/5=1,6=6,11=2,16=1,25=1,30=1,71=1,74=-5,124=31/1,2,3;
 4//1;
 5/5=2,38=5/2;
 6/7=2,8=2,9=2,10=2,28=1/1;
 7//1,2,3,16;
 1/14=-1,18=20,19=15,26=3/3(2);
 2/9=110/2;
 99//99;
 2/9=110/2;
 3/5=1,6=6,11=2,16=1,25=1,30=1,71=1,74=-5,124=31/1,2,3;
 4/5=5,16=3,69=1/1;
 5/5=2,38=5/2;
 7//1,2,3,16;
 1/14=-1,18=20,19=15,26=3/3(-5);
 2/9=110/2;
 6/7=2,8=2,9=2,10=2,19=2,28=1/1;
 99/9=1/99;
 -----------
 molecule_20
 -----------
 Symbolic Z-matrix:
 Charge =  0 Multiplicity = 1
 C                    -1.71429   0.25714   0. 
 C                    -0.51929   0.25714   0. 
 Br                   -3.62429   0.25714   0. 
 C                     1.02071   0.25714   0. 
 C                     1.54687   1.66861  -0.04929 
 H                     1.37361  -0.32552  -0.88511 
 H                     1.37368  -0.26249   0.92349 
 C                     3.05356   1.7046   -0.05062 
 H                     1.15951   2.18027  -0.97008 
 H                     1.15959   2.24331   0.83356 
 H                     3.4595    1.22278   0.87164 
 H                     3.45942   1.15957  -0.93703 
 C                     3.55666   3.15922  -0.10149 
 C                     5.06338   3.1951   -0.10281 
 H                     3.15081   3.70419   0.78493 
 H                     3.15064   3.64108  -1.02367 
 C                     5.58964   4.6065   -0.15211 
 H                     5.45054   2.68331   0.81798 
 H                     5.45054   2.62031  -0.98565 
 H                     6.70622   4.6065   -0.1521 
 H                     5.23668   5.12604  -1.07569 
 H                     5.23668   5.18921   0.73298 
 

 GradGradGradGradGradGradGradGradGradGradGradGradGradGradGradGradGradGrad
 Berny optimization.
 Initialization pass.
                           ----------------------------
                           !    Initial Parameters    !
                           ! (Angstroms and Degrees)  !
 --------------------------                            --------------------------
 ! Name  Definition              Value          Derivative Info.                !
 --------------------------------------------------------------------------------
 ! R1    R(1,2)                  1.195          estimate D2E/DX2                !
 ! R2    R(1,3)                  1.91           estimate D2E/DX2                !
 ! R3    R(2,4)                  1.54           estimate D2E/DX2                !
 ! R4    R(4,5)                  1.5071         estimate D2E/DX2                !
 ! R5    R(4,6)                  1.1169         estimate D2E/DX2                !
 ! R6    R(4,7)                  1.1169         estimate D2E/DX2                !
 ! R7    R(5,8)                  1.5071         estimate D2E/DX2                !
 ! R8    R(5,9)                  1.1224         estimate D2E/DX2                !
 ! R9    R(5,10)                 1.1224         estimate D2E/DX2                !
 ! R10   R(8,11)                 1.1169         estimate D2E/DX2                !
 ! R11   R(8,12)                 1.1169         estimate D2E/DX2                !
 ! R12   R(8,13)                 1.54           estimate D2E/DX2                !
 ! R13   R(13,14)                1.5071         estimate D2E/DX2                !
 ! R14   R(13,15)                1.1169         estimate D2E/DX2                !
 ! R15   R(13,16)                1.1169         estimate D2E/DX2                !
 ! R16   R(14,17)                1.5071         estimate D2E/DX2                !
 ! R17   R(14,18)                1.1224         estimate D2E/DX2                !
 ! R18   R(14,19)                1.1224         estimate D2E/DX2                !
 ! R19   R(17,20)                1.1166         estimate D2E/DX2                !
 ! R20   R(17,21)                1.1169         estimate D2E/DX2                !
 ! R21   R(17,22)                1.1169         estimate D2E/DX2                !
 ! A1    A(2,4,5)              110.4325         estimate D2E/DX2                !
 ! A2    A(2,4,6)              108.4186         estimate D2E/DX2                !
 ! A3    A(2,4,7)              108.4228         estimate D2E/DX2                !
 ! A4    A(5,4,6)              110.6308         estimate D2E/DX2                !
 ! A5    A(5,4,7)              110.6361         estimate D2E/DX2                !
 ! A6    A(6,4,7)              108.2212         estimate D2E/DX2                !
 ! A7    A(4,5,8)              111.802          estimate D2E/DX2                !
 ! A8    A(4,5,9)              109.4684         estimate D2E/DX2                !
 ! A9    A(4,5,10)             109.4724         estimate D2E/DX2                !
 ! A10   A(8,5,9)              109.4761         estimate D2E/DX2                !
 ! A11   A(8,5,10)             109.4767         estimate D2E/DX2                !
 ! A12   A(9,5,10)             107.0263         estimate D2E/DX2                !
 ! A13   A(5,8,11)             110.6289         estimate D2E/DX2                !
 ! A14   A(5,8,12)             110.629          estimate D2E/DX2                !
 ! A15   A(5,8,13)             110.4371         estimate D2E/DX2                !
 ! A16   A(11,8,12)            108.224          estimate D2E/DX2                !
 ! A17   A(11,8,13)            108.422          estimate D2E/DX2                !
 ! A18   A(12,8,13)            108.421          estimate D2E/DX2                !
 ! A19   A(8,13,14)            110.4325         estimate D2E/DX2                !
 ! A20   A(8,13,15)            108.4186         estimate D2E/DX2                !
 ! A21   A(8,13,16)            108.4228         estimate D2E/DX2                !
 ! A22   A(14,13,15)           110.6308         estimate D2E/DX2                !
 ! A23   A(14,13,16)           110.6361         estimate D2E/DX2                !
 ! A24   A(15,13,16)           108.2212         estimate D2E/DX2                !
 ! A25   A(13,14,17)           111.802          estimate D2E/DX2                !
 ! A26   A(13,14,18)           109.4684         estimate D2E/DX2                !
 ! A27   A(13,14,19)           109.4724         estimate D2E/DX2                !
 ! A28   A(17,14,18)           109.4761         estimate D2E/DX2                !
 ! A29   A(17,14,19)           109.4767         estimate D2E/DX2                !
 ! A30   A(18,14,19)           107.0263         estimate D2E/DX2                !
 ! A31   A(14,17,20)           110.4371         estimate D2E/DX2                !
 ! A32   A(14,17,21)           110.6289         estimate D2E/DX2                !
 ! A33   A(14,17,22)           110.629          estimate D2E/DX2                !
 ! A34   A(20,17,21)           108.422          estimate D2E/DX2                !
 ! A35   A(20,17,22)           108.421          estimate D2E/DX2                !
 ! A36   A(21,17,22)           108.224          estimate D2E/DX2                !
 ! A37   L(2,1,3,9,-1)         180.0            estimate D2E/DX2                !
 ! A38   L(1,2,4,9,-1)         180.0            estimate D2E/DX2                !
 ! A39   L(2,1,3,9,-2)         180.0            estimate D2E/DX2                !
 ! A40   L(1,2,4,9,-2)         180.0            estimate D2E/DX2                !
 ! D1    D(2,4,5,8)           -179.9971         estimate D2E/DX2                !
 ! D2    D(2,4,5,9)            -58.5119         estimate D2E/DX2                !
 ! D3    D(2,4,5,10)            58.5143         estimate D2E/DX2                !
 ! D4    D(6,4,5,8)            -59.9619         estimate D2E/DX2                !
 ! D5    D(6,4,5,9)             61.5233         estimate D2E/DX2                !
 ! D6    D(6,4,5,10)           178.5495         estimate D2E/DX2                !
 ! D7    D(7,4,5,8)             59.959          estimate D2E/DX2                !
 ! D8    D(7,4,5,9)           -178.5558         estimate D2E/DX2                !
 ! D9    D(7,4,5,10)           -61.5296         estimate D2E/DX2                !
 ! D10   D(4,5,8,11)           -59.9619         estimate D2E/DX2                !
 ! D11   D(4,5,8,12)            59.9566         estimate D2E/DX2                !
 ! D12   D(4,5,8,13)           179.9967         estimate D2E/DX2                !
 ! D13   D(9,5,8,11)           178.5573         estimate D2E/DX2                !
 ! D14   D(9,5,8,12)           -61.5241         estimate D2E/DX2                !
 ! D15   D(9,5,8,13)            58.516          estimate D2E/DX2                !
 ! D16   D(10,5,8,11)           61.5243         estimate D2E/DX2                !
 ! D17   D(10,5,8,12)         -178.5572         estimate D2E/DX2                !
 ! D18   D(10,5,8,13)          -58.5171         estimate D2E/DX2                !
 ! D19   D(5,8,13,14)          179.9997         estimate D2E/DX2                !
 ! D20   D(5,8,13,15)           58.643          estimate D2E/DX2                !
 ! D21   D(5,8,13,16)          -58.6344         estimate D2E/DX2                !
 ! D22   D(11,8,13,14)          58.6402         estimate D2E/DX2                !
 ! D23   D(11,8,13,15)         -62.7164         estimate D2E/DX2                !
 ! D24   D(11,8,13,16)        -179.9938         estimate D2E/DX2                !
 ! D25   D(12,8,13,14)         -58.6414         estimate D2E/DX2                !
 ! D26   D(12,8,13,15)        -179.9981         estimate D2E/DX2                !
 ! D27   D(12,8,13,16)          62.7246         estimate D2E/DX2                !
 ! D28   D(8,13,14,17)        -179.9971         estimate D2E/DX2                !
 ! D29   D(8,13,14,18)         -58.5119         estimate D2E/DX2                !
 ! D30   D(8,13,14,19)          58.5143         estimate D2E/DX2                !
 ! D31   D(15,13,14,17)        -59.9619         estimate D2E/DX2                !
 ! D32   D(15,13,14,18)         61.5233         estimate D2E/DX2                !
 ! D33   D(15,13,14,19)        178.5495         estimate D2E/DX2                !
 ! D34   D(16,13,14,17)         59.959          estimate D2E/DX2                !
 ! D35   D(16,13,14,18)       -178.5558         estimate D2E/DX2                !
 ! D36   D(16,13,14,19)        -61.5296         estimate D2E/DX2                !
 ! D37   D(13,14,17,20)        179.9967         estimate D2E/DX2                !
 ! D38   D(13,14,17,21)        -59.9619         estimate D2E/DX2                !
 ! D39   D(13,14,17,22)         59.9566         estimate D2E/DX2                !
 ! D40   D(18,14,17,20)         58.516          estimate D2E/DX2                !
 ! D41   D(18,14,17,21)        178.5573         estimate D2E/DX2                !
 ! D42   D(18,14,17,22)        -61.5241         estimate D2E/DX2                !
 ! D43   D(19,14,17,20)        -58.5171         estimate D2E/DX2                !
 ! D44   D(19,14,17,21)         61.5243         estimate D2E/DX2                !
 ! D45   D(19,14,17,22)       -178.5572         estimate D2E/DX2                !
 --------------------------------------------------------------------------------
 Trust Radius=3.00D-01 FncErr=1.00D-07 GrdErr=1.00D-06
 Number of steps in this run=    116 maximum allowed number of steps=    132.
 GradGradGradGradGradGradGradGradGradGradGradGradGradGradGradGradGradGrad

                          Input orientation:                          
 ---------------------------------------------------------------------
 Center     Atomic      Atomic             Coordinates (Angstroms)
 Number     Number       Type             X           Y           Z
 ---------------------------------------------------------------------
      1          6           0       -1.714286    0.257143    0.000000
      2          6           0       -0.519286    0.257143    0.000000
      3         35           0       -3.624286    0.257143    0.000000
      4          6           0        1.020714    0.257143    0.000000
      5          6           0        1.546865    1.668609   -0.049289
      6          1           0        1.373605   -0.325522   -0.885114
      7          1           0        1.373679   -0.262492    0.923486
      8          6           0        3.053563    1.704605   -0.050619
      9          1           0        1.159513    2.180273   -0.970075
     10          1           0        1.159589    2.243305    0.833556
     11          1           0        3.459505    1.222783    0.871640
     12          1           0        3.459422    1.159572   -0.937028
     13          6           0        3.556656    3.159221   -0.101495
     14          6           0        5.063378    3.195096   -0.102812
     15          1           0        3.150811    3.704195    0.784932
     16          1           0        3.150640    3.641076   -1.023665
     17          6           0        5.589636    4.606499   -0.152106
     18          1           0        5.450542    2.683308    0.817984
     19          1           0        5.450537    2.620307   -0.985648
     20          1           0        6.706225    4.606499   -0.152095
     21          1           0        5.236684    5.126038   -1.075689
     22          1           0        5.236684    5.189209    0.732980
 ---------------------------------------------------------------------
                    Distance matrix (angstroms):
                    1          2          3          4          5
     1  C    0.000000
     2  C    1.195000   0.000000
     3  Br   1.910000   3.105000   0.000000
     4  C    2.735000   1.540000   4.645000   0.000000
     5  C    3.553839   2.502728   5.360547   1.507150   0.000000
     6  H    3.264659   2.169323   5.108996   1.116897   2.169143
     7  H    3.264717   2.169369   5.109061   1.116884   2.169201
     8  C    4.982980   3.855250   6.833108   2.496033   1.507128
     9  H    3.591405   2.730904   5.246351   2.158411   1.122358
    10  H    3.591492   2.730985   5.246438   2.158458   1.122352
    11  H    5.334822   4.186047   7.202243   2.764040   2.169115
    12  H    5.334758   4.185990   7.202174   2.764000   2.169118
    13  C    6.017905   5.004564   7.745856   3.855303   2.502780
    14  C    7.387751   6.309380   9.171567   4.998527   3.833913
    15  H    6.013938   5.095871   7.642004   4.127420   2.722532
    16  H    6.013850   5.095807   7.641892   4.127406   2.722522
    17  C    8.502194   7.500597  10.190014   6.309919   4.998576
    18  H    7.608556   6.495708   9.429097   5.116517   4.125587
    19  H    7.608596   6.495755   9.429128   5.116579   4.125670
    20  H    9.478662   8.434930  11.209794   7.159963   5.938077
    21  H    8.554486   7.615408  10.167597   6.529751   5.159658
    22  H    8.554444   7.615361  10.167562   6.529697   5.159587
                    6          7          8          9         10
     6  H    0.000000
     7  H    1.809698   0.000000
     8  C    2.764066   2.764119   0.000000
     9  H    2.516359   3.098151   2.158492   0.000000
    10  H    3.098145   2.516533   2.158494   1.804732   0.000000
    11  H    3.135987   2.561132   1.116916   3.098171   2.516451
    12  H    2.561022   3.135936   1.116917   2.516447   3.098173
    13  C    4.186073   4.186179   1.540000   2.731129   2.731145
    14  C    5.159571   5.159659   2.502728   4.125794   4.125804
    15  H    4.710216   4.348793   2.169323   3.060663   2.470127
    16  H    4.348672   4.710289   2.169369   2.470103   3.060607
    17  C    6.529705   6.529798   3.855250   5.116800   5.116789
    18  H    5.345561   5.030872   2.730904   4.675803   4.313481
    19  H    5.030844   5.345661   2.730985   4.313556   4.675882
    20  H    7.300616   7.300684   4.666179   6.109147   6.109121
    21  H    6.684251   6.925009   4.186047   5.031105   5.345846
    22  H    6.924874   6.684321   4.185990   5.345786   5.031021
                   11         12         13         14         15
    11  H    0.000000
    12  H    1.809772   0.000000
    13  C    2.169383   2.169370   0.000000
    14  C    2.722496   2.722490   1.507150   0.000000
    15  H    2.502042   3.087959   1.116897   2.169143   0.000000
    16  H    3.087995   2.502141   1.116884   2.169201   1.809698
    17  C    4.127353   4.127375   2.496033   1.507128   2.764066
    18  H    2.469866   3.060457   2.158411   1.122358   2.516359
    19  H    3.060523   2.469950   2.158458   1.122352   3.098145
    20  H    4.799871   4.799912   3.466548   2.166433   3.785913
    21  H    4.710186   4.348648   2.764040   2.169115   3.135987
    22  H    4.348578   4.710155   2.764000   2.169118   2.561022
                   16         17         18         19         20
    16  H    0.000000
    17  C    2.764119   0.000000
    18  H    3.098151   2.158492   0.000000
    19  H    2.516533   2.158494   1.804732   0.000000
    20  H    3.786008   1.116589   2.493283   2.493295   0.000000
    21  H    2.561132   1.116916   3.098171   2.516451   1.811766
    22  H    3.135936   1.116917   2.516447   3.098173   1.811756
                   21         22
    21  H    0.000000
    22  H    1.809772   0.000000
 Stoichiometry    C8H13Br
 Framework group  C1[X(C8H13Br)]
 Deg. of freedom    60
 Full point group                 C1      NOp   1
 Largest Abelian subgroup         C1      NOp   1
 Largest concise Abelian subgroup C1      NOp   1
                         Standard orientation:                         
 ---------------------------------------------------------------------
 Center     Atomic      Atomic             Coordinates (Angstroms)
 Number     Number       Type             X           Y           Z
 ---------------------------------------------------------------------
      1          6           0        2.254539    0.324262   -0.000001
      2          6           0        1.143883    0.765246    0.000002
      3         35           0        4.029731   -0.380574   -0.000006
      4          6           0       -0.287424    1.333543    0.000006
      5          6           0       -1.297621    0.215061    0.000074
      6          1           0       -0.411938    1.976230   -0.904929
      7          1           0       -0.411924    1.976453    0.904769
      8          6           0       -2.711269    0.737590    0.000008
      9          1           0       -1.138186   -0.433048   -0.902269
     10          1           0       -1.138239   -0.432987    0.902463
     11          1           0       -2.898968    1.364888    0.904866
     12          1           0       -2.898908    1.364827   -0.904906
     13          6           0       -3.715970   -0.429532   -0.000002
     14          6           0       -5.129595    0.093119   -0.000061
     15          1           0       -3.528322   -1.056708    0.904928
     16          1           0       -3.528213   -1.056885   -0.904770
     17          6           0       -6.139869   -1.025265    0.000001
     18          1           0       -5.288809    0.741275    0.902289
     19          1           0       -5.288834    0.741210   -0.902443
     20          1           0       -7.177648   -0.613217    0.000015
     21          1           0       -6.015346   -1.668084   -0.904863
     22          1           0       -6.015314   -1.668017    0.904909
 ---------------------------------------------------------------------
 Rotational constants (GHZ):      5.3818416      0.1941752      0.1887974
 Standard basis: 6-31G (6D, 7F)
 There are   122 symmetry adapted cartesian basis functions of A   symmetry.
 There are   122 symmetry adapted basis functions of A   symmetry.
   122 basis functions,   305 primitive gaussians,   122 cartesian basis functions
    48 alpha electrons       48 beta electrons
       nuclear repulsion energy       554.9742782998 Hartrees.
 NAtoms=   22 NActive=   22 NUniq=   22 SFac= 1.00D+00 NAtFMM=   60 NAOKFM=F Big=F
 Integral buffers will be    131072 words long.
 Raffenetti 2 integral format.
 Two-electron integral symmetry is turned on.
 Nuclear repulsion after empirical dispersion term =      554.9585600153 Hartrees.
 One-electron integrals computed using PRISM.
 NBasis=   122 RedAO= T EigKep=  4.93D-04  NBF=   122
 NBsUse=   122 1.00D-06 EigRej= -1.00D+00 NBFU=   122
 ExpMin= 1.43D-01 ExpMax= 5.74D+05 ExpMxC= 5.74D+03 IAcc=2 IRadAn=         4 AccDes= 0.00D+00
 Harris functional with IExCor=  402 and IRadAn=       4 diagonalized for initial guess.
 HarFok:  IExCor=  402 AccDes= 0.00D+00 IRadAn=         4 IDoV= 1 UseB2=F ITyADJ=14
 ICtDFT=  3500011 ScaDFX=  1.000000  1.000000  1.000000  1.000000
 FoFCou: FMM=F IPFlag=           0 FMFlag=      100000 FMFlg1=           0
         NFxFlg=           0 DoJE=T BraDBF=F KetDBF=T FulRan=T
         wScrn=  0.000000 ICntrl=     500 IOpCl=  0 I1Cent=   200000004 NGrid=           0
         NMat0=    1 NMatS0=      1 NMatT0=    0 NMatD0=    1 NMtDS0=    0 NMtDT0=    0
 Petite list used in FoFCou.
 Keep R1 ints in memory in canonical form, NReq=29304526.
 Requested convergence on RMS density matrix=1.00D-08 within 128 cycles.
 Requested convergence on MAX density matrix=1.00D-06.
 Requested convergence on             energy=1.00D-06.
 No special actions if energy rises.
 Integral accuracy reduced to 1.0D-05 until final iterations.
 EnCoef did   100 forward-backward iterations
 Initial convergence to 1.0D-05 achieved.  Increase integral accuracy.
 DSYEVD-2 returned Info=         184 IAlg= 4 N=   122 NDim=   122 NE2=     1968884 trying  DSYEV.
 SCF Done:  E(RB3LYP) =  -2884.11319513     A.U. after   14 cycles
            NFock= 14  Conv=0.57D-08     -V/T= 2.0044

 **********************************************************************

            Population analysis using the SCF density.

 **********************************************************************

 Orbital symmetries:
       Occupied  (A) (A) (A) (A) (A) (A) (A) (A) (A) (A) (A) (A)
                 (A) (A) (A) (A) (A) (A) (A) (A) (A) (A) (A) (A)
                 (A) (A) (A) (A) (A) (A) (A) (A) (A) (A) (A) (A)
                 (A) (A) (A) (A) (A) (A) (A) (A) (A) (A) (A) (A)
       Virtual   (A) (A) (A) (A) (A) (A) (A) (A) (A) (A) (A) (A)
                 (A) (A) (A) (A) (A) (A) (A) (A) (A) (A) (A) (A)
                 (A) (A) (A) (A) (A) (A) (A) (A) (A) (A) (A) (A)
                 (A) (A) (A) (A) (A) (A) (A) (A) (A) (A) (A) (A)
                 (A) (A) (A) (A) (A) (A) (A) (A) (A) (A) (A) (A)
                 (A) (A) (A) (A) (A) (A) (A) (A) (A) (A) (A) (A)
                 (A) (A)
 The electronic state is 1-A.
 Alpha  occ. eigenvalues -- -482.80833 -61.78904 -56.33871 -56.33309 -56.33309
 Alpha  occ. eigenvalues --  -10.21928 -10.21754 -10.19546 -10.18725 -10.18173
 Alpha  occ. eigenvalues --  -10.17853 -10.17836 -10.17219  -8.56293  -6.53511
 Alpha  occ. eigenvalues --   -6.51777  -6.51777  -2.65099  -2.64576  -2.64575
 Alpha  occ. eigenvalues --   -2.63191  -2.63191  -0.82725  -0.81432  -0.79049
 Alpha  occ. eigenvalues --   -0.74715  -0.71024  -0.64676  -0.58645  -0.57709
 Alpha  occ. eigenvalues --   -0.49341  -0.48677  -0.46070  -0.45064  -0.43727
 Alpha  occ. eigenvalues --   -0.41373  -0.40104  -0.39385  -0.36519  -0.35263
 Alpha  occ. eigenvalues --   -0.34152  -0.33996  -0.33359  -0.33132  -0.32411
 Alpha  occ. eigenvalues --   -0.31523  -0.25902  -0.25844
 Alpha virt. eigenvalues --   -0.02833   0.05975   0.06352   0.08155   0.09876
 Alpha virt. eigenvalues --    0.10098   0.11356   0.12791   0.14334   0.15827
 Alpha virt. eigenvalues --    0.17185   0.17994   0.18437   0.19390   0.19740
 Alpha virt. eigenvalues --    0.19963   0.20909   0.23222   0.23706   0.26495
 Alpha virt. eigenvalues --    0.29542   0.31388   0.34633   0.48059   0.48922
 Alpha virt. eigenvalues --    0.49131   0.49448   0.52215   0.54164   0.55993
 Alpha virt. eigenvalues --    0.57185   0.58352   0.58958   0.60274   0.61711
 Alpha virt. eigenvalues --    0.63170   0.65356   0.68438   0.69038   0.69500
 Alpha virt. eigenvalues --    0.72042   0.73440   0.75885   0.76945   0.78374
 Alpha virt. eigenvalues --    0.80502   0.82039   0.84960   0.85941   0.86287
 Alpha virt. eigenvalues --    0.90643   0.90871   0.91797   0.92459   0.93952
 Alpha virt. eigenvalues --    0.95798   0.96949   0.98418   0.98473   0.99703
 Alpha virt. eigenvalues --    1.01046   1.02826   1.09841   1.14434   1.24032
 Alpha virt. eigenvalues --    1.36905   1.42117   1.44750   1.49949   1.60293
 Alpha virt. eigenvalues --    1.71205   2.01818   6.59822  39.73620
          Condensed to atoms (all electrons):
               1          2          3          4          5          6
     1  C    6.163634   0.326093   0.061327  -0.206833  -0.003046  -0.002601
     2  C    0.326093   5.609707   0.042188   0.262434  -0.040800  -0.038652
     3  Br   0.061327   0.042188  34.547560   0.001845  -0.000009  -0.000006
     4  C   -0.206833   0.262434   0.001845   5.308020   0.288383   0.375502
     5  C   -0.003046  -0.040800  -0.000009   0.288383   5.166319  -0.041439
     6  H   -0.002601  -0.038652  -0.000006   0.375502  -0.041439   0.577520
     7  H   -0.002599  -0.038641  -0.000006   0.375493  -0.041432  -0.034182
     8  C    0.000026   0.006425   0.000001  -0.044902   0.283497  -0.002875
     9  H   -0.000181  -0.002097  -0.000014  -0.042800   0.381122  -0.005479
    10  H   -0.000181  -0.002097  -0.000014  -0.042795   0.381119   0.005368
    11  H    0.000004   0.000100   0.000000  -0.003126  -0.044330  -0.000455
    12  H    0.000004   0.000100   0.000000  -0.003127  -0.044331   0.005078
    13  C   -0.000011  -0.000362   0.000000   0.005247  -0.042116  -0.000001
    14  C    0.000000   0.000004   0.000000  -0.000224   0.004937   0.000002
    15  H    0.000000   0.000000   0.000000   0.000078  -0.003169   0.000003
    16  H    0.000000   0.000000   0.000000   0.000078  -0.003168   0.000009
    17  C    0.000000   0.000000   0.000000   0.000002  -0.000242   0.000000
    18  H    0.000000   0.000000   0.000000   0.000002   0.000120   0.000001
    19  H    0.000000   0.000000   0.000000   0.000002   0.000120  -0.000004
    20  H    0.000000   0.000000   0.000000   0.000000   0.000002   0.000000
    21  H    0.000000   0.000000   0.000000   0.000000   0.000002   0.000000
    22  H    0.000000   0.000000   0.000000   0.000000   0.000002   0.000000
               7          8          9         10         11         12
     1  C   -0.002599   0.000026  -0.000181  -0.000181   0.000004   0.000004
     2  C   -0.038641   0.006425  -0.002097  -0.002097   0.000100   0.000100
     3  Br  -0.000006   0.000001  -0.000014  -0.000014   0.000000   0.000000
     4  C    0.375493  -0.044902  -0.042800  -0.042795  -0.003126  -0.003127
     5  C   -0.041432   0.283497   0.381122   0.381119  -0.044330  -0.044331
     6  H   -0.034182  -0.002875  -0.005479   0.005368  -0.000455   0.005078
     7  H    0.577508  -0.002874   0.005367  -0.005477   0.005077  -0.000455
     8  C   -0.002874   5.149656  -0.042720  -0.042717   0.376319   0.376319
     9  H    0.005367  -0.042720   0.600946  -0.034537   0.005516  -0.005283
    10  H   -0.005477  -0.042717  -0.034537   0.600939  -0.005283   0.005516
    11  H    0.005077   0.376319   0.005516  -0.005283   0.622251  -0.036700
    12  H   -0.000455   0.376319  -0.005283   0.005516  -0.036700   0.622256
    13  C   -0.000001   0.312744  -0.004003  -0.004003  -0.043765  -0.043769
    14  C    0.000002  -0.043223   0.000117   0.000117  -0.003131  -0.003131
    15  H    0.000009  -0.044920  -0.000441   0.005295  -0.005208   0.005566
    16  H    0.000003  -0.044914   0.005295  -0.000441   0.005566  -0.005207
    17  C    0.000000   0.005611   0.000000   0.000000   0.000071   0.000071
    18  H   -0.000004  -0.004446   0.000001   0.000013   0.005560  -0.000468
    19  H    0.000001  -0.004446   0.000013   0.000001  -0.000468   0.005560
    20  H    0.000000  -0.000225   0.000000   0.000000   0.000002   0.000002
    21  H    0.000000   0.000070  -0.000003   0.000001   0.000005   0.000006
    22  H    0.000000   0.000071   0.000001  -0.000003   0.000006   0.000005
              13         14         15         16         17         18
     1  C   -0.000011   0.000000   0.000000   0.000000   0.000000   0.000000
     2  C   -0.000362   0.000004   0.000000   0.000000   0.000000   0.000000
     3  Br   0.000000   0.000000   0.000000   0.000000   0.000000   0.000000
     4  C    0.005247  -0.000224   0.000078   0.000078   0.000002   0.000002
     5  C   -0.042116   0.004937  -0.003169  -0.003168  -0.000242   0.000120
     6  H   -0.000001   0.000002   0.000003   0.000009   0.000000   0.000001
     7  H   -0.000001   0.000002   0.000009   0.000003   0.000000  -0.000004
     8  C    0.312744  -0.043223  -0.044920  -0.044914   0.005611  -0.004446
     9  H   -0.004003   0.000117  -0.000441   0.005295   0.000000   0.000001
    10  H   -0.004003   0.000117   0.005295  -0.000441   0.000000   0.000013
    11  H   -0.043765  -0.003131  -0.005208   0.005566   0.000071   0.005560
    12  H   -0.043769  -0.003131   0.005566  -0.005207   0.000071  -0.000468
    13  C    5.119676   0.322254   0.377806   0.377805  -0.054808  -0.045026
    14  C    0.322254   5.083040  -0.044141  -0.044135   0.316130   0.380019
    15  H    0.377806  -0.044141   0.621276  -0.036521  -0.002825  -0.005561
    16  H    0.377805  -0.044135  -0.036521   0.621259  -0.002824   0.005732
    17  C   -0.054808   0.316130  -0.002825  -0.002824   5.107214  -0.043081
    18  H   -0.045026   0.380019  -0.005561   0.005732  -0.043081   0.625165
    19  H   -0.045022   0.380016   0.005732  -0.005558  -0.043079  -0.037337
    20  H    0.005368  -0.032503  -0.000002  -0.000002   0.364797  -0.003098
    21  H   -0.005411  -0.040462  -0.000478   0.005333   0.375145   0.005456
    22  H   -0.005412  -0.040462   0.005334  -0.000478   0.375145  -0.005014
              19         20         21         22
     1  C    0.000000   0.000000   0.000000   0.000000
     2  C    0.000000   0.000000   0.000000   0.000000
     3  Br   0.000000   0.000000   0.000000   0.000000
     4  C    0.000002   0.000000   0.000000   0.000000
     5  C    0.000120   0.000002   0.000002   0.000002
     6  H   -0.000004   0.000000   0.000000   0.000000
     7  H    0.000001   0.000000   0.000000   0.000000
     8  C   -0.004446  -0.000225   0.000070   0.000071
     9  H    0.000013   0.000000  -0.000003   0.000001
    10  H    0.000001   0.000000   0.000001  -0.000003
    11  H   -0.000468   0.000002   0.000005   0.000006
    12  H    0.005560   0.000002   0.000006   0.000005
    13  C   -0.045022   0.005368  -0.005411  -0.005412
    14  C    0.380016  -0.032503  -0.040462  -0.040462
    15  H    0.005732  -0.000002  -0.000478   0.005334
    16  H   -0.005558  -0.000002   0.005333  -0.000478
    17  C   -0.043079   0.364797   0.375145   0.375145
    18  H   -0.037337  -0.003098   0.005456  -0.005014
    19  H    0.625158  -0.003097  -0.005014   0.005456
    20  H   -0.003097   0.602764  -0.030586  -0.030588
    21  H   -0.005014  -0.030586   0.599359  -0.032308
    22  H    0.005456  -0.030588  -0.032308   0.599361
 Mulliken charges:
               1
     1  C   -0.335636
     2  C   -0.124402
     3  Br   0.347129
     4  C   -0.273280
     5  C   -0.241540
     6  H    0.162209
     7  H    0.162208
     8  C   -0.232477
     9  H    0.139179
    10  H    0.139180
    11  H    0.121989
    12  H    0.121987
    13  C   -0.227190
    14  C   -0.235226
    15  H    0.122166
    16  H    0.122169
    17  C   -0.397327
    18  H    0.121964
    19  H    0.121965
    20  H    0.127165
    21  H    0.128884
    22  H    0.128883
 Sum of Mulliken charges =   0.00000
 Mulliken charges with hydrogens summed into heavy atoms:
               1
     1  C   -0.335636
     2  C   -0.124402
     3  Br   0.347129
     4  C    0.051138
     5  C    0.036819
     8  C    0.011498
    13  C    0.017146
    14  C    0.008703
    17  C   -0.012394
 Electronic spatial extent (au):  <R**2>=           5205.5082
 Charge=              0.0000 electrons
 Dipole moment (field-independent basis, Debye):
    X=             -1.5905    Y=              0.3888    Z=              0.0000  Tot=              1.6373
 Quadrupole moment (field-independent basis, Debye-Ang):
   XX=            -68.4667   YY=            -69.0915   ZZ=            -69.0593
   XY=             -2.6430   XZ=             -0.0001   YZ=              0.0002
 Traceless Quadrupole moment (field-independent basis, Debye-Ang):
   XX=              0.4058   YY=             -0.2190   ZZ=             -0.1868
   XY=             -2.6430   XZ=             -0.0001   YZ=              0.0002
 Octapole moment (field-independent basis, Debye-Ang**2):
  XXX=            157.4013  YYY=            -10.9504  ZZZ=             -0.0003  XYY=             44.0943
  XXY=             -9.8601  XXZ=              0.0002  XZZ=             38.4180  YZZ=             -3.7858
  YYZ=              0.0001  XYZ=             -0.0004
 Hexadecapole moment (field-independent basis, Debye-Ang**3):
 XXXX=          -5650.2341 YYYY=           -321.6073 ZZZZ=           -117.2113 XXXY=           -141.8599
 XXXZ=             -0.0025 YYYX=            -60.1739 YYYZ=              0.0023 ZZZX=             -0.0009
 ZZZY=             -0.0004 XXYY=          -1028.4561 XXZZ=           -980.4117 YYZZ=            -68.2555
 XXYZ=              0.0014 YYXZ=              0.0003 ZZXY=            -17.5135
 N-N= 5.549585600153D+02 E-N=-7.972169546340D+03  KE= 2.871363088136D+03
 Calling FoFJK, ICntrl=      2127 FMM=F ISym2X=0 I1Cent= 0 IOpClX= 0 NMat=1 NMatS=1 NMatT=0.
 ***** Axes restored to original set *****
 -------------------------------------------------------------------
 Center     Atomic                   Forces (Hartrees/Bohr)
 Number     Number              X              Y              Z
 -------------------------------------------------------------------
      1        6          -0.066115503    0.000514732   -0.000017946
      2        6           0.072917784   -0.006324429    0.000225116
      3       35           0.029233945    0.000247288   -0.000008773
      4        6          -0.044194204   -0.020461148    0.000701080
      5        6          -0.011874862    0.018899144   -0.000662948
      6        1          -0.003217313    0.004695413    0.010484506
      7        1          -0.003219579    0.003956343   -0.010778184
      8        6           0.013399610    0.003528707   -0.000129353
      9        1           0.003641745   -0.005451407    0.012593681
     10        1           0.003638861   -0.006319555   -0.012178694
     11        1          -0.003583128    0.001495978   -0.009846605
     12        1          -0.003583707    0.002177948    0.009718814
     13        6          -0.014072571   -0.006188952    0.000232313
     14        6           0.015446454   -0.013034798    0.000458495
     15        1           0.003901365   -0.002088031   -0.009826248
     16        1           0.003905155   -0.001400920    0.009939481
     17        6           0.014245434    0.020494503   -0.000715097
     18        1          -0.004036973    0.004130900   -0.011786089
     19        1          -0.004039861    0.004942063    0.011465229
     20        1          -0.012134887    0.004144030   -0.000146027
     21        1           0.004871582   -0.003616044    0.010514840
     22        1           0.004870653   -0.004341763   -0.010237591
 -------------------------------------------------------------------
 Cartesian Forces:  Max     0.072917784 RMS     0.015984006

 GradGradGradGradGradGradGradGradGradGradGradGradGradGradGradGradGradGrad
 Berny optimization.
 FormGI is forming the generalized inverse of G from B-inverse, IUseBI=4.
 Internal  Forces:  Max     0.036885258 RMS     0.008600587
 Search for a local minimum.
 Step number   1 out of a maximum of  116
 All quantities printed in internal units (Hartrees-Bohrs-Radians)
 Mixed Optimization -- RFO/linear search
 Second derivative matrix not updated -- first step.
 ITU=  0
     Eigenvalues ---    0.00230   0.00230   0.00237   0.00237   0.00237
     Eigenvalues ---    0.00671   0.00671   0.00672   0.00672   0.03867
     Eigenvalues ---    0.03867   0.03870   0.03870   0.04990   0.04990
     Eigenvalues ---    0.05086   0.05086   0.05800   0.05812   0.05812
     Eigenvalues ---    0.06064   0.07968   0.07968   0.08336   0.08336
     Eigenvalues ---    0.11910   0.11911   0.12168   0.12168   0.16000
     Eigenvalues ---    0.16000   0.16000   0.16000   0.16000   0.17771
     Eigenvalues ---    0.21907   0.21907   0.21920   0.21920   0.22323
     Eigenvalues ---    0.28519   0.28519   0.31326   0.31326   0.31326
     Eigenvalues ---    0.31326   0.31639   0.31639   0.31641   0.31641
     Eigenvalues ---    0.31878   0.31878   0.31879   0.31879   0.31881
     Eigenvalues ---    0.31881   0.31882   0.31882   0.31912   1.07376
 RFO step:  Lambda=-2.46398070D-02 EMin= 2.30000000D-03
 Linear search not attempted -- first point.
 Maximum step size (   0.300) exceeded in Quadratic search.
    -- Step size scaled by   0.988
 Iteration  1 RMS(Cart)=  0.06948831 RMS(Int)=  0.00151509
 Iteration  2 RMS(Cart)=  0.00269668 RMS(Int)=  0.00019231
 Iteration  3 RMS(Cart)=  0.00000807 RMS(Int)=  0.00019226
 Iteration  4 RMS(Cart)=  0.00000000 RMS(Int)=  0.00019226
 Variable       Old X    -DE/DX   Delta X   Delta X   Delta X     New X
                                 (Linear)    (Quad)   (Total)
    R1        2.25822   0.03689   0.00000   0.03317   0.03317   2.29140
    R2        3.60938  -0.02923   0.00000  -0.14271  -0.14271   3.46667
    R3        2.91018  -0.03603   0.00000  -0.11488  -0.11488   2.79530
    R4        2.84810   0.02137   0.00000   0.06191   0.06191   2.91001
    R5        2.11063  -0.01178   0.00000  -0.03387  -0.03387   2.07676
    R6        2.11061  -0.01177   0.00000  -0.03386  -0.03386   2.07675
    R7        2.84806   0.01944   0.00000   0.05631   0.05631   2.90437
    R8        2.12095  -0.01407   0.00000  -0.04114  -0.04114   2.07981
    R9        2.12094  -0.01407   0.00000  -0.04114  -0.04114   2.07980
   R10        2.11066  -0.01008   0.00000  -0.02899  -0.02899   2.08167
   R11        2.11067  -0.01008   0.00000  -0.02899  -0.02899   2.08168
   R12        2.91018   0.00709   0.00000   0.02262   0.02262   2.93280
   R13        2.84810   0.01953   0.00000   0.05658   0.05658   2.90468
   R14        2.11063  -0.01024   0.00000  -0.02944  -0.02944   2.08119
   R15        2.11061  -0.01023   0.00000  -0.02943  -0.02943   2.08118
   R16        2.84806   0.01977   0.00000   0.05727   0.05727   2.90533
   R17        2.12095  -0.01294   0.00000  -0.03784  -0.03784   2.08311
   R18        2.12094  -0.01294   0.00000  -0.03784  -0.03784   2.08310
   R19        2.11005  -0.01213   0.00000  -0.03487  -0.03487   2.07518
   R20        2.11066  -0.01192   0.00000  -0.03428  -0.03428   2.07638
   R21        2.11067  -0.01192   0.00000  -0.03429  -0.03429   2.07638
    A1        1.92741   0.00959   0.00000   0.04141   0.04119   1.96860
    A2        1.89226  -0.00375   0.00000  -0.01019  -0.01040   1.88186
    A3        1.89233  -0.00375   0.00000  -0.01024  -0.01045   1.88189
    A4        1.93087  -0.00023   0.00000  -0.00113  -0.00126   1.92961
    A5        1.93096  -0.00024   0.00000  -0.00119  -0.00133   1.92964
    A6        1.88882  -0.00199   0.00000  -0.02024  -0.02029   1.86853
    A7        1.95131   0.00550   0.00000   0.02626   0.02618   1.97750
    A8        1.91058  -0.00167   0.00000  -0.00598  -0.00610   1.90449
    A9        1.91065  -0.00167   0.00000  -0.00603  -0.00614   1.90452
   A10        1.91072  -0.00113   0.00000  -0.00101  -0.00103   1.90968
   A11        1.91073  -0.00112   0.00000  -0.00101  -0.00104   1.90969
   A12        1.86796  -0.00015   0.00000  -0.01401  -0.01408   1.85388
   A13        1.93084  -0.00379   0.00000  -0.01669  -0.01727   1.91357
   A14        1.93084  -0.00379   0.00000  -0.01670  -0.01728   1.91356
   A15        1.92749   0.01156   0.00000   0.05439   0.05417   1.98167
   A16        1.88887   0.00030   0.00000  -0.02269  -0.02308   1.86579
   A17        1.89232  -0.00223   0.00000   0.00040   0.00046   1.89278
   A18        1.89230  -0.00223   0.00000   0.00042   0.00048   1.89278
   A19        1.92741   0.01285   0.00000   0.05997   0.05974   1.98716
   A20        1.89226  -0.00245   0.00000   0.00074   0.00086   1.89312
   A21        1.89233  -0.00245   0.00000   0.00068   0.00080   1.89314
   A22        1.93087  -0.00433   0.00000  -0.01972  -0.02043   1.91044
   A23        1.93096  -0.00433   0.00000  -0.01977  -0.02048   1.91048
   A24        1.88882   0.00054   0.00000  -0.02275  -0.02326   1.86555
   A25        1.95131   0.00779   0.00000   0.03651   0.03640   1.98771
   A26        1.91058  -0.00244   0.00000  -0.00924  -0.00944   1.90115
   A27        1.91065  -0.00245   0.00000  -0.00928  -0.00948   1.90118
   A28        1.91072  -0.00165   0.00000  -0.00200  -0.00203   1.90869
   A29        1.91073  -0.00165   0.00000  -0.00200  -0.00203   1.90870
   A30        1.86796   0.00006   0.00000  -0.01634  -0.01648   1.85148
   A31        1.92749   0.00518   0.00000   0.02900   0.02880   1.95629
   A32        1.93084   0.00186   0.00000   0.00931   0.00921   1.94005
   A33        1.93084   0.00186   0.00000   0.00931   0.00921   1.94005
   A34        1.89232  -0.00342   0.00000  -0.01708  -0.01726   1.87506
   A35        1.89230  -0.00342   0.00000  -0.01707  -0.01725   1.87505
   A36        1.88887  -0.00241   0.00000  -0.01536  -0.01537   1.87350
   A37        3.14159  -0.00083   0.00000  -0.03046  -0.03046   3.11113
   A38        3.14159  -0.00242   0.00000  -0.08834  -0.08834   3.05326
   A39        3.14159   0.00023   0.00000   0.00842   0.00842   3.15001
   A40        3.14159  -0.00088   0.00000  -0.03212  -0.03212   3.10947
    D1       -3.14154   0.00000   0.00000  -0.00004  -0.00004  -3.14158
    D2       -1.02122   0.00106   0.00000   0.01190   0.01187  -1.00935
    D3        1.02127  -0.00106   0.00000  -0.01195  -0.01193   1.00934
    D4       -1.04653   0.00140   0.00000   0.01342   0.01347  -1.03307
    D5        1.07378   0.00246   0.00000   0.02537   0.02538   1.09917
    D6        3.11628   0.00034   0.00000   0.00151   0.00158   3.11786
    D7        1.04648  -0.00140   0.00000  -0.01341  -0.01345   1.03303
    D8       -3.11639  -0.00034   0.00000  -0.00147  -0.00154  -3.11792
    D9       -1.07389  -0.00245   0.00000  -0.02532  -0.02534  -1.09923
   D10       -1.04653   0.00228   0.00000   0.02508   0.02486  -1.02167
   D11        1.04644  -0.00227   0.00000  -0.02504  -0.02483   1.02161
   D12        3.14154   0.00000   0.00000   0.00003   0.00003   3.14156
   D13        3.11641   0.00153   0.00000   0.01601   0.01577   3.13218
   D14       -1.07380  -0.00302   0.00000  -0.03412  -0.03393  -1.10772
   D15        1.02130  -0.00074   0.00000  -0.00904  -0.00907   1.01223
   D16        1.07380   0.00302   0.00000   0.03409   0.03390   1.10771
   D17       -3.11641  -0.00153   0.00000  -0.01603  -0.01579  -3.13220
   D18       -1.02132   0.00074   0.00000   0.00904   0.00907  -1.01225
   D19        3.14159   0.00000   0.00000   0.00002   0.00003  -3.14157
   D20        1.02351  -0.00102   0.00000  -0.01314  -0.01335   1.01017
   D21       -1.02336   0.00102   0.00000   0.01310   0.01330  -1.01006
   D22        1.02346  -0.00104   0.00000  -0.01322  -0.01338   1.01009
   D23       -1.09461  -0.00206   0.00000  -0.02638  -0.02675  -1.12136
   D24       -3.14148  -0.00002   0.00000  -0.00014  -0.00010  -3.14159
   D25       -1.02349   0.00104   0.00000   0.01327   0.01344  -1.01005
   D26       -3.14156   0.00002   0.00000   0.00011   0.00007  -3.14149
   D27        1.09475   0.00206   0.00000   0.02635   0.02671   1.12146
   D28       -3.14154   0.00000   0.00000  -0.00004  -0.00004  -3.14158
   D29       -1.02122   0.00137   0.00000   0.01518   0.01513  -1.00610
   D30        1.02127  -0.00138   0.00000  -0.01524  -0.01518   1.00609
   D31       -1.04653   0.00249   0.00000   0.02710   0.02681  -1.01972
   D32        1.07378   0.00386   0.00000   0.04232   0.04198   1.11576
   D33        3.11628   0.00111   0.00000   0.01190   0.01167   3.12795
   D34        1.04648  -0.00248   0.00000  -0.02709  -0.02680   1.01968
   D35       -3.11639  -0.00111   0.00000  -0.01186  -0.01163  -3.12802
   D36       -1.07389  -0.00386   0.00000  -0.04228  -0.04194  -1.11583
   D37        3.14154   0.00000   0.00000   0.00002   0.00002   3.14156
   D38       -1.04653   0.00030   0.00000   0.00357   0.00362  -1.04292
   D39        1.04644  -0.00030   0.00000  -0.00353  -0.00358   1.04286
   D40        1.02130  -0.00092   0.00000  -0.01102  -0.01107   1.01023
   D41        3.11641  -0.00062   0.00000  -0.00748  -0.00748   3.10893
   D42       -1.07380  -0.00121   0.00000  -0.01458  -0.01467  -1.08847
   D43       -1.02132   0.00092   0.00000   0.01102   0.01106  -1.01025
   D44        1.07380   0.00121   0.00000   0.01456   0.01465   1.08846
   D45       -3.11641   0.00062   0.00000   0.00746   0.00746  -3.10895
         Item               Value     Threshold  Converged?
 Maximum Force            0.036885     0.000450     NO 
 RMS     Force            0.008601     0.000300     NO 
 Maximum Displacement     0.225078     0.001800     NO 
 RMS     Displacement     0.069013     0.001200     NO 
 Predicted change in Energy=-1.360449D-02
 GradGradGradGradGradGradGradGradGradGradGradGradGradGradGradGradGradGrad

                          Input orientation:                          
 ---------------------------------------------------------------------
 Center     Atomic      Atomic             Coordinates (Angstroms)
 Number     Number       Type             X           Y           Z
 ---------------------------------------------------------------------
      1          6           0       -1.744156    0.202963    0.001687
      2          6           0       -0.533403    0.138037    0.013976
      3         35           0       -3.571945    0.356039   -0.031079
      4          6           0        0.944757    0.193300    0.007542
      5          6           0        1.487674    1.633467   -0.042330
      6          1           0        1.299138   -0.382933   -0.858546
      7          1           0        1.304643   -0.323867    0.907959
      8          6           0        3.022941    1.704536   -0.049481
      9          1           0        1.093949    2.136298   -0.938672
     10          1           0        1.099413    2.195199    0.820801
     11          1           0        3.420639    1.210620    0.851268
     12          1           0        3.415137    1.151383   -0.917625
     13          6           0        3.576162    3.153686   -0.099727
     14          6           0        5.111176    3.233184   -0.107187
     15          1           0        3.184322    3.706979    0.768160
     16          1           0        3.178750    3.647817   -1.000163
     17          6           0        5.660014    4.668457   -0.156941
     18          1           0        5.499950    2.724183    0.789979
     19          1           0        5.494474    2.665237   -0.970698
     20          1           0        6.757918    4.690795   -0.161089
     21          1           0        5.316678    5.193268   -1.059160
     22          1           0        5.322163    5.252505    0.710266
 ---------------------------------------------------------------------
                    Distance matrix (angstroms):
                    1          2          3          4          5
     1  C    0.000000
     2  C    1.212555   0.000000
     3  Br   1.834480   3.046685   0.000000
     4  C    2.688937   1.479207   4.519798   0.000000
     5  C    3.534545   2.514804   5.218400   1.539911   0.000000
     6  H    3.216351   2.095450   4.995821   1.098972   2.183489
     7  H    3.223981   2.095465   5.012502   1.098968   2.183507
     8  C    4.998255   3.886583   6.731367   2.570201   1.536927
     9  H    3.560464   2.747520   5.075787   2.166292   1.100586
    10  H    3.567330   2.747540   5.092131   2.166312   1.100584
    11  H    5.330316   4.181620   7.099653   2.806564   2.171099
    12  H    5.325687   4.181594   7.087867   2.806534   2.171097
    13  C    6.084639   5.098587   7.676390   3.962282   2.583823
    14  C    7.495977   6.438625   9.147696   5.158789   3.961447
    15  H    6.095532   5.208419   7.583846   4.235579   2.799100
    16  H    6.091448   5.208370   7.572768   4.235549   2.799069
    17  C    8.647979   7.675438  10.190282   6.502902   5.160690
    18  H    7.710709   6.609969   9.411776   5.269474   4.240372
    19  H    7.707535   6.609964   9.402937   5.269473   4.240385
    20  H    9.615217   8.597769  11.203262   7.351784   6.093999
    21  H    8.711138   7.805795  10.171694   6.726903   5.326105
    22  H    8.713945   7.805784  10.179889   6.726891   5.326082
                    6          7          8          9         10
     6  H    0.000000
     7  H    1.767501   0.000000
     8  C    2.825528   2.825537   0.000000
     9  H    2.528843   3.083318   2.167507   0.000000
    10  H    3.083320   2.528915   2.167510   1.760468   0.000000
    11  H    3.156524   2.614441   1.101575   3.078028   2.521590
    12  H    2.614396   3.156470   1.101576   2.521590   3.078028
    13  C    4.274145   4.274178   1.551970   2.810745   2.810757
    14  C    5.307775   5.307808   2.588594   4.246485   4.246507
    15  H    4.788264   4.449771   2.168953   3.122495   2.575868
    16  H    4.449712   4.788265   2.168966   2.575823   3.122443
    17  C    6.710144   6.710184   3.968694   5.279383   5.279400
    18  H    5.478926   5.187016   2.807125   4.769349   4.432325
    19  H    5.186980   5.478939   2.807145   4.432316   4.769378
    20  H    7.485148   7.485179   4.783331   6.261839   6.261852
    21  H    6.875674   7.099631   4.295571   5.214501   5.505270
    22  H    7.099582   6.875717   4.295547   5.505229   5.214495
                   11         12         13         14         15
    11  H    0.000000
    12  H    1.769894   0.000000
    13  C    2.168890   2.168894   0.000000
    14  C    2.804874   2.804862   1.537089   0.000000
    15  H    2.508897   3.070214   1.101317   2.168751   0.000000
    16  H    3.070218   2.508958   1.101312   2.168777   1.769321
    17  C    4.241218   4.241217   2.576867   1.537435   2.812348
    18  H    2.572579   3.120265   2.162640   1.102332   2.515651
    19  H    3.120299   2.572588   2.162659   1.102330   3.073379
    20  H    4.926857   4.926862   3.534125   2.199840   3.821254
    21  H    4.806890   4.469085   2.847772   2.188701   3.177278
    22  H    4.469062   4.806868   2.847745   2.188699   2.638630
                   16         17         18         19         20
    16  H    0.000000
    17  C    2.812365   0.000000
    18  H    3.073382   2.168521   0.000000
    19  H    2.515732   2.168524   1.761672   0.000000
    20  H    3.821294   1.098139   2.520829   2.520842   0.000000
    21  H    2.638681   1.098774   3.090192   2.535820   1.770927
    22  H    3.177234   1.098774   2.535819   3.090192   1.770923
                   21         22
    21  H    0.000000
    22  H    1.770426   0.000000
 Stoichiometry    C8H13Br
 Framework group  C1[X(C8H13Br)]
 Deg. of freedom    60
 Full point group                 C1      NOp   1
 Largest Abelian subgroup         C1      NOp   1
 Largest concise Abelian subgroup C1      NOp   1
                         Standard orientation:                         
 ---------------------------------------------------------------------
 Center     Atomic      Atomic             Coordinates (Angstroms)
 Number     Number       Type             X           Y           Z
 ---------------------------------------------------------------------
      1          6           0        2.324858    0.387290    0.010407
      2          6           0        1.222611    0.892600    0.011484
      3         35           0        3.968492   -0.427331   -0.002947
      4          6           0       -0.172670    1.383568   -0.002577
      5          6           0       -1.206721    0.242542    0.008529
      6          1           0       -0.299587    2.010717   -0.896062
      7          1           0       -0.308510    2.036048    0.871234
      8          6           0       -2.660927    0.739755   -0.005931
      9          1           0       -1.034102   -0.408859   -0.861625
     10          1           0       -1.042998   -0.383702    0.898641
     11          1           0       -2.840469    1.384527    0.868999
     12          1           0       -2.831510    1.359251   -0.900692
     13          6           0       -3.707864   -0.405851    0.005136
     14          6           0       -5.164932    0.083424   -0.009253
     15          1           0       -3.537667   -1.025357    0.899643
     16          1           0       -3.528664   -1.050703   -0.869473
     17          6           0       -6.202694   -1.050876    0.001711
     18          1           0       -5.330674    0.738777    0.861481
     19          1           0       -5.321762    0.713604   -0.899989
     20          1           0       -7.232166   -0.668799   -0.008942
     21          1           0       -6.085071   -1.704463   -0.873671
     22          1           0       -6.094010   -1.679169    0.896552
 ---------------------------------------------------------------------
 Rotational constants (GHZ):      4.9500651      0.1959640      0.1898388
 Standard basis: 6-31G (6D, 7F)
 There are   122 symmetry adapted cartesian basis functions of A   symmetry.
 There are   122 symmetry adapted basis functions of A   symmetry.
   122 basis functions,   305 primitive gaussians,   122 cartesian basis functions
    48 alpha electrons       48 beta electrons
       nuclear repulsion energy       556.8782733941 Hartrees.
 NAtoms=   22 NActive=   22 NUniq=   22 SFac= 1.00D+00 NAtFMM=   60 NAOKFM=F Big=F
 Integral buffers will be    131072 words long.
 Raffenetti 2 integral format.
 Two-electron integral symmetry is turned on.
 Nuclear repulsion after empirical dispersion term =      556.8628867093 Hartrees.
 One-electron integrals computed using PRISM.
 NBasis=   122 RedAO= T EigKep=  4.78D-04  NBF=   122
 NBsUse=   122 1.00D-06 EigRej= -1.00D+00 NBFU=   122
 Initial guess from the checkpoint file:  "E:\PROJECT- VIT group\ML\Substrates\molecule_20.chk"
 B after Tr=     0.000000    0.000000    0.000000
         Rot=    0.999994    0.002273    0.000028    0.002712 Ang=   0.41 deg.
 ExpMin= 1.43D-01 ExpMax= 5.74D+05 ExpMxC= 5.74D+03 IAcc=2 IRadAn=         4 AccDes= 0.00D+00
 Harris functional with IExCor=  402 and IRadAn=       4 diagonalized for initial guess.
 HarFok:  IExCor=  402 AccDes= 0.00D+00 IRadAn=         4 IDoV= 1 UseB2=F ITyADJ=14
 ICtDFT=  3500011 ScaDFX=  1.000000  1.000000  1.000000  1.000000
 FoFCou: FMM=F IPFlag=           0 FMFlag=      100000 FMFlg1=           0
         NFxFlg=           0 DoJE=T BraDBF=F KetDBF=T FulRan=T
         wScrn=  0.000000 ICntrl=     500 IOpCl=  0 I1Cent=   200000004 NGrid=           0
         NMat0=    1 NMatS0=      1 NMatT0=    0 NMatD0=    1 NMtDS0=    0 NMtDT0=    0
 Petite list used in FoFCou.
 Keep R1 ints in memory in canonical form, NReq=29303964.
 Requested convergence on RMS density matrix=1.00D-08 within 128 cycles.
 Requested convergence on MAX density matrix=1.00D-06.
 Requested convergence on             energy=1.00D-06.
 No special actions if energy rises.
 Integral accuracy reduced to 1.0D-05 until final iterations.
 Initial convergence to 1.0D-05 achieved.  Increase integral accuracy.
 SCF Done:  E(RB3LYP) =  -2884.12493156     A.U. after   14 cycles
            NFock= 14  Conv=0.39D-08     -V/T= 2.0044
 Calling FoFJK, ICntrl=      2127 FMM=F ISym2X=0 I1Cent= 0 IOpClX= 0 NMat=1 NMatS=1 NMatT=0.
 ***** Axes restored to original set *****
 -------------------------------------------------------------------
 Center     Atomic                   Forces (Hartrees/Bohr)
 Number     Number              X              Y              Z
 -------------------------------------------------------------------
      1        6           0.001637033   -0.000406338   -0.000108160
      2        6           0.005588937    0.006774199   -0.000999533
      3       35          -0.000699726   -0.001216284    0.000314747
      4        6          -0.013822124   -0.008100769    0.000922535
      5        6           0.000607728    0.007218449   -0.000214941
      6        1           0.003662130    0.000748555    0.000639269
      7        1           0.003854926    0.000734037   -0.000738243
      8        6           0.006102339    0.002309158   -0.000105109
      9        1           0.000085075   -0.000999682    0.000937938
     10        1           0.000094251   -0.001057507   -0.000873893
     11        1          -0.000411767   -0.001051837   -0.000983753
     12        1          -0.000404970   -0.000974394    0.001052002
     13        6          -0.006287237   -0.002529041    0.000114682
     14        6           0.003148959   -0.004134792    0.000119916
     15        1           0.000273763    0.001040294   -0.001022205
     16        1           0.000278590    0.001117571    0.000943381
     17        6          -0.001314191    0.002702634   -0.000078188
     18        1          -0.000334141    0.000467505   -0.001053644
     19        1          -0.000332373    0.000546698    0.001022566
     20        1          -0.001307573   -0.001630212    0.000059147
     21        1          -0.000206158   -0.000756498    0.000455370
     22        1          -0.000213471   -0.000801746   -0.000403886
 -------------------------------------------------------------------
 Cartesian Forces:  Max     0.013822124 RMS     0.002937750

 GradGradGradGradGradGradGradGradGradGradGradGradGradGradGradGradGradGrad
 Berny optimization.
 Using GEDIIS/GDIIS optimizer.
 FormGI is forming the generalized inverse of G from B-inverse, IUseBI=4.
 Internal  Forces:  Max     0.007914002 RMS     0.001798931
 Search for a local minimum.
 Step number   2 out of a maximum of  116
 All quantities printed in internal units (Hartrees-Bohrs-Radians)
 Mixed Optimization -- RFO/linear search
 Update second derivatives using D2CorX and points    1    2
 DE= -1.17D-02 DEPred=-1.36D-02 R= 8.63D-01
 TightC=F SS=  1.41D+00  RLast= 3.24D-01 DXNew= 5.0454D-01 9.7079D-01
 Trust test= 8.63D-01 RLast= 3.24D-01 DXMaxT set to 5.05D-01
 ITU=  1  0
 Use linear search instead of GDIIS.
     Eigenvalues ---    0.00230   0.00231   0.00237   0.00237   0.00253
     Eigenvalues ---    0.00671   0.00671   0.00672   0.00672   0.03511
     Eigenvalues ---    0.03539   0.03652   0.03706   0.04890   0.04930
     Eigenvalues ---    0.05028   0.05126   0.05526   0.05589   0.05702
     Eigenvalues ---    0.06005   0.08474   0.08545   0.08601   0.08702
     Eigenvalues ---    0.12321   0.12358   0.12365   0.12435   0.15897
     Eigenvalues ---    0.16000   0.16000   0.16000   0.16094   0.18092
     Eigenvalues ---    0.21873   0.21918   0.21945   0.22193   0.23667
     Eigenvalues ---    0.26598   0.29010   0.31155   0.31326   0.31326
     Eigenvalues ---    0.31326   0.31580   0.31639   0.31641   0.31788
     Eigenvalues ---    0.31862   0.31879   0.31879   0.31879   0.31880
     Eigenvalues ---    0.31881   0.31882   0.31901   0.33864   1.07213
 RFO step:  Lambda=-8.56300692D-03 EMin= 2.29977502D-03
 Quartic linear search produced a step of -0.04287.
 Maximum step size (   0.505) exceeded in Quadratic search.
    -- Step size scaled by   0.620
 Iteration  1 RMS(Cart)=  0.10205430 RMS(Int)=  0.03419366
 Iteration  2 RMS(Cart)=  0.11446332 RMS(Int)=  0.01869196
 Iteration  3 RMS(Cart)=  0.07182938 RMS(Int)=  0.00380678
 Iteration  4 RMS(Cart)=  0.00526232 RMS(Int)=  0.00003964
 Iteration  5 RMS(Cart)=  0.00001487 RMS(Int)=  0.00003803
 Iteration  6 RMS(Cart)=  0.00000000 RMS(Int)=  0.00003803
 Variable       Old X    -DE/DX   Delta X   Delta X   Delta X     New X
                                 (Linear)    (Quad)   (Total)
    R1        2.29140  -0.00102  -0.00142   0.00921   0.00779   2.29918
    R2        3.46667   0.00059   0.00612  -0.03898  -0.03286   3.43380
    R3        2.79530  -0.00671   0.00492  -0.04704  -0.04211   2.75318
    R4        2.91001   0.00129  -0.00265   0.02039   0.01773   2.92774
    R5        2.07676   0.00028   0.00145  -0.00933  -0.00788   2.06888
    R6        2.07675   0.00031   0.00145  -0.00927  -0.00782   2.06893
    R7        2.90437  -0.00118  -0.00241   0.01420   0.01178   2.91616
    R8        2.07981  -0.00126   0.00176  -0.01431  -0.01255   2.06726
    R9        2.07980  -0.00126   0.00176  -0.01430  -0.01254   2.06726
   R10        2.08167  -0.00048   0.00124  -0.00931  -0.00807   2.07361
   R11        2.08168  -0.00049   0.00124  -0.00932  -0.00808   2.07360
   R12        2.93280  -0.00596  -0.00097  -0.00562  -0.00659   2.92621
   R13        2.90468  -0.00074  -0.00243   0.01508   0.01265   2.91733
   R14        2.08119  -0.00038   0.00126  -0.00926  -0.00800   2.07319
   R15        2.08118  -0.00037   0.00126  -0.00923  -0.00797   2.07320
   R16        2.90533  -0.00154  -0.00246   0.01380   0.01135   2.91668
   R17        2.08311  -0.00119   0.00162  -0.01322  -0.01160   2.07151
   R18        2.08310  -0.00120   0.00162  -0.01323  -0.01161   2.07149
   R19        2.07518  -0.00134   0.00149  -0.01259  -0.01110   2.06408
   R20        2.07638  -0.00067   0.00147  -0.01120  -0.00973   2.06666
   R21        2.07638  -0.00068   0.00147  -0.01122  -0.00975   2.06663
    A1        1.96860  -0.00200  -0.00177   0.00993   0.00820   1.97680
    A2        1.88186   0.00336   0.00045   0.01251   0.01299   1.89486
    A3        1.88189   0.00357   0.00045   0.01382   0.01430   1.89619
    A4        1.92961  -0.00246   0.00005  -0.01167  -0.01173   1.91788
    A5        1.92964  -0.00260   0.00006  -0.01184  -0.01190   1.91774
    A6        1.86853   0.00051   0.00087  -0.01285  -0.01225   1.85628
    A7        1.97750  -0.00395  -0.00112  -0.00405  -0.00516   1.97233
    A8        1.90449   0.00084   0.00026  -0.00141  -0.00114   1.90335
    A9        1.90452   0.00086   0.00026  -0.00131  -0.00103   1.90348
   A10        1.90968   0.00149   0.00004   0.00414   0.00417   1.91386
   A11        1.90969   0.00149   0.00004   0.00421   0.00424   1.91393
   A12        1.85388  -0.00051   0.00060  -0.00145  -0.00086   1.85303
   A13        1.91357   0.00071   0.00074  -0.00508  -0.00435   1.90922
   A14        1.91356   0.00071   0.00074  -0.00509  -0.00436   1.90921
   A15        1.98167  -0.00389  -0.00232   0.00547   0.00315   1.98482
   A16        1.86579  -0.00115   0.00099  -0.01012  -0.00916   1.85663
   A17        1.89278   0.00189  -0.00002   0.00705   0.00704   1.89981
   A18        1.89278   0.00188  -0.00002   0.00701   0.00699   1.89978
   A19        1.98716  -0.00409  -0.00256   0.00657   0.00401   1.99117
   A20        1.89312   0.00191  -0.00004   0.00704   0.00701   1.90013
   A21        1.89314   0.00192  -0.00003   0.00706   0.00702   1.90016
   A22        1.91044   0.00082   0.00088  -0.00551  -0.00464   1.90580
   A23        1.91048   0.00082   0.00088  -0.00555  -0.00468   1.90580
   A24        1.86555  -0.00122   0.00100  -0.01054  -0.00957   1.85598
   A25        1.98771  -0.00407  -0.00156  -0.00113  -0.00268   1.98503
   A26        1.90115   0.00127   0.00040   0.00018   0.00060   1.90175
   A27        1.90118   0.00127   0.00041   0.00020   0.00061   1.90179
   A28        1.90869   0.00122   0.00009   0.00206   0.00215   1.91084
   A29        1.90870   0.00122   0.00009   0.00207   0.00216   1.91085
   A30        1.85148  -0.00069   0.00071  -0.00359  -0.00288   1.84860
   A31        1.95629  -0.00204  -0.00123   0.00055  -0.00068   1.95561
   A32        1.94005  -0.00032  -0.00039   0.00163   0.00124   1.94129
   A33        1.94005  -0.00034  -0.00039   0.00156   0.00117   1.94122
   A34        1.87506   0.00120   0.00074  -0.00104  -0.00029   1.87477
   A35        1.87505   0.00121   0.00074  -0.00101  -0.00026   1.87479
   A36        1.87350   0.00049   0.00066  -0.00196  -0.00130   1.87220
   A37        3.11113   0.00447   0.00131   0.24304   0.24435   3.35548
   A38        3.05326   0.00791   0.00379   0.42328   0.42707   3.48033
   A39        3.15001  -0.00054  -0.00036  -0.02885  -0.02921   3.12080
   A40        3.10947   0.00163   0.00138   0.08554   0.08692   3.19639
    D1       -3.14158   0.00006   0.00000   0.00075   0.00075  -3.14084
    D2       -1.00935  -0.00010  -0.00051   0.00228   0.00177  -1.00758
    D3        1.00934   0.00022   0.00051  -0.00095  -0.00044   1.00890
    D4       -1.03307   0.00126  -0.00058   0.01532   0.01466  -1.01841
    D5        1.09917   0.00109  -0.00109   0.01685   0.01568   1.11485
    D6        3.11786   0.00141  -0.00007   0.01363   0.01347   3.13133
    D7        1.03303  -0.00130   0.00058  -0.01538  -0.01472   1.01831
    D8       -3.11792  -0.00146   0.00007  -0.01385  -0.01370  -3.13162
    D9       -1.09923  -0.00114   0.00109  -0.01708  -0.01591  -1.11514
   D10       -1.02167   0.00027  -0.00107   0.00902   0.00794  -1.01373
   D11        1.02161  -0.00029   0.00106  -0.00917  -0.00810   1.01351
   D12        3.14156  -0.00001   0.00000  -0.00011  -0.00011   3.14146
   D13        3.13218   0.00081  -0.00068   0.01059   0.00991  -3.14109
   D14       -1.10772   0.00025   0.00145  -0.00760  -0.00613  -1.11385
   D15        1.01223   0.00053   0.00039   0.00147   0.00186   1.01409
   D16        1.10771  -0.00025  -0.00145   0.00763   0.00616   1.11386
   D17       -3.13220  -0.00081   0.00068  -0.01056  -0.00989   3.14110
   D18       -1.01225  -0.00053  -0.00039  -0.00150  -0.00189  -1.01414
   D19       -3.14157   0.00000   0.00000   0.00007   0.00007  -3.14151
   D20        1.01017   0.00030   0.00057  -0.00243  -0.00186   1.00831
   D21       -1.01006  -0.00030  -0.00057   0.00252   0.00194  -1.00812
   D22        1.01009   0.00033   0.00057  -0.00219  -0.00161   1.00847
   D23       -1.12136   0.00062   0.00115  -0.00469  -0.00354  -1.12490
   D24       -3.14159   0.00003   0.00000   0.00026   0.00027  -3.14132
   D25       -1.01005  -0.00032  -0.00058   0.00228   0.00171  -1.00834
   D26       -3.14149  -0.00003   0.00000  -0.00022  -0.00022   3.14147
   D27        1.12146  -0.00062  -0.00115   0.00473   0.00358   1.12505
   D28       -3.14158   0.00000   0.00000   0.00003   0.00003  -3.14155
   D29       -1.00610  -0.00028  -0.00065   0.00205   0.00141  -1.00469
   D30        1.00609   0.00028   0.00065  -0.00201  -0.00136   1.00473
   D31       -1.01972   0.00027  -0.00115   0.00958   0.00842  -1.01130
   D32        1.11576  -0.00001  -0.00180   0.01160   0.00980   1.12556
   D33        3.12795   0.00054  -0.00050   0.00754   0.00703   3.13498
   D34        1.01968  -0.00026   0.00115  -0.00950  -0.00834   1.01134
   D35       -3.12802  -0.00054   0.00050  -0.00748  -0.00697  -3.13499
   D36       -1.11583   0.00001   0.00180  -0.01154  -0.00974  -1.12557
   D37        3.14156   0.00000   0.00000  -0.00006  -0.00006   3.14150
   D38       -1.04292  -0.00009  -0.00015   0.00013  -0.00003  -1.04295
   D39        1.04286   0.00009   0.00015  -0.00022  -0.00007   1.04279
   D40        1.01023   0.00027   0.00047  -0.00104  -0.00057   1.00966
   D41        3.10893   0.00018   0.00032  -0.00086  -0.00054   3.10839
   D42       -1.08847   0.00036   0.00063  -0.00121  -0.00058  -1.08905
   D43       -1.01025  -0.00027  -0.00047   0.00095   0.00047  -1.00978
   D44        1.08846  -0.00036  -0.00063   0.00113   0.00050   1.08896
   D45       -3.10895  -0.00018  -0.00032   0.00078   0.00046  -3.10849
         Item               Value     Threshold  Converged?
 Maximum Force            0.007914     0.000450     NO 
 RMS     Force            0.001799     0.000300     NO 
 Maximum Displacement     2.153612     0.001800     NO 
 RMS     Displacement     0.274662     0.001200     NO 
 Predicted change in Energy=-4.793097D-03
 GradGradGradGradGradGradGradGradGradGradGradGradGradGradGradGradGradGrad

                          Input orientation:                          
 ---------------------------------------------------------------------
 Center     Atomic      Atomic             Coordinates (Angstroms)
 Number     Number       Type             X           Y           Z
 ---------------------------------------------------------------------
      1          6           0       -1.822007    0.065350    0.001391
      2          6           0       -0.665845    0.426769   -0.112476
      3         35           0       -3.391352   -0.783603    0.345273
      4          6           0        0.790195    0.406383   -0.066034
      5          6           0        1.423843    1.819274   -0.116444
      6          1           0        1.157264   -0.196459   -0.902954
      7          1           0        1.104054   -0.110012    0.846919
      8          6           0        2.965981    1.790737   -0.067988
      9          1           0        1.093646    2.326451   -1.027741
     10          1           0        1.040292    2.412835    0.718598
     11          1           0        3.292336    1.280813    0.847189
     12          1           0        3.345834    1.194040   -0.906879
     13          6           0        3.616889    3.194893   -0.117634
     14          6           0        5.159816    3.176125   -0.069757
     15          1           0        3.237234    3.791809    0.720906
     16          1           0        3.290585    3.705131   -1.032399
     17          6           0        5.799995    4.579653   -0.119639
     18          1           0        5.481639    2.659681    0.842031
     19          1           0        5.534837    2.573313   -0.904983
     20          1           0        6.890741    4.534302   -0.084116
     21          1           0        5.524041    5.108392   -1.036321
     22          1           0        5.470374    5.195277    0.721998
 ---------------------------------------------------------------------
                    Distance matrix (angstroms):
                    1          2          3          4          5
     1  C    0.000000
     2  C    1.216676   0.000000
     3  Br   1.817091   3.017105   0.000000
     4  C    2.635232   1.456923   4.366986   0.000000
     5  C    3.691298   2.511151   5.493110   1.549295   0.000000
     6  H    3.124491   2.082546   4.753180   1.094803   2.180101
     7  H    3.050819   2.083533   4.573187   1.094830   2.180018
     8  C    5.089853   3.879762   6.871223   2.578854   1.543163
     9  H    3.830499   2.746326   5.627860   2.168784   1.093947
    10  H    3.770654   2.747007   5.476866   2.168882   1.093948
    11  H    5.324399   4.161435   7.013231   2.803447   2.170206
    12  H    5.367073   4.160931   7.132225   2.803340   2.170197
    13  C    6.276129   5.099445   8.072060   3.970976   2.588779
    14  C    7.643810   6.441980   9.432612   5.173497   3.975011
    15  H    6.324564   5.220348   8.063104   4.250692   2.807211
    16  H    6.360450   5.219890   8.166700   4.250594   2.807161
    17  C    8.859374   7.684633  10.651832   6.520519   5.174013
    18  H    7.796183   6.609730   9.530631   5.283141   4.253312
    19  H    7.825251   6.609401   9.618153   5.283091   4.253309
    20  H    9.792386   8.600850  11.583865   7.365916   6.104047
    21  H    8.970705   7.815739  10.775372   6.742377   5.336300
    22  H    8.945068   7.815893  10.696687   6.742298   5.336178
                    6          7          8          9         10
     6  H    0.000000
     7  H    1.752815   0.000000
     8  C    2.813818   2.813659   0.000000
     9  H    2.526795   3.074216   2.171118   0.000000
    10  H    3.074334   2.526913   2.171175   1.749288   0.000000
    11  H    3.131112   2.592869   1.097306   3.072940   2.523828
    12  H    2.592940   3.130804   1.097303   2.523750   3.072973
    13  C    4.262364   4.262288   1.548483   2.819440   2.819530
    14  C    5.299901   5.299830   2.594651   4.263029   4.263167
    15  H    4.782204   4.448656   2.167999   3.130497   2.593863
    16  H    4.448619   4.782056   2.168031   2.593708   3.130469
    17  C    6.706697   6.706643   3.976475   5.296347   5.296462
    18  H    5.468338   5.180200   2.812780   4.781377   4.449913
    19  H    5.180230   5.468202   2.812829   4.449740   4.781496
    20  H    7.478191   7.478117   4.788648   6.274659   6.274769
    21  H    6.872261   7.093280   4.299787   5.231412   5.518131
    22  H    7.093250   6.872150   4.299645   5.517925   5.231407
                   11         12         13         14         15
    11  H    0.000000
    12  H    1.757028   0.000000
    13  C    2.167930   2.167900   0.000000
    14  C    2.814335   2.814243   1.543783   0.000000
    15  H    2.514773   3.067553   1.097085   2.168072   0.000000
    16  H    3.067600   2.514833   1.097093   2.168075   1.756256
    17  C    4.255051   4.255001   2.585250   1.543441   2.809797
    18  H    2.587344   3.125452   2.164417   1.096195   2.516692
    19  H    3.125617   2.587302   2.164441   1.096187   3.067120
    20  H    4.939741   4.939702   3.537407   2.200217   3.814115
    21  H    4.814404   4.481461   2.853541   2.191018   3.170288
    22  H    4.481356   4.814230   2.853406   2.190958   2.637544
                   16         17         18         19         20
    16  H    0.000000
    17  C    2.809815   0.000000
    18  H    3.067111   2.170819   0.000000
    19  H    2.516726   2.170824   1.749957   0.000000
    20  H    3.814169   1.092266   2.521413   2.521463   0.000000
    21  H    2.637704   1.093627   3.086453   2.538501   1.761857
    22  H    3.170161   1.093616   2.538461   3.086408   1.761860
                   21         22
    21  H    0.000000
    22  H    1.761282   0.000000
 Stoichiometry    C8H13Br
 Framework group  C1[X(C8H13Br)]
 Deg. of freedom    60
 Full point group                 C1      NOp   1
 Largest Abelian subgroup         C1      NOp   1
 Largest concise Abelian subgroup C1      NOp   1
                         Standard orientation:                         
 ---------------------------------------------------------------------
 Center     Atomic      Atomic             Coordinates (Angstroms)
 Number     Number       Type             X           Y           Z
 ---------------------------------------------------------------------
      1          6           0        2.349522   -0.126895   -0.188254
      2          6           0        1.154391    0.097206   -0.229979
      3         35           0        4.147509   -0.129601    0.074524
      4          6           0       -0.120313    0.784371   -0.070109
      5          6           0       -1.341255   -0.166747   -0.140743
      6          1           0       -0.201652    1.552988   -0.845484
      7          1           0       -0.115153    1.312943    0.888660
      8          6           0       -2.688130    0.567244    0.028193
      9          1           0       -1.327607   -0.694859   -1.098674
     10          1           0       -1.241114   -0.934633    0.631944
     11          1           0       -2.696924    1.095699    0.989827
     12          1           0       -2.783716    1.336498   -0.748457
     13          6           0       -3.920211   -0.368243   -0.039915
     14          6           0       -5.272363    0.357530    0.128025
     15          1           0       -3.824916   -1.137570    0.736390
     16          1           0       -3.911587   -0.896983   -1.001149
     17          6           0       -6.494685   -0.582342    0.058883
     18          1           0       -5.274269    0.889919    1.086253
     19          1           0       -5.360664    1.129660   -0.645049
     20          1           0       -7.435529   -0.041064    0.180853
     21          1           0       -6.539258   -1.104004   -0.901275
     22          1           0       -6.452175   -1.345318    0.841223
 ---------------------------------------------------------------------
 Rotational constants (GHZ):     10.6107002      0.1809411      0.1793553
 Standard basis: 6-31G (6D, 7F)
 There are   122 symmetry adapted cartesian basis functions of A   symmetry.
 There are   122 symmetry adapted basis functions of A   symmetry.
[...]
 68,0.00000519,-0.00001905,0.00011212,0.04252525,-0.11093162,-0.0968538
 4,0.00032368,-0.00022376,-0.00007619,-0.00033320,0.00045111,0.00017670
 ,-0.00485415,0.00758955,0.01292364,-0.04427343,0.12613892,-0.00002879,
 -0.00001156,-0.00003060,-0.00011888,0.00036862,0.00023525,0.00000270,-
 0.00002440,-0.00000898,0.00002469,0.00009730,0.00000465,-0.00122221,-0
 .00044196,-0.00027099,0.00040877,0.00057297,0.00024719,0.00007258,-0.0
 0015368,-0.00007974,0.06433464,-0.09734320,-0.20647703,0.00041486,0.00
 016807,0.00095646,-0.00037355,0.00015303,0.00166395,0.00985899,-0.0149
 1440,-0.02350226,-0.07281535,0.10968789,0.22367874,-0.00041545,0.00008
 676,-0.00000215,0.00004817,-0.00192518,0.00006240,-0.00025743,0.000091
 19,-0.00000246,-0.00627159,0.00102101,-0.00002432,-0.01699646,-0.03649
 114,0.00119972,0.00003351,0.00007527,-0.00031745,0.00003469,0.00009477
 ,0.00031269,-0.08889539,-0.02738859,0.00089314,0.00113459,-0.00051134,
 0.00005070,0.00113715,-0.00051088,-0.00002091,0.00314833,0.00941594,-0
 .00106872,0.00312097,0.00938134,0.00045272,0.47892504,0.00022861,-0.00
 001001,-0.00000226,0.00029929,0.00078347,-0.00000700,0.00022435,-0.000
 05530,0.00000083,0.00231245,0.00055466,-0.00004353,-0.00559475,-0.0016
 4976,0.00006038,-0.00010623,-0.00008139,0.00013231,-0.00010177,-0.0001
 0804,-0.00010855,-0.02734168,-0.16815909,0.00283306,0.00140137,0.00068
 279,-0.00001326,0.00146489,0.00073102,-0.00004081,-0.00720600,-0.01852
 603,-0.00033591,-0.00784504,-0.02029523,0.00158335,-0.03648280,0.50613
 642,-0.00000694,-0.00000202,-0.00006702,-0.00000884,-0.00000397,0.0005
 7427,-0.00000687,0.00000116,-0.00001571,-0.00006655,-0.00004140,-0.000
 69192,0.00020505,0.00010555,-0.00003708,-0.00006917,0.00030577,0.00025
 787,0.00007688,-0.00028257,0.00028325,0.00089207,0.00283350,-0.0815740
 5,-0.00103008,-0.00078365,-0.00004168,0.00093412,0.00073530,-0.0000927
 5,0.01019998,0.02896586,-0.00131159,-0.00972486,-0.02776803,0.00048342
 ,0.00133824,0.00275950,0.59002411,0.00007964,-0.00001295,0.00000024,-0
 .00011001,0.00007653,-0.00000222,0.00006250,-0.00000626,0.00000009,0.0
 0028856,0.00049146,-0.00001537,0.00049352,-0.00035624,0.00000969,-0.00
 001762,-0.00005143,-0.00001030,-0.00001763,-0.00005090,0.00001358,-0.0
 1646137,-0.00521240,0.00019213,-0.00007602,-0.00008259,0.00004735,-0.0
 0007695,-0.00008504,-0.00004086,0.00100394,0.00147659,-0.00014035,0.00
 100088,0.00148038,0.00004183,-0.17645092,0.00593636,-0.00005436,0.4723
 8523,-0.00017119,0.00001214,-0.00000075,-0.00011210,-0.00074286,0.0000
 2461,-0.00016258,0.00003889,-0.00000081,-0.00206254,0.00043452,0.00000
 772,-0.00039374,-0.00660918,0.00018950,0.00004895,0.00010574,-0.000076
 81,0.00004830,0.00010579,0.00006830,-0.03686254,-0.00185864,0.00011381
 ,0.00000913,0.00006586,-0.00037507,-0.00000579,0.00009975,0.00038848,-
 0.00046849,0.00077983,-0.00009509,-0.00053845,0.00073870,0.00004164,0.
 00539196,-0.08050242,-0.00006919,-0.03655633,0.51120659,0.00000537,-0.
 00000099,-0.00001916,0.00000380,0.00002441,0.00001790,0.00000516,-0.00
 000113,0.00000361,0.00006693,0.00000387,0.00057802,0.00001076,0.000189
 71,-0.00074835,0.00001217,0.00006835,-0.00002416,-0.00001534,-0.000076
 55,-0.00002414,0.00121202,0.00006774,-0.00000191,0.00024852,-0.0001371
 9,0.00030780,-0.00024752,0.00015075,0.00027474,0.00109955,0.00067588,-
 0.00011446,-0.00107032,-0.00073519,-0.00007041,-0.00003646,-0.00006974
 ,-0.08240332,0.00135668,0.00268408,0.59272232,0.00000097,-0.00000445,-
 0.00000640,-0.00004524,0.00008138,0.00004647,0.00001067,-0.00000420,-0
 .00000064,0.00012578,-0.00005815,-0.00004942,0.00093840,-0.00058289,-0
 .00104830,-0.00009733,0.00007618,0.00009929,0.00000806,0.00002685,-0.0
 0001681,0.00298862,-0.00802387,-0.00980914,-0.00003839,-0.00002592,-0.
 00008745,-0.00011466,-0.00005017,0.00032933,0.00016492,0.00071782,0.00
 021920,-0.00060090,-0.00249394,0.00010419,-0.07545974,0.04266706,0.064
 32771,-0.01617227,0.01737303,0.02943665,0.08833609,-0.00003156,0.00000
 577,0.00001030,-0.00008968,0.00003944,0.00009936,-0.00002173,-0.000005
 70,-0.00000909,0.00004897,0.00008211,0.00029036,0.00143938,0.00064908,
 -0.00075044,0.00008151,0.00031455,0.00016007,0.00004952,-0.00005132,-0
 .00002763,0.00927799,-0.02027657,-0.02754730,-0.00007524,-0.00001442,0
 .00009411,-0.00115412,0.00023084,0.00057398,0.00068422,0.00082220,0.00
 036804,-0.00246523,-0.00547672,0.00055399,0.04243888,-0.11172656,-0.09
 730943,-0.00049496,-0.00038425,-0.00053660,-0.04434972,0.12680318,-0.0
 0002817,0.00001545,0.00000105,-0.00003660,-0.00010361,0.00000326,-0.00
 002509,0.00000043,-0.00000052,-0.00031741,0.00016425,0.00028210,0.0000
 0623,0.00000559,-0.00005194,0.00010259,0.00017394,-0.00002547,0.000015
 60,0.00001897,-0.00001472,0.00043409,0.00179474,0.00057342,0.00010003,
 -0.00009555,-0.00003276,-0.00068316,-0.00018081,0.00029649,-0.00028190
 ,-0.00037423,0.00099511,0.00010510,0.00061811,0.00164259,0.06436404,-0
 .09796521,-0.20676564,-0.00131661,-0.00050628,-0.00044153,-0.07272142,
 0.11010040,0.22389479,0.00000109,-0.00000408,0.00000666,-0.00004527,0.
 00007852,-0.00005140,0.00001075,-0.00000415,0.00000087,0.00012684,-0.0
 0005539,0.00005347,0.00094161,-0.00051439,0.00108101,0.00000802,0.0000
 2780,0.00001497,-0.00009798,0.00006914,-0.00010372,0.00301600,-0.00737
 946,0.01029601,-0.00011372,-0.00007048,-0.00032417,-0.00003848,-0.0000
 2006,0.00008891,-0.00060106,-0.00249625,0.00006327,0.00016502,0.000703
 37,-0.00026255,-0.07584673,0.03870045,-0.06735059,-0.01625580,0.015444
 17,-0.03044844,0.00380531,-0.00482435,0.00987814,0.08877198,-0.0000297
 0,0.00000409,-0.00001038,-0.00008743,0.00003961,-0.00010146,-0.0000200
 3,-0.00000511,0.00000947,0.00006854,0.00005370,-0.00027579,0.00143829,
 0.00069372,0.00069808,0.00004846,-0.00005069,0.00002971,0.00007416,0.0
 0029174,-0.00018069,0.00931312,-0.01853556,0.02875232,-0.00110928,0.00
 020627,-0.00056498,-0.00008173,-0.00001438,-0.00009511,-0.00246762,-0.
 00552183,-0.00008466,0.00069998,0.00082317,-0.00035898,0.03846761,-0.0
 9958170,0.09028741,-0.00040640,-0.00031899,0.00053261,-0.00549368,0.00
 767056,-0.01493363,-0.03987331,0.11306527,0.00003014,-0.00001561,0.000
 00261,0.00004247,0.00010100,0.00000319,0.00002638,-0.00000013,-0.00000
 121,0.00031415,-0.00014947,0.00030945,-0.00010209,-0.00005215,-0.00009
 994,-0.00001882,-0.00001666,-0.00001543,-0.00010737,-0.00019462,-0.000
 00200,-0.00104301,-0.00054025,-0.00119489,0.00075743,0.00018677,0.0003
 2045,-0.00009501,0.00009435,-0.00003262,0.00006048,-0.00014863,0.00168
 804,0.00023971,0.00038321,0.00099411,-0.06737162,0.09094261,-0.2185278
 9,0.00139156,0.00045303,-0.00042339,-0.00962540,0.01293717,-0.02350347
 ,0.07585055,-0.10283944,0.23720033,-0.00006481,0.00001836,-0.00000051,
 -0.00001653,-0.00029543,0.00000950,-0.00007981,0.00001374,-0.00000028,
 -0.00072229,0.00011423,-0.00000264,0.00017970,-0.00209043,0.00006795,0
 .00001218,0.00003026,-0.00002454,0.00001223,0.00003180,0.00002252,-0.0
 0645804,0.00178693,-0.00004890,0.00006602,0.00003585,-0.00009049,0.000
 06603,0.00004159,0.00008771,0.00004658,-0.00003899,0.00036500,0.000045
 42,-0.00006139,-0.00036098,-0.01740284,-0.03723461,0.00122676,-0.09282
 058,-0.03066135,0.00100434,0.00130027,-0.00062798,-0.00012173,0.001298
 83,-0.00062170,0.00015884,0.56758248,0.00003510,-0.00001063,0.00000002
 ,-0.00000918,0.00009537,-0.00000307,0.00004077,-0.00000396,0.00000012,
 0.00017987,0.00000156,-0.00000099,0.00037579,0.00054513,0.00000149,0.0
 0000084,-0.00000291,0.00000137,0.00000031,-0.00000287,-0.00000092,0.00
 150139,0.00026096,-0.00002917,-0.00005517,-0.00001315,0.00001483,-0.00
 006027,-0.00001391,-0.00001565,-0.00008193,0.00001370,-0.00015942,-0.0
 0008370,0.00004642,0.00017808,-0.00507723,-0.00277874,0.00011504,-0.03
 272061,-0.17240950,0.00295646,0.00120553,0.00076016,0.00013509,0.00115
 459,0.00069417,-0.00018135,-0.03384569,0.47807107,-0.00000105,0.000000
 06,-0.00000805,0.00000032,-0.00000268,-0.00000114,-0.00000119,0.000000
 17,0.00000207,-0.00000477,-0.00000089,-0.00002090,-0.00001150,0.000005
 04,0.00060701,0.00000830,-0.00000176,0.00000424,-0.00000835,0.00000211
 ,0.00000413,-0.00003989,-0.00002961,-0.00057549,0.00008032,-0.00000404
 ,-0.00002912,-0.00007690,0.00000296,-0.00002840,0.00003789,-0.00032868
 ,0.00033100,-0.00003173,0.00034725,0.00029950,0.00019014,0.00016223,0.
 00054624,0.00107162,0.00295440,-0.08233028,0.00073824,0.00084051,0.000
 02972,-0.00081796,-0.00088156,0.00009754,0.00109498,0.00299243,0.56916
 988,-0.00000205,-0.00000372,0.00000485,0.00002272,0.00001514,0.0000032
 2,0.00000127,0.00000129,-0.00000184,0.00003421,-0.00008225,0.00008305,
 -0.00001856,0.00004224,0.00026476,-0.00000366,0.00000093,0.00000071,-0
 .00002775,-0.00006590,0.00001646,0.00109121,0.00140885,-0.00107587,0.0
 0031699,-0.00005322,0.00020227,-0.00000766,0.00004552,-0.00002366,-0.0
 0013623,-0.00114044,0.00076362,-0.00004218,-0.00008014,0.00008778,-0.0
 1647289,0.01548318,-0.03056757,-0.07648880,0.03921001,-0.06758888,0.00
 123187,0.00030847,0.00041831,-0.00661291,-0.00034102,0.00037063,0.0039
 8862,-0.00798873,0.01106704,0.08901254,0.00000778,-0.00000447,-0.00000
 318,0.00000487,0.00002742,0.00000069,0.00000989,-0.00000069,0.00000099
 ,0.00004322,-0.00000869,-0.00000193,-0.00008030,0.00010012,-0.00015315
 ,-0.00000320,-0.00000238,-0.00000320,-0.00000064,-0.00000048,0.0000067
 7,-0.00051387,0.00061662,-0.00075508,-0.00006972,-0.00010069,0.0000385
 1,0.00004434,-0.00002313,-0.00000708,-0.00008770,0.00023832,0.00014243
 ,-0.00002684,-0.00001372,-0.00010200,-0.00040295,-0.00030886,0.0005605
 7,0.03909408,-0.10040770,0.09133238,0.00030662,-0.00024978,0.00012010,
 -0.00023753,0.00045958,-0.00009085,0.00968855,-0.01796702,0.02806926,-
 0.04011970,0.11356231,-0.00000670,-0.00000628,0.00000273,-0.00000114,-
 0.00003370,0.00000740,-0.00000347,0.00000420,-0.00000142,-0.00010640,-
 0.00000089,-0.00003035,0.00005735,-0.00038466,0.00033528,-0.00000256,0
 .00000835,-0.00000914,-0.00001491,-0.00001140,0.00002386,0.00006935,-0
 .00000190,-0.00007412,0.00021762,0.00004579,-0.00001681,0.00001982,0.0
 0001158,-0.00001475,-0.00035435,-0.00061599,0.00035129,-0.00008313,0.0
 0009701,-0.00003494,0.00125153,0.00036197,-0.00037654,-0.06796376,0.09
 199707,-0.21981026,-0.00042369,-0.00006714,0.00100073,0.00034249,-0.00
 012843,0.00172628,-0.00058645,-0.00104495,-0.00022956,0.07605700,-0.10
 354625,0.23824584,-0.00000205,-0.00000400,-0.00000458,0.00002272,0.000
 01501,-0.00000426,0.00000130,0.00000139,0.00000176,0.00003429,-0.00008
 742,-0.00007775,-0.00001944,0.00002627,-0.00026602,-0.00002775,-0.0000
 6678,-0.00001205,-0.00000367,0.00000084,-0.00000078,0.00109395,0.00147
 551,0.00097976,-0.00000763,0.00004693,0.00002069,0.00031577,-0.0000662
 4,-0.00019937,-0.00004226,-0.00008596,-0.00008245,-0.00013742,-0.00118
 571,-0.00068731,-0.01638901,0.01742090,0.02955307,-0.07609945,0.043191
 33,0.06452717,-0.00661490,-0.00036282,-0.00032367,0.00123171,0.0002812
 1,-0.00043800,0.00395770,-0.00868089,-0.01053894,0.00386820,-0.0055718
 6,-0.00958926,0.08857585,0.00000821,-0.00000383,0.00000356,0.00000494,
 0.00002946,-0.00000211,0.00001009,-0.00000103,-0.00000106,0.00004998,-
 0.00000861,0.00000037,-0.00008332,0.00013567,0.00016639,0.00000031,-0.
 00000007,-0.00000522,-0.00000302,-0.00000274,0.00000280,-0.00051514,0.
 00066262,0.00070901,0.00004299,-0.00002339,0.00000751,-0.00008374,-0.0
 0010574,-0.00003251,-0.00002121,-0.00001352,0.00010064,-0.00006551,0.0
 0026916,-0.00013681,-0.00048289,-0.00036988,-0.00056276,0.04310224,-0.
 11270047,-0.09838196,-0.00025801,0.00047904,0.00017221,0.00033293,-0.0
 0024808,-0.00004038,0.00962519,-0.01963226,-0.02684395,-0.00490407,0.0
 0778134,0.01291569,-0.04460970,0.12740674,0.00000620,0.00000672,0.0000
 0208,0.00000077,0.00003223,0.00000539,0.00000282,-0.00000424,-0.000001
 10,0.00010320,-0.00000026,-0.00003051,-0.00005110,0.00039748,0.0003006
 8,0.00001508,0.00001313,0.00002346,0.00000275,-0.00000877,-0.00000881,
 -0.00003955,-0.00005003,-0.00012267,-0.00002269,-0.00001115,-0.0000145
 0,-0.00021363,-0.00003984,-0.00001055,0.00008474,-0.00009814,-0.000035
 13,0.00036070,0.00062463,0.00032116,-0.00117575,-0.00041343,-0.0003999
 5,0.06490828,-0.09904695,-0.20790086,-0.00030204,0.00020995,0.00170883
 ,0.00040241,0.00014690,0.00099894,-0.00004629,0.00232332,0.00146579,0.
 00984664,-0.01492732,-0.02359996,-0.07290515,0.11084306,0.22483443,-0.
 00000893,-0.00000853,0.00000027,-0.00000505,-0.00007361,0.00000237,-0.
 00004613,0.00000567,-0.00000009,-0.00012237,0.00006401,-0.00000189,0.0
 0009026,-0.00036235,0.00001153,0.00000417,0.00000684,-0.00000466,0.000
 00418,0.00000714,0.00000419,-0.00068705,0.00063001,-0.00001848,0.00000
 546,0.00001696,-0.00001155,0.00000548,0.00001765,0.00001043,-0.0000058
 0,-0.00007740,0.00007245,-0.00000591,-0.00008167,-0.00006735,0.0010158
 6,-0.00330824,0.00010546,-0.01062483,0.00241690,-0.00006321,0.00038185
 ,0.00012318,-0.00005284,0.00038342,0.00012601,0.00004445,-0.30967925,0
 .00321355,0.00028017,0.00042166,-0.00033728,0.00071716,0.00041848,-0.0
 0038301,-0.00069531,0.33920990,-0.00002373,0.00000184,-0.00000005,-0.0
 0000142,-0.00010341,0.00000321,-0.00003613,0.00000565,-0.00000009,-0.0
 0023181,0.00005571,-0.00000139,-0.00000252,-0.00069148,0.00002204,0.00
 000429,0.00000846,-0.00000877,0.00000429,0.00000913,0.00000809,-0.0019
 9701,0.00061369,0.00000058,0.00001703,0.00001157,-0.00002989,0.0000170
 5,0.00001318,0.00002927,0.00004866,0.00004576,0.00009684,0.00005026,0.
 00004434,-0.00010099,-0.00020993,-0.00658336,0.00021946,-0.03523080,-0
 .00027545,0.00003798,0.00012256,0.00003136,0.00033396,0.00015181,0.000
 00381,-0.00031978,0.00423008,-0.04871800,-0.00005082,0.00045211,0.0011
 3984,0.00042060,0.00042401,0.00110886,-0.00049757,-0.00175145,0.054096
 85,0.00000078,-0.00000007,-0.00000077,0.00000005,0.00000333,-0.0000035
 5,0.00000123,-0.00000018,0.00000049,0.00000766,-0.00000183,0.00000210,
 -0.00000006,0.00002261,-0.00000796,0.00000017,-0.00000224,-0.00000123,
 -0.00000047,0.00000155,-0.00000191,0.00006622,-0.00000332,0.00054038,0
 .00000042,0.00000431,0.00000438,-0.00000152,-0.00000493,0.00000274,-0.
 00003083,-0.00007874,-0.00001783,0.00002761,0.00007497,-0.00001628,0.0
 0000550,0.00022402,0.00020259,0.00115118,-0.00001754,-0.00071488,-0.00
 047243,0.00010698,0.00023066,0.00046317,-0.00009280,0.00025671,0.00024
 748,-0.00004927,-0.05009970,0.00039719,-0.00001870,-0.00006287,-0.0004
 2690,-0.00005597,-0.00002876,-0.00037216,-0.00014717,0.04945089,0.0000
 0251,0.00000429,0.00000095,-0.00000043,0.00001722,0.00000002,0.0000138
 0,-0.00000198,-0.00000036,0.00002931,-0.00000059,-0.00000853,-0.000031
 19,0.00008035,-0.00002760,-0.00000034,0.00000064,0.00000185,0.00000323
 ,0.00000335,-0.00000038,0.00006354,-0.00013741,0.00001224,-0.00003022,
 -0.00000402,-0.00001316,-0.00000548,-0.00000511,0.00000290,-0.00009229
 ,0.00010075,-0.00011378,0.00000784,0.00004587,0.00002594,0.00113209,-0
 .00041774,0.00129622,0.00319398,-0.00723179,0.01078236,-0.00007415,-0.
 00001891,0.00006796,-0.00007451,0.00003802,-0.00041885,-0.07584952,0.0
 3848958,-0.06692716,-0.00032256,-0.00260235,0.00031208,0.00014644,0.00
 084807,-0.00014406,-0.01041885,0.01604073,-0.02966329,0.07905772,-0.00
 000081,0.00000122,-0.00000360,0.00000421,-0.00000390,0.00000033,-0.000
 00630,-0.00000020,0.00000107,0.00001244,0.00000943,0.00000251,-0.00003
 653,0.00005940,-0.00008320,0.00000250,-0.00000661,0.00000186,0.0000057
 7,0.00000541,-0.00000626,0.00001458,0.00000240,-0.00025449,-0.00006855
 ,-0.00000269,-0.00001242,-0.00000105,-0.00000128,-0.00000360,0.0000848
 3,0.00029782,-0.00019168,0.00003820,-0.00004416,0.00001230,0.00151021,
 0.00094013,0.00060521,0.00983027,-0.01782343,0.02891241,-0.00009138,-0
 .00000083,-0.00009662,-0.00109622,0.00027156,-0.00060158,0.03798242,-0
 .10291855,0.09743990,-0.00290744,-0.00561717,-0.00039387,0.00073637,0.
 00078001,-0.00036643,-0.00008076,-0.00041540,0.00043666,-0.04005387,0.
 11627297,0.00000324,-0.00000400,0.00000346,-0.00000252,0.00001323,-0.0
 0000036,0.00001070,0.00000063,-0.00000107,0.00002402,-0.00000554,0.000
 00259,0.00000823,0.00008705,-0.00003149,-0.00000149,-0.00000041,-0.000
 00110,-0.00000013,-0.00000762,0.00000294,0.00032096,-0.00017471,0.0002
 8769,0.00002024,0.00000766,0.00002505,-0.00000231,0.00000340,-0.000008
 00,-0.00010703,-0.00018321,0.00000058,-0.00001671,-0.00001730,-0.00001
 289,-0.00004947,-0.00016917,-0.00005138,-0.00083005,-0.00085273,-0.000
 31966,-0.00005946,0.00009387,-0.00006391,0.00075169,0.00018936,0.00026
 710,-0.06654470,0.09813143,-0.22597292,-0.00001647,-0.00028094,0.00164
 771,0.00026458,0.00038846,0.00091808,0.00128856,-0.00061405,0.00017974
 ,0.07473583,-0.11002000,0.24559848,0.00000249,0.00000423,-0.00000121,-
 0.00000042,0.00001714,-0.00000113,0.00001377,-0.00000195,0.00000043,0.
 00002926,-0.00000003,0.00000847,-0.00003115,0.00008169,0.00002239,0.00
 000323,0.00000339,0.00000016,-0.00000034,0.00000051,-0.00000189,0.0000
 6254,-0.00013736,-0.00000276,-0.00000548,-0.00000530,-0.00000257,-0.00
 003023,-0.00000318,0.00001356,0.00000781,0.00004416,-0.00002890,-0.000
 09165,0.00010838,0.00010728,0.00112805,-0.00050006,-0.00126973,0.00316
 398,-0.00790690,-0.01030131,-0.00007523,0.00006419,0.00041650,-0.00007
 415,-0.00002352,-0.00006661,-0.07546238,0.04240610,0.06389044,0.000145
 94,0.00085457,0.00009142,-0.00032283,-0.00261533,-0.00013803,-0.010336
 53,0.01792193,0.02859900,0.00324908,-0.00587890,-0.00979771,0.07862425
 ,-0.00000100,0.00000172,0.00000370,0.00000437,-0.00000476,-0.00000006,
 -0.00000699,-0.00000031,-0.00000109,0.00001086,0.00000959,-0.00000300,
 -0.00003675,0.00005877,0.00007749,0.00000578,0.00000629,0.00000603,0.0
 0000259,-0.00000668,-0.00000151,-0.00000539,0.00003116,0.00027105,-0.0
 0000090,-0.00000129,0.00000317,-0.00006966,-0.00000226,0.00001439,0.00
 003916,-0.00004370,-0.00001042,0.00009208,0.00032067,0.00017075,0.0015
 0801,0.00090788,-0.00067132,0.00977901,-0.01955494,-0.02769732,-0.0011
 4065,0.00029787,0.00060271,-0.00008712,-0.00000091,0.00009277,0.041878
 56,-0.11601704,-0.10467233,0.00071888,0.00077921,0.00037322,-0.0028983
 8,-0.00554327,0.00086670,-0.00016361,-0.00040293,-0.00040167,-0.005195
 08,0.00819387,0.01341457,-0.04443376,0.13097107,-0.00000317,0.00000411
 ,0.00000297,0.00000224,-0.00001300,0.00000049,-0.00001031,-0.00000068,
 -0.00000091,-0.00002485,0.00000509,0.00000246,-0.00000587,-0.00009312,
 -0.00003092,-0.00000025,0.00000739,0.00000206,0.00000132,0.00000078,-0
 .00000103,-0.00032063,0.00019168,0.00025983,0.00000236,-0.00000382,-0.
 00000799,-0.00001562,-0.00000588,0.00002464,0.00001416,0.00001916,-0.0
 0001329,0.00010156,0.00016220,-0.00002289,-0.00005150,0.00010861,-0.00
 001525,0.00018964,0.00211856,0.00144238,-0.00067848,-0.00019146,0.0002
 4120,0.00006520,-0.00009794,-0.00006391,0.06354242,-0.10536490,-0.2132
 6156,-0.00030923,-0.00038203,0.00091960,0.00020945,0.00075305,0.001573
 94,-0.00124950,0.00059855,0.00008507,0.01007885,-0.01537850,-0.0224706
 6,-0.07153779,0.11756215,0.23133375||0.00015605,0.00000350,0.00000266,
 -0.00005506,-0.00005277,-0.00000907,-0.00002343,0.00001674,0.00000199,
 -0.00029410,-0.00001152,0.00000440,0.00005242,0.00006098,-0.00000277,0
 .00006820,-0.00001423,-0.00003143,0.00006739,-0.00001236,0.00003255,0.
 00005613,0.00011985,-0.00000380,0.00000139,0.00000767,-0.00004341,-0.0
 0000150,0.00001250,0.00004465,-0.00000301,-0.00002249,0.00002248,-0.00
 000298,-0.00002303,-0.00002096,-0.00005633,-0.00013285,0.00000427,0.00
 000613,-0.00000687,0.00000037,0.00000244,0.00002278,0.00002026,0.00000
 248,0.00002211,-0.00002162,0.00001970,0.00004870,-0.00000178,0.0000012
 6,-0.00000481,0.00003558,0.00000142,-0.00000668,-0.00003540,0.00004032
 ,-0.00001202,0.00000038,-0.00001959,-0.00000831,-0.00002808,-0.0000193
 4,-0.00000688,0.00002873|||@


 NATURE REVEALS EVERY SECRET ONCE.
                    - RALPH WALDO EMERSON
 Job cpu time:       0 days  0 hours 50 minutes  6.0 seconds.
 File lengths (MBytes):  RWF=     55 Int=      0 D2E=      0 Chk=      3 Scr=      1
 Normal termination of Gaussian 09 at Wed Sep 13 21:23:22 2023.
