 Entering Link 1 = C:\G09W\l1.exe PID=     16436.
  
 Copyright (c) 1988,1990,1992,1993,1995,1998,2003,2009,2013,
            Gaussian, Inc.  All Rights Reserved.
  
 This is part of the Gaussian(R) 09 program.  It is based on
 the Gaussian(R) 03 system (copyright 2003, Gaussian, Inc.),
 the Gaussian(R) 98 system (copyright 1998, Gaussian, Inc.),
 the Gaussian(R) 94 system (copyright 1995, Gaussian, Inc.),
 the Gaussian 92(TM) system (copyright 1992, Gaussian, Inc.),
 the Gaussian 90(TM) system (copyright 1990, Gaussian, Inc.),
 the Gaussian 88(TM) system (copyright 1988, Gaussian, Inc.),
 the Gaussian 86(TM) system (copyright 1986, Carnegie Mellon
 University), and the Gaussian 82(TM) system (copyright 1983,
 Carnegie Mellon University). Gaussian is a federally registered
 trademark of Gaussian, Inc.
  
 This software contains proprietary and confidential information,
 including trade secrets, belonging to Gaussian, Inc.
  
 This software is provided under written license and may be
 used, copied, transmitted, or stored only in accord with that
 written license.
  
 The following legend is applicable only to US Government
 contracts under FAR:
  
                    RESTRICTED RIGHTS LEGEND
  
 Use, reproduction and disclosure by the US Government is
 subject to restrictions as set forth in subparagraphs (a)
 and (c) of the Commercial Computer Software - Restricted
 Rights clause in FAR 52.227-19.
  
 Gaussian, Inc.
 340 Quinnipiac St., Bldg. 40, Wallingford CT 06492
  
  
 ---------------------------------------------------------------
 Warning -- This program may not be used in any manner that
 competes with the business of Gaussian, Inc. or will provide
 assistance to any competitor of Gaussian, Inc.  The licensee
 of this program is prohibited from giving any competitor of
 Gaussian, Inc. access to this program.  By using this program,
 the user acknowledges that Gaussian, Inc. is engaged in the
 business of creating and licensing software in the field of
 computational chemistry and represents and warrants to the
 licensee that it is not a competitor of Gaussian, Inc. and that
 it will not use this program in any manner prohibited above.
 ---------------------------------------------------------------
  

 Cite this work as:
 Gaussian 09, Revision D.01,
 M. J. Frisch, G. W. Trucks, H. B. Schlegel, G. E. Scuseria, 
 M. A. Robb, J. R. Cheeseman, G. Scalmani, V. Barone, B. Mennucci, 
 G. A. Petersson, H. Nakatsuji, M. Caricato, X. Li, H. P. Hratchian, 
 A. F. Izmaylov, J. Bloino, G. Zheng, J. L. Sonnenberg, M. Hada, 
 M. Ehara, K. Toyota, R. Fukuda, J. Hasegawa, M. Ishida, T. Nakajima, 
 Y. Honda, O. Kitao, H. Nakai, T. Vreven, J. A. Montgomery, Jr., 
 J. E. Peralta, F. Ogliaro, M. Bearpark, J. J. Heyd, E. Brothers, 
 K. N. Kudin, V. N. Staroverov, T. Keith, R. Kobayashi, J. Normand, 
 K. Raghavachari, A. Rendell, J. C. Burant, S. S. Iyengar, J. Tomasi, 
 M. Cossi, N. Rega, J. M. Millam, M. Klene, J. E. Knox, J. B. Cross, 
 V. Bakken, C. Adamo, J. Jaramillo, R. Gomperts, R. E. Stratmann, 
 O. Yazyev, A. J. Austin, R. Cammi, C. Pomelli, J. W. Ochterski, 
 R. L. Martin, K. Morokuma, V. G. Zakrzewski, G. A. Voth, 
 P. Salvador, J. J. Dannenberg, S. Dapprich, A. D. Daniels, 
 O. Farkas, J. B. Foresman, J. V. Ortiz, J. Cioslowski, 
 and D. J. Fox, Gaussian, Inc., Wallingford CT, 2013.
 
 ******************************************
 Gaussian 09:  EM64W-G09RevD.01 13-Apr-2013
                13-Sep-2023 
 ******************************************
 %nprocshared=2
 Will use up to    2 processors via shared memory.
 %mem=2GB
 %chk=E:\PROJECT- VIT group\ML\Substrates\molecule_16.chk
 -----------------------------------------------------
 # opt freq b3lyp/6-31g nosymm empiricaldispersion=gd3
 -----------------------------------------------------
 1/14=-1,18=20,19=15,26=3,38=1/1,3;
 2/9=110,12=2,15=1,17=6,18=5,40=1/2;
 3/5=1,6=6,11=2,16=1,25=1,30=1,71=1,74=-5,124=31/1,2,3;
 4//1;
 5/5=2,38=5/2;
 6/7=2,8=2,9=2,10=2,28=1/1;
 7/30=1/1,2,3,16;
 1/14=-1,18=20,19=15,26=3/3(2);
 2/9=110,15=1/2;
 99//99;
 2/9=110,15=1/2;
 3/5=1,6=6,11=2,16=1,25=1,30=1,71=1,74=-5,124=31/1,2,3;
 4/5=5,16=3,69=1/1;
 5/5=2,38=5/2;
 7/30=1/1,2,3,16;
 1/14=-1,18=20,19=15,26=3/3(-5);
 2/9=110,15=1/2;
 6/7=2,8=2,9=2,10=2,19=2,28=1/1;
 99/9=1/99;
 -------------------
 Title Card Required
 -------------------
 Symbolic Z-matrix:
 Charge =  0 Multiplicity = 1
 C                    -1.94984  -0.90775   0. 
 C                    -0.55468  -0.90775   0. 
 C                     0.14286   0.3       0. 
 C                    -0.5548    1.50851  -0.0012 
 C                    -1.94962   1.50843  -0.00168 
 C                    -2.64722   0.30022  -0.00068 
 H                    -0.23853  -1.45544   0.86313 
 H                     0.77449   0.30037   0.86368 
 H                    -0.23891   2.05684   0.86161 
 H                    -2.26612   2.05697   0.86078 
 H                    -3.27979   0.29964  -0.86367 
 H                    -2.26552   2.0552   -0.86548 
 H                    -0.23832   2.05547  -0.86466 
 H                     0.77597   0.29951  -0.8626 
 H                    -0.23853  -1.45544  -0.86313 
 H                    -3.27941   0.30084   0.86259 
 C                    -2.71986  -2.24142   0.00075 
 H                    -2.54966  -2.33909   1.0526 
 H                    -1.80898  -2.76744  -0.19548 
 C                    -3.48987  -3.57509   0.0015 
 C                    -4.08738  -4.60998   0.00208 
 H                    -4.6179   -5.52883   0.00259 
 H                    -1.94984  -0.90715   1.07 
 

 GradGradGradGradGradGradGradGradGradGradGradGradGradGradGradGradGradGrad
 Berny optimization.
 Initialization pass.
                           ----------------------------
                           !    Initial Parameters    !
                           ! (Angstroms and Degrees)  !
 --------------------------                            --------------------------
 ! Name  Definition              Value          Derivative Info.                !
 --------------------------------------------------------------------------------
 ! R1    R(1,2)                  1.3952         estimate D2E/DX2                !
 ! R2    R(1,6)                  1.3948         estimate D2E/DX2                !
 ! R3    R(1,17)                 1.54           estimate D2E/DX2                !
 ! R4    R(1,23)                 1.07           estimate D2E/DX2                !
 ! R5    R(2,3)                  1.3947         estimate D2E/DX2                !
 ! R6    R(2,7)                  1.07           estimate D2E/DX2                !
 ! R7    R(2,15)                 1.07           estimate D2E/DX2                !
 ! R8    R(3,4)                  1.3954         estimate D2E/DX2                !
 ! R9    R(3,8)                  1.07           estimate D2E/DX2                !
 ! R10   R(3,14)                 1.07           estimate D2E/DX2                !
 ! R11   R(4,5)                  1.3948         estimate D2E/DX2                !
 ! R12   R(4,9)                  1.07           estimate D2E/DX2                !
 ! R13   R(4,13)                 1.07           estimate D2E/DX2                !
 ! R14   R(5,6)                  1.3951         estimate D2E/DX2                !
 ! R15   R(5,10)                 1.07           estimate D2E/DX2                !
 ! R16   R(5,12)                 1.07           estimate D2E/DX2                !
 ! R17   R(6,11)                 1.07           estimate D2E/DX2                !
 ! R18   R(6,16)                 1.07           estimate D2E/DX2                !
 ! R19   R(17,18)                1.07           estimate D2E/DX2                !
 ! R20   R(17,19)                1.07           estimate D2E/DX2                !
 ! R21   R(17,20)                1.54           estimate D2E/DX2                !
 ! R22   R(20,21)                1.195          estimate D2E/DX2                !
 ! R23   R(21,22)                1.061          estimate D2E/DX2                !
 ! A1    A(2,1,6)              119.9985         estimate D2E/DX2                !
 ! A2    A(2,1,17)             120.0008         estimate D2E/DX2                !
 ! A3    A(2,1,23)              90.0002         estimate D2E/DX2                !
 ! A4    A(6,1,17)             120.0008         estimate D2E/DX2                !
 ! A5    A(6,1,23)              90.0002         estimate D2E/DX2                !
 ! A6    A(17,1,23)             89.9997         estimate D2E/DX2                !
 ! A7    A(1,2,3)              120.0086         estimate D2E/DX2                !
 ! A8    A(1,2,7)              107.1857         estimate D2E/DX2                !
 ! A9    A(1,2,15)             107.1857         estimate D2E/DX2                !
 ! A10   A(3,2,7)              107.1857         estimate D2E/DX2                !
 ! A11   A(3,2,15)             107.1857         estimate D2E/DX2                !
 ! A12   A(7,2,15)             107.5417         estimate D2E/DX2                !
 ! A13   A(2,3,4)              119.9942         estimate D2E/DX2                !
 ! A14   A(2,3,8)              107.1891         estimate D2E/DX2                !
 ! A15   A(2,3,14)             107.1891         estimate D2E/DX2                !
 ! A16   A(4,3,8)              107.1891         estimate D2E/DX2                !
 ! A17   A(4,3,14)             107.1891         estimate D2E/DX2                !
 ! A18   A(8,3,14)             107.544          estimate D2E/DX2                !
 ! A19   A(3,4,5)              119.994          estimate D2E/DX2                !
 ! A20   A(3,4,9)              107.1891         estimate D2E/DX2                !
 ! A21   A(3,4,13)             107.1891         estimate D2E/DX2                !
 ! A22   A(5,4,9)              107.1891         estimate D2E/DX2                !
 ! A23   A(5,4,13)             107.1891         estimate D2E/DX2                !
 ! A24   A(9,4,13)             107.5441         estimate D2E/DX2                !
 ! A25   A(4,5,6)              120.0047         estimate D2E/DX2                !
 ! A26   A(4,5,10)             107.1866         estimate D2E/DX2                !
 ! A27   A(4,5,12)             107.1866         estimate D2E/DX2                !
 ! A28   A(6,5,10)             107.1866         estimate D2E/DX2                !
 ! A29   A(6,5,12)             107.1866         estimate D2E/DX2                !
 ! A30   A(10,5,12)            107.5423         estimate D2E/DX2                !
 ! A31   A(1,6,5)              120.0            estimate D2E/DX2                !
 ! A32   A(1,6,11)             107.1877         estimate D2E/DX2                !
 ! A33   A(1,6,16)             107.1877         estimate D2E/DX2                !
 ! A34   A(5,6,11)             107.1877         estimate D2E/DX2                !
 ! A35   A(5,6,16)             107.1877         estimate D2E/DX2                !
 ! A36   A(11,6,16)            107.5431         estimate D2E/DX2                !
 ! A37   A(1,17,18)             90.0            estimate D2E/DX2                !
 ! A38   A(1,17,19)             90.0            estimate D2E/DX2                !
 ! A39   A(18,17,19)            90.0            estimate D2E/DX2                !
 ! A40   A(18,17,20)            90.0002         estimate D2E/DX2                !
 ! A41   A(19,17,20)            89.9998         estimate D2E/DX2                !
 ! A42   L(1,17,20,18,-1)      180.0002         estimate D2E/DX2                !
 ! A43   L(17,20,21,19,-1)     180.0            estimate D2E/DX2                !
 ! A44   L(20,21,22,7,-1)      180.0            estimate D2E/DX2                !
 ! A45   L(1,17,20,18,-2)      180.0002         estimate D2E/DX2                !
 ! A46   L(17,20,21,19,-2)     180.0            estimate D2E/DX2                !
 ! A47   L(20,21,22,7,-2)      180.0            estimate D2E/DX2                !
 ! D1    D(6,1,2,3)              0.0323         estimate D2E/DX2                !
 ! D2    D(6,1,2,7)            122.4291         estimate D2E/DX2                !
 ! D3    D(6,1,2,15)          -122.3644         estimate D2E/DX2                !
 ! D4    D(17,1,2,3)          -179.9677         estimate D2E/DX2                !
 ! D5    D(17,1,2,7)           -57.5709         estimate D2E/DX2                !
 ! D6    D(17,1,2,15)           57.6356         estimate D2E/DX2                !
 ! D7    D(23,1,2,3)           -89.9679         estimate D2E/DX2                !
 ! D8    D(23,1,2,7)            32.4288         estimate D2E/DX2                !
 ! D9    D(23,1,2,15)          147.6353         estimate D2E/DX2                !
 ! D10   D(2,1,6,5)              0.0149         estimate D2E/DX2                !
 ! D11   D(2,1,6,11)           122.4098         estimate D2E/DX2                !
 ! D12   D(2,1,6,16)          -122.3801         estimate D2E/DX2                !
 ! D13   D(17,1,6,5)          -179.9851         estimate D2E/DX2                !
 ! D14   D(17,1,6,11)          -57.5902         estimate D2E/DX2                !
 ! D15   D(17,1,6,16)           57.6199         estimate D2E/DX2                !
 ! D16   D(23,1,6,5)            90.0151         estimate D2E/DX2                !
 ! D17   D(23,1,6,11)         -147.5899         estimate D2E/DX2                !
 ! D18   D(23,1,6,16)          -32.3798         estimate D2E/DX2                !
 ! D19   D(2,1,17,18)           79.4161         estimate D2E/DX2                !
 ! D20   D(2,1,17,19)          -10.5839         estimate D2E/DX2                !
 ! D21   D(6,1,17,18)         -100.5839         estimate D2E/DX2                !
 ! D22   D(6,1,17,19)          169.4161         estimate D2E/DX2                !
 ! D23   D(23,1,17,18)         -10.5839         estimate D2E/DX2                !
 ! D24   D(23,1,17,19)        -100.5839         estimate D2E/DX2                !
 ! D25   D(1,2,3,4)             -0.0568         estimate D2E/DX2                !
 ! D26   D(1,2,3,8)            122.3369         estimate D2E/DX2                !
 ! D27   D(1,2,3,14)          -122.4506         estimate D2E/DX2                !
 ! D28   D(7,2,3,4)           -122.4536         estimate D2E/DX2                !
 ! D29   D(7,2,3,8)             -0.0599         estimate D2E/DX2                !
 ! D30   D(7,2,3,14)           115.1527         estimate D2E/DX2                !
 ! D31   D(15,2,3,4)           122.3399         estimate D2E/DX2                !
 ! D32   D(15,2,3,8)          -115.2664         estimate D2E/DX2                !
 ! D33   D(15,2,3,14)           -0.0538         estimate D2E/DX2                !
 ! D34   D(2,3,4,5)              0.0341         estimate D2E/DX2                !
 ! D35   D(2,3,4,9)            122.4278         estimate D2E/DX2                !
 ! D36   D(2,3,4,13)          -122.3596         estimate D2E/DX2                !
 ! D37   D(8,3,4,5)           -122.3596         estimate D2E/DX2                !
 ! D38   D(8,3,4,9)              0.0341         estimate D2E/DX2                !
 ! D39   D(8,3,4,13)           115.2467         estimate D2E/DX2                !
 ! D40   D(14,3,4,5)           122.4278         estimate D2E/DX2                !
 ! D41   D(14,3,4,9)          -115.1785         estimate D2E/DX2                !
 ! D42   D(14,3,4,13)            0.0342         estimate D2E/DX2                !
 ! D43   D(3,4,5,6)              0.0131         estimate D2E/DX2                !
 ! D44   D(3,4,5,10)           122.409          estimate D2E/DX2                !
 ! D45   D(3,4,5,12)          -122.3828         estimate D2E/DX2                !
 ! D46   D(9,4,5,6)           -122.3806         estimate D2E/DX2                !
 ! D47   D(9,4,5,10)             0.0153         estimate D2E/DX2                !
 ! D48   D(9,4,5,12)           115.2235         estimate D2E/DX2                !
 ! D49   D(13,4,5,6)           122.4068         estimate D2E/DX2                !
 ! D50   D(13,4,5,10)         -115.1973         estimate D2E/DX2                !
 ! D51   D(13,4,5,12)            0.0109         estimate D2E/DX2                !
 ! D52   D(4,5,6,1)             -0.0376         estimate D2E/DX2                !
 ! D53   D(4,5,6,11)          -122.4326         estimate D2E/DX2                !
 ! D54   D(4,5,6,16)           122.3573         estimate D2E/DX2                !
 ! D55   D(10,5,6,1)          -122.4335         estimate D2E/DX2                !
 ! D56   D(10,5,6,11)          115.1715         estimate D2E/DX2                !
 ! D57   D(10,5,6,16)           -0.0386         estimate D2E/DX2                !
 ! D58   D(12,5,6,1)           122.3583         estimate D2E/DX2                !
 ! D59   D(12,5,6,11)           -0.0366         estimate D2E/DX2                !
 ! D60   D(12,5,6,16)         -115.2467         estimate D2E/DX2                !
 --------------------------------------------------------------------------------
 Trust Radius=3.00D-01 FncErr=1.00D-07 GrdErr=1.00D-06
 Number of steps in this run=    138 maximum allowed number of steps=    138.
 GradGradGradGradGradGradGradGradGradGradGradGradGradGradGradGradGradGrad

                          Input orientation:                          
 ---------------------------------------------------------------------
 Center     Atomic      Atomic             Coordinates (Angstroms)
 Number     Number       Type             X           Y           Z
 ---------------------------------------------------------------------
      1          6           0       -1.949841   -0.907751    0.000000
      2          6           0       -0.554681   -0.907751    0.000000
      3          6           0        0.142857    0.300000    0.000000
      4          6           0       -0.554797    1.508509   -0.001199
      5          6           0       -1.949622    1.508431   -0.001678
      6          6           0       -2.647223    0.300225   -0.000682
      7          1           0       -0.238528   -1.455438    0.863126
      8          1           0        0.774485    0.300365    0.863682
      9          1           0       -0.238910    2.056843    0.861613
     10          1           0       -2.266118    2.056968    0.860782
     11          1           0       -3.279794    0.299643   -0.863673
     12          1           0       -2.265525    2.055203   -0.865475
     13          1           0       -0.238317    2.055473   -0.864664
     14          1           0        0.775968    0.299509   -0.862595
     15          1           0       -0.238528   -1.455438   -0.863126
     16          1           0       -3.279406    0.300841    0.862594
     17          6           0       -2.719859   -2.241420    0.000753
     18          1           0       -2.549659   -2.339094    1.052604
     19          1           0       -1.808984   -2.767441   -0.195482
     20          6           0       -3.489874   -3.575090    0.001500
     21          6           0       -4.087385   -4.609984    0.002080
     22          1           0       -4.617895   -5.528831    0.002595
     23          1           0       -1.949844   -0.907152    1.070000
 ---------------------------------------------------------------------
                    Distance matrix (angstroms):
                    1          2          3          4          5
     1  C    0.000000
     2  C    1.395160   0.000000
     3  C    2.416205   1.394712   0.000000
     4  C    2.790065   2.416260   1.395427   0.000000
     5  C    2.416183   2.789946   2.416356   1.394825   0.000000
     6  C    1.394829   2.416183   2.790080   2.416236   1.395138
     7  H    1.993374   1.070000   1.992989   3.103557   3.529908
     8  H    3.102812   1.993031   1.070000   1.993645   3.103068
     9  H    3.529657   3.103370   1.993645   1.070000   1.993129
    10  H    3.103311   3.529805   3.103392   1.993097   1.070000
    11  H    1.993115   3.103220   3.529939   3.103358   1.993380
    12  H    3.102869   3.529183   3.103238   1.993097   1.070000
    13  H    3.529540   3.102970   1.993645   1.070000   1.993129
    14  H    3.103479   1.993031   1.070000   1.993645   3.103468
    15  H    1.993374   1.070000   1.992989   3.102890   3.529087
    16  H    1.993115   3.103045   3.529299   3.102917   1.993380
    17  C    1.540000   2.542964   3.828049   4.330065   3.828139
    18  H    1.875233   2.671452   3.914388   4.460272   4.034229
    19  H    1.875233   2.251652   3.641029   4.460323   4.282572
    20  C    3.080000   3.966113   5.311596   5.870065   5.311739
    21  C    4.275000   5.117277   6.480964   7.065065   6.481130
    22  H    5.336000   6.153381   7.525957   8.126065   7.526138
    23  H    1.070000   1.758232   2.642255   2.988150   2.642638
                    6          7          8          9         10
     6  C    0.000000
     7  H    3.103277   0.000000
     8  H    3.529194   2.027078   0.000000
     9  H    3.103100   3.512282   2.027853   0.000000
    10  H    1.993366   4.055629   3.511542   2.027207   0.000000
    11  H    1.070000   3.912983   4.406919   3.912971   2.662607
    12  H    1.993366   4.406969   3.912940   2.662706   1.726259
    13  H    3.103254   3.913024   2.663334   1.726278   2.662544
    14  H    3.530033   2.662171   1.726278   2.662911   3.913180
    15  H    3.102897   1.726252   2.662876   3.912908   4.406810
    16  H    1.070000   3.511617   4.053891   3.511147   2.027495
    17  C    2.542683   2.741980   4.406331   5.036988   4.407002
    18  H    2.843402   2.481546   4.248808   4.969939   4.409371
    19  H    3.186089   2.303981   4.148201   5.182306   4.959797
    20  C    3.965871   3.975747   5.826428   6.559514   5.827180
    21  C    5.117052   5.050371   6.963596   7.745717   6.964383
    22  H    6.153166   6.042507   7.987412   8.800901   7.988222
    23  H    1.757969   1.808871   2.987077   3.428700   2.988278
                   11         12         13         14         15
    11  H    0.000000
    12  H    2.027495   0.000000
    13  H    3.511911   2.027207   0.000000
    14  H    4.055762   3.511858   2.027853   0.000000
    15  H    3.511354   4.053803   3.510912   2.027077   0.000000
    16  H    1.726267   2.663074   3.912846   4.407078   3.912743
    17  C    2.741853   4.406556   5.036892   4.407096   2.742454
    18  H    3.341878   4.803083   5.322634   4.657253   3.129248
    19  H    3.466520   4.890318   5.116179   4.066103   2.152540
    20  C    3.975703   5.826738   6.559428   5.827228   3.976399
    21  C    5.050362   6.963945   7.745636   6.964408   5.051082
    22  H    6.042519   7.987788   8.800823   7.988232   6.043248
    23  H    2.638979   3.552642   3.930571   3.552605   2.639355
                   16         17         18         19         20
    16  H    0.000000
    17  C    2.742071   0.000000
    18  H    2.745522   1.070000   0.000000
    19  H    3.563148   1.070000   1.513209   0.000000
    20  C    3.976006   1.540000   1.875236   1.875231   0.000000
    21  C    5.050695   2.735000   2.936860   2.936853   1.195000
    22  H    6.042866   3.796000   3.943925   3.943918   2.256000
    23  H    1.808314   1.875229   1.552591   2.254321   3.260564
                   21         22         23
    21  C    0.000000
    22  H    1.061000   0.000000
    23  H    4.406869   5.442221   0.000000
 Symmetry turned off by external request.
 Stoichiometry    C9H14
 Framework group  C1[X(C9H14)]
 Deg. of freedom    63
 Full point group                 C1      NOp   1
 Rotational constants (GHZ):      4.7753092      0.7628011      0.6749203
 Standard basis: 6-31G (6D, 7F)
   109 basis functions,   254 primitive gaussians,   109 cartesian basis functions
    34 alpha electrons       34 beta electrons
       nuclear repulsion energy       445.7257997865 Hartrees.
 NAtoms=   23 NActive=   23 NUniq=   23 SFac= 1.00D+00 NAtFMM=   60 NAOKFM=F Big=F
 Integral buffers will be    131072 words long.
 Raffenetti 2 integral format.
 Two-electron integral symmetry is turned off.
 Nuclear repulsion after empirical dispersion term =      445.7097587741 Hartrees.
 One-electron integrals computed using PRISM.
 NBasis=   109 RedAO= T EigKep=  2.68D-04  NBF=   109
 NBsUse=   109 1.00D-06 EigRej= -1.00D+00 NBFU=   109
 ExpMin= 1.61D-01 ExpMax= 3.05D+03 ExpMxC= 4.57D+02 IAcc=1 IRadAn=         1 AccDes= 0.00D+00
 Harris functional with IExCor=  402 and IRadAn=       1 diagonalized for initial guess.
 HarFok:  IExCor=  402 AccDes= 0.00D+00 IRadAn=         1 IDoV= 1 UseB2=F ITyADJ=14
 ICtDFT=  3500011 ScaDFX=  1.000000  1.000000  1.000000  1.000000
 FoFCou: FMM=F IPFlag=           0 FMFlag=      100000 FMFlg1=           0
         NFxFlg=           0 DoJE=T BraDBF=F KetDBF=T FulRan=T
         wScrn=  0.000000 ICntrl=     500 IOpCl=  0 I1Cent=   200000004 NGrid=           0
         NMat0=    1 NMatS0=      1 NMatT0=    0 NMatD0=    1 NMtDS0=    0 NMtDT0=    0
 Symmetry not used in FoFCou.
 Keep R1 ints in memory in canonical form, NReq=18961153.
 Requested convergence on RMS density matrix=1.00D-08 within 128 cycles.
 Requested convergence on MAX density matrix=1.00D-06.
 Requested convergence on             energy=1.00D-06.
 No special actions if energy rises.
 Integral accuracy reduced to 1.0D-05 until final iterations.
 Initial convergence to 1.0D-05 achieved.  Increase integral accuracy.
 SCF Done:  E(RB3LYP) =  -350.908562555     A.U. after   15 cycles
            NFock= 15  Conv=0.90D-08     -V/T= 1.9975

 **********************************************************************

            Population analysis using the SCF density.

 **********************************************************************

 Alpha  occ. eigenvalues --  -10.19863 -10.19316 -10.18360 -10.15991 -10.15662
 Alpha  occ. eigenvalues --  -10.15212 -10.14688 -10.14563 -10.14489  -0.90851
 Alpha  occ. eigenvalues --   -0.82946  -0.79363  -0.76444  -0.71021  -0.64695
 Alpha  occ. eigenvalues --   -0.63184  -0.54438  -0.52953  -0.50247  -0.48989
 Alpha  occ. eigenvalues --   -0.47100  -0.46897  -0.46112  -0.42013  -0.39949
 Alpha  occ. eigenvalues --   -0.38374  -0.35931  -0.33512  -0.32480  -0.30991
 Alpha  occ. eigenvalues --   -0.30656  -0.25766  -0.24566  -0.22109
 Alpha virt. eigenvalues --    0.01497   0.04191   0.07313   0.08736   0.09451
 Alpha virt. eigenvalues --    0.10559   0.11355   0.13173   0.13953   0.15413
 Alpha virt. eigenvalues --    0.16907   0.18890   0.20622   0.21851   0.25087
 Alpha virt. eigenvalues --    0.25955   0.26297   0.27651   0.30938   0.31852
 Alpha virt. eigenvalues --    0.33086   0.39042   0.44580   0.46115   0.47600
 Alpha virt. eigenvalues --    0.52547   0.54046   0.54351   0.58233   0.58684
 Alpha virt. eigenvalues --    0.61274   0.62201   0.63777   0.66259   0.68104
 Alpha virt. eigenvalues --    0.69385   0.73077   0.74106   0.74347   0.75102
 Alpha virt. eigenvalues --    0.77926   0.79797   0.80496   0.82657   0.84005
 Alpha virt. eigenvalues --    0.84609   0.85621   0.86911   0.88733   0.90354
 Alpha virt. eigenvalues --    0.90823   0.92218   0.92842   0.94140   0.94735
 Alpha virt. eigenvalues --    0.96795   0.98050   0.99057   1.00715   1.02472
 Alpha virt. eigenvalues --    1.03761   1.04350   1.06063   1.09919   1.22468
 Alpha virt. eigenvalues --    1.26153   1.34794   1.41638   1.59638   1.64043
 Alpha virt. eigenvalues --    1.66353   1.76378   1.82441   1.99653   2.59001
          Condensed to atoms (all electrons):
               1          2          3          4          5          6
     1  C    5.497561   0.264505  -0.037945  -0.011116  -0.045420   0.245288
     2  C    0.264505   5.349457   0.264981  -0.077540  -0.031299  -0.061079
     3  C   -0.037945   0.264981   5.163136   0.328911  -0.066967  -0.029557
     4  C   -0.011116  -0.077540   0.328911   5.131933   0.330478  -0.078920
     5  C   -0.045420  -0.031299  -0.066967   0.330478   5.171668   0.278778
     6  C    0.245288  -0.061079  -0.029557  -0.078920   0.278778   5.261411
     7  H   -0.094060   0.444965  -0.054446   0.005250   0.000508   0.011452
     8  H    0.003080  -0.045858   0.402256  -0.050967   0.005470   0.001339
     9  H    0.000393   0.007051  -0.053076   0.405456  -0.051714   0.006532
    10  H    0.004047   0.001078   0.005910  -0.053231   0.400235  -0.045070
    11  H   -0.035024  -0.002326   0.001129   0.006219  -0.049420   0.381197
    12  H    0.003868   0.001560   0.005920  -0.052294   0.408956  -0.044481
    13  H   -0.000111   0.006776  -0.054428   0.411277  -0.053649   0.006636
    14  H    0.003351  -0.044749   0.409764  -0.049906   0.005653   0.001600
    15  H   -0.035465   0.357840  -0.042639   0.005836   0.000696  -0.001368
    16  H   -0.087264   0.012773   0.000386   0.005719  -0.056263   0.441451
    17  C   -0.024581  -0.031409   0.011416   0.001026   0.011837   0.001239
    18  H   -0.125042   0.013399  -0.000219  -0.000086  -0.000189   0.001583
    19  H   -0.052085  -0.019764   0.001783   0.000044  -0.000611   0.010110
    20  C   -0.015781   0.002729   0.000027   0.000024   0.000247  -0.001520
    21  C   -0.004382   0.000074   0.000001   0.000000   0.000003   0.000065
    22  H    0.000025   0.000000   0.000000   0.000000   0.000000   0.000000
    23  H    0.633851  -0.142753   0.002520   0.004047   0.000119  -0.122240
               7          8          9         10         11         12
     1  C   -0.094060   0.003080   0.000393   0.004047  -0.035024   0.003868
     2  C    0.444965  -0.045858   0.007051   0.001078  -0.002326   0.001560
     3  C   -0.054446   0.402256  -0.053076   0.005910   0.001129   0.005920
     4  C    0.005250  -0.050967   0.405456  -0.053231   0.006219  -0.052294
     5  C    0.000508   0.005470  -0.051714   0.400235  -0.049420   0.408956
     6  C    0.011452   0.001339   0.006532  -0.045070   0.381197  -0.044481
     7  H    0.658199  -0.024494   0.000349  -0.000091  -0.000782   0.000091
     8  H   -0.024494   0.613951  -0.025206   0.000145   0.000077  -0.000407
     9  H    0.000349  -0.025206   0.622639  -0.025644  -0.000485   0.007546
    10  H   -0.000091   0.000145  -0.025644   0.620835   0.007121  -0.033023
    11  H   -0.000782   0.000077  -0.000485   0.007121   0.643977  -0.025999
    12  H    0.000091  -0.000407   0.007546  -0.033023  -0.025999   0.604668
    13  H   -0.000458   0.007328  -0.034963   0.007459   0.000445  -0.025374
    14  H    0.007629  -0.033359   0.007520  -0.000416  -0.000197   0.000165
    15  H   -0.051074   0.006890  -0.000493   0.000090   0.001775  -0.000192
    16  H    0.000732  -0.000095   0.000337  -0.025080  -0.046084   0.007373
    17  C    0.014130  -0.000570   0.000025  -0.000643  -0.032088  -0.000272
    18  H    0.010006   0.000004   0.000004   0.000012  -0.001528   0.000008
    19  H   -0.002159  -0.000011  -0.000004   0.000013   0.000702   0.000012
    20  C   -0.000091  -0.000005   0.000000  -0.000008  -0.001796  -0.000006
    21  C    0.000015   0.000000   0.000000   0.000000  -0.000133   0.000000
    22  H    0.000000   0.000000   0.000000   0.000000   0.000000   0.000000
    23  H   -0.059329   0.001706  -0.001023   0.001770   0.019686  -0.000773
              13         14         15         16         17         18
     1  C   -0.000111   0.003351  -0.035465  -0.087264  -0.024581  -0.125042
     2  C    0.006776  -0.044749   0.357840   0.012773  -0.031409   0.013399
     3  C   -0.054428   0.409764  -0.042639   0.000386   0.011416  -0.000219
     4  C    0.411277  -0.049906   0.005836   0.005719   0.001026  -0.000086
     5  C   -0.053649   0.005653   0.000696  -0.056263   0.011837  -0.000189
     6  C    0.006636   0.001600  -0.001368   0.441451   0.001239   0.001583
     7  H   -0.000458   0.007629  -0.051074   0.000732   0.014130   0.010006
     8  H    0.007328  -0.033359   0.006890  -0.000095  -0.000570   0.000004
     9  H   -0.034963   0.007520  -0.000493   0.000337   0.000025   0.000004
    10  H    0.007459  -0.000416   0.000090  -0.025080  -0.000643   0.000012
    11  H    0.000445  -0.000197   0.001775  -0.046084  -0.032088  -0.001528
    12  H   -0.025374   0.000165  -0.000192   0.007373  -0.000272   0.000008
    13  H    0.616321  -0.025297   0.000494  -0.000462  -0.000062  -0.000003
    14  H   -0.025297   0.599565  -0.027057   0.000091  -0.000205   0.000016
    15  H    0.000494  -0.027057   0.652988  -0.000831  -0.031968  -0.002563
    16  H   -0.000462   0.000091  -0.000831   0.652721   0.015307   0.004818
    17  C   -0.000062  -0.000205  -0.031968   0.015307   5.886882   0.448344
    18  H   -0.000003   0.000016  -0.002563   0.004818   0.448344   0.681758
    19  H    0.000001  -0.000092   0.013066  -0.000656   0.383516  -0.068700
    20  C    0.000000  -0.000003  -0.001701   0.000046   0.181215  -0.067225
    21  C    0.000000   0.000000  -0.000140   0.000006  -0.295080  -0.011452
    22  H    0.000000   0.000000   0.000000   0.000000   0.003325  -0.000168
    23  H    0.000299  -0.000910   0.021490  -0.055891  -0.211251  -0.059247
              19         20         21         22         23
     1  C   -0.052085  -0.015781  -0.004382   0.000025   0.633851
     2  C   -0.019764   0.002729   0.000074   0.000000  -0.142753
     3  C    0.001783   0.000027   0.000001   0.000000   0.002520
     4  C    0.000044   0.000024   0.000000   0.000000   0.004047
     5  C   -0.000611   0.000247   0.000003   0.000000   0.000119
     6  C    0.010110  -0.001520   0.000065   0.000000  -0.122240
     7  H   -0.002159  -0.000091   0.000015   0.000000  -0.059329
     8  H   -0.000011  -0.000005   0.000000   0.000000   0.001706
     9  H   -0.000004   0.000000   0.000000   0.000000  -0.001023
    10  H    0.000013  -0.000008   0.000000   0.000000   0.001770
    11  H    0.000702  -0.001796  -0.000133   0.000000   0.019686
    12  H    0.000012  -0.000006   0.000000   0.000000  -0.000773
    13  H    0.000001   0.000000   0.000000   0.000000   0.000299
    14  H   -0.000092  -0.000003   0.000000   0.000000  -0.000910
    15  H    0.013066  -0.001701  -0.000140   0.000000   0.021490
    16  H   -0.000656   0.000046   0.000006   0.000000  -0.055891
    17  C    0.383516   0.181215  -0.295080   0.003325  -0.211251
    18  H   -0.068700  -0.067225  -0.011452  -0.000168  -0.059247
    19  H    0.632654  -0.081542  -0.022593  -0.000215   0.012255
    20  C   -0.081542   4.984798   0.730390   0.044228  -0.012985
    21  C   -0.022593   0.730390   5.971377   0.303208  -0.001123
    22  H   -0.000215   0.044228   0.303208   0.416537  -0.000002
    23  H    0.012255  -0.012985  -0.001123  -0.000002   0.777102
 Mulliken charges:
               1
     1  C   -0.087694
     2  C   -0.270411
     3  C   -0.258863
     4  C   -0.262162
     5  C   -0.259115
     6  C   -0.264446
     7  H    0.133659
     8  H    0.138727
     9  H    0.134754
    10  H    0.134490
    11  H    0.133534
    12  H    0.142653
    13  H    0.137770
    14  H    0.146835
    15  H    0.134327
    16  H    0.130864
    17  C   -0.330133
    18  H    0.176470
    19  H    0.194276
    20  C    0.238958
    21  C   -0.670236
    22  H    0.233061
    23  H    0.192683
 Sum of Mulliken charges =   0.00000
 Mulliken charges with hydrogens summed into heavy atoms:
               1
     1  C    0.104989
     2  C   -0.002426
     3  C    0.026699
     4  C    0.010362
     5  C    0.018027
     6  C   -0.000048
    17  C    0.040613
    20  C    0.238958
    21  C   -0.437175
 Electronic spatial extent (au):  <R**2>=           2725.4485
 Charge=              0.0000 electrons
 Dipole moment (field-independent basis, Debye):
    X=              1.5585    Y=              1.3259    Z=              0.7751  Tot=              2.1881
 Quadrupole moment (field-independent basis, Debye-Ang):
   XX=            -65.0104   YY=            -59.7974   ZZ=            -55.4376
   XY=             -4.2724   XZ=             -1.8893   YZ=             -1.3781
 Traceless Quadrupole moment (field-independent basis, Debye-Ang):
   XX=             -4.9286   YY=              0.2844   ZZ=              4.6442
   XY=             -4.2724   XZ=             -1.8893   YZ=             -1.3781
 Octapole moment (field-independent basis, Debye-Ang**2):
  XXX=            358.5467  YYY=            137.6308  ZZZ=             -3.5186  XYY=            105.3866
  XXY=             59.9283  XXZ=              3.1957  XZZ=            109.6848  YZZ=             54.6278
  YYZ=              1.1036  XYZ=              3.2802
 Hexadecapole moment (field-independent basis, Debye-Ang**3):
 XXXX=          -2103.6718 YYYY=          -1608.4779 ZZZZ=            -97.3946 XXXY=           -623.2459
 XXXZ=             -1.7338 YYYX=           -474.0916 YYYZ=             -0.0057 ZZZX=              8.1773
 ZZZY=              5.2291 XXYY=           -552.4251 XXZZ=           -355.2137 YYZZ=           -328.6135
 XXYZ=             -6.0490 YYXZ=             -3.5407 ZZXY=           -223.5041
 N-N= 4.457097587741D+02 E-N=-1.705669203790D+03  KE= 3.518035135362D+02
 Calling FoFJK, ICntrl=      2127 FMM=F ISym2X=0 I1Cent= 0 IOpClX= 0 NMat=1 NMatS=1 NMatT=0.
 -------------------------------------------------------------------
 Center     Atomic                   Forces (Hartrees/Bohr)
 Number     Number              X              Y              Z
 -------------------------------------------------------------------
      1        6          -0.067379101    0.003683476    0.080453990
      2        6           0.049387570   -0.108367782   -0.050952800
      3        6           0.092289976    0.001891292    0.000242212
      4        6           0.049492194    0.085292017    0.000330327
      5        6          -0.047141342    0.082481234    0.000171475
      6        6          -0.111363728   -0.001584497   -0.047515437
      7        1           0.012435555   -0.023272111    0.006360797
      8        1           0.020486107   -0.001293726    0.008871320
      9        1           0.010992115    0.018701961    0.008623450
     10        1          -0.011165325    0.017880206    0.008934697
     11        1          -0.022893811    0.002669299   -0.013412609
     12        1          -0.010653147    0.017575729   -0.008387303
     13        1           0.010633730    0.018149716   -0.008622918
     14        1           0.020091832   -0.000904119   -0.008261051
     15        1           0.015430309   -0.019677057   -0.015024356
     16        1          -0.026332227   -0.001945166    0.005934257
     17        6           0.039290607   -0.111248951    0.039957659
     18        1          -0.016699415   -0.012412779    0.029787288
     19        1           0.025858036   -0.022226422   -0.018466690
     20        6          -0.013916504    0.088302434   -0.045948264
     21        6          -0.018159336   -0.034662534    0.001654078
     22        1           0.000983006   -0.002642295    0.001946265
     23        1          -0.001667101    0.003610074    0.023323613
 -------------------------------------------------------------------
 Cartesian Forces:  Max     0.111363728 RMS     0.039263024

 GradGradGradGradGradGradGradGradGradGradGradGradGradGradGradGradGradGrad
 Berny optimization.
 FormGI is forming the generalized inverse of G from B-inverse, IUseBI=4.
 Internal  Forces:  Max     0.144648936 RMS     0.035804543
 Search for a local minimum.
 Step number   1 out of a maximum of  138
 All quantities printed in internal units (Hartrees-Bohrs-Radians)
 Mixed Optimization -- RFO/linear search
 Second derivative matrix not updated -- first step.
 ITU=  0
     Eigenvalues ---    0.00237   0.00618   0.00618   0.02153   0.02155
     Eigenvalues ---    0.02156   0.02458   0.03361   0.03680   0.04442
     Eigenvalues ---    0.04443   0.04443   0.04801   0.04801   0.05491
     Eigenvalues ---    0.05491   0.06036   0.06036   0.06205   0.06336
     Eigenvalues ---    0.06352   0.06502   0.06542   0.06642   0.09080
     Eigenvalues ---    0.10236   0.10236   0.10238   0.10238   0.10239
     Eigenvalues ---    0.10893   0.11920   0.13341   0.13342   0.16000
     Eigenvalues ---    0.16000   0.22120   0.22121   0.23572   0.25000
     Eigenvalues ---    0.28519   0.28519   0.37230   0.37230   0.37230
     Eigenvalues ---    0.37230   0.37230   0.37230   0.37230   0.37230
     Eigenvalues ---    0.37230   0.37230   0.37230   0.37230   0.37230
     Eigenvalues ---    0.38391   0.42296   0.42410   0.46412   0.46453
     Eigenvalues ---    0.46466   0.46497   1.07376
 RFO step:  Lambda=-2.79661145D-01 EMin= 2.36824120D-03
 Linear search not attempted -- first point.
 Maximum step size (   0.300) exceeded in Quadratic search.
    -- Step size scaled by   0.423
 Iteration  1 RMS(Cart)=  0.09460767 RMS(Int)=  0.00262074
 Iteration  2 RMS(Cart)=  0.00637814 RMS(Int)=  0.00034831
 Iteration  3 RMS(Cart)=  0.00001193 RMS(Int)=  0.00034829
 Iteration  4 RMS(Cart)=  0.00000000 RMS(Int)=  0.00034829
 Variable       Old X    -DE/DX   Delta X   Delta X   Delta X     New X
                                 (Linear)    (Quad)   (Total)
    R1        2.63647   0.13686   0.00000   0.07788   0.07789   2.71436
    R2        2.63584   0.14177   0.00000   0.08063   0.08065   2.71649
    R3        2.91018   0.07350   0.00000   0.05504   0.05504   2.96522
    R4        2.02201   0.02333   0.00000   0.01513   0.01513   2.03714
    R5        2.63562   0.13756   0.00000   0.07811   0.07810   2.71373
    R6        2.02201   0.02072   0.00000   0.01344   0.01344   2.03545
    R7        2.02201   0.02675   0.00000   0.01736   0.01736   2.03936
    R8        2.63697   0.14465   0.00000   0.08220   0.08219   2.71916
    R9        2.02201   0.01925   0.00000   0.01249   0.01249   2.03450
   R10        2.02201   0.01855   0.00000   0.01203   0.01203   2.03404
   R11        2.63584   0.14437   0.00000   0.08196   0.08194   2.71778
   R12        2.02201   0.01978   0.00000   0.01283   0.01283   2.03484
   R13        2.02201   0.01938   0.00000   0.01258   0.01258   2.03458
   R14        2.63643   0.13760   0.00000   0.07826   0.07826   2.71469
   R15        2.02201   0.01967   0.00000   0.01276   0.01276   2.03477
   R16        2.02201   0.01890   0.00000   0.01226   0.01226   2.03427
   R17        2.02201   0.02435   0.00000   0.01580   0.01580   2.03781
   R18        2.02201   0.02034   0.00000   0.01320   0.01320   2.03521
   R19        2.02201   0.02776   0.00000   0.01801   0.01801   2.04002
   R20        2.02201   0.03633   0.00000   0.02357   0.02357   2.04558
   R21        2.91018  -0.02864   0.00000  -0.02145  -0.02145   2.88873
   R22        2.25822   0.04090   0.00000   0.01278   0.01278   2.27100
   R23        2.00500   0.00180   0.00000   0.00115   0.00115   2.00615
    A1        2.09437   0.02487   0.00000   0.01983   0.01966   2.11403
    A2        2.09441  -0.02373   0.00000  -0.01893  -0.01912   2.07529
    A3        1.57080   0.00915   0.00000   0.01224   0.01222   1.58302
    A4        2.09441  -0.00114   0.00000  -0.00089  -0.00109   2.09331
    A5        1.57080   0.00583   0.00000   0.00820   0.00800   1.57880
    A6        1.57079   0.00747   0.00000   0.01043   0.01066   1.58145
    A7        2.09455  -0.01719   0.00000  -0.01420  -0.01415   2.08039
    A8        1.87074   0.00442   0.00000   0.00339   0.00346   1.87420
    A9        1.87074   0.01064   0.00000   0.01057   0.01052   1.88127
   A10        1.87074   0.00798   0.00000   0.00730   0.00725   1.87799
   A11        1.87074   0.00361   0.00000   0.00283   0.00291   1.87365
   A12        1.87696  -0.00975   0.00000  -0.01051  -0.01053   1.86643
   A13        2.09429   0.00324   0.00000   0.00283   0.00281   2.09710
   A14        1.87080  -0.00193   0.00000  -0.00157  -0.00156   1.86924
   A15        1.87080   0.00108   0.00000   0.00143   0.00141   1.87222
   A16        1.87080   0.00365   0.00000   0.00466   0.00461   1.87541
   A17        1.87080  -0.00165   0.00000  -0.00164  -0.00159   1.86921
   A18        1.87700  -0.00546   0.00000  -0.00700  -0.00700   1.87000
   A19        2.09429   0.00406   0.00000   0.00351   0.00347   2.09776
   A20        1.87080   0.00136   0.00000   0.00241   0.00238   1.87319
   A21        1.87080  -0.00128   0.00000  -0.00136  -0.00132   1.86948
   A22        1.87080   0.00157   0.00000   0.00264   0.00262   1.87342
   A23        1.87080  -0.00111   0.00000  -0.00116  -0.00113   1.86967
   A24        1.87700  -0.00579   0.00000  -0.00747  -0.00747   1.86953
   A25        2.09448  -0.00029   0.00000  -0.00003  -0.00004   2.09443
   A26        1.87076   0.00459   0.00000   0.00538   0.00536   1.87612
   A27        1.87076  -0.00109   0.00000  -0.00136  -0.00133   1.86943
   A28        1.87076  -0.00049   0.00000  -0.00027  -0.00025   1.87051
   A29        1.87076   0.00246   0.00000   0.00261   0.00259   1.87335
   A30        1.87697  -0.00612   0.00000  -0.00750  -0.00749   1.86948
   A31        2.09440  -0.01469   0.00000  -0.01195  -0.01190   2.08250
   A32        1.87078   0.00943   0.00000   0.00934   0.00932   1.88010
   A33        1.87078   0.00285   0.00000   0.00189   0.00192   1.87270
   A34        1.87078   0.00301   0.00000   0.00235   0.00235   1.87313
   A35        1.87078   0.00833   0.00000   0.00783   0.00784   1.87862
   A36        1.87698  -0.00933   0.00000  -0.01020  -0.01020   1.86678
   A37        1.57080   0.07073   0.00000   0.08359   0.08347   1.65427
   A38        1.57080   0.04746   0.00000   0.05807   0.05740   1.62820
   A39        1.57080   0.01035   0.00000   0.01268   0.00974   1.58054
   A40        1.57080   0.03208   0.00000   0.04640   0.04646   1.61726
   A41        1.57079   0.03470   0.00000   0.04580   0.04537   1.61617
   A42        3.14160   0.10282   0.00000   0.12999   0.12993   3.27153
   A43        3.14159  -0.01050   0.00000  -0.01355  -0.01355   3.12804
   A44        3.14159  -0.00564   0.00000  -0.00835  -0.00835   3.13324
   A45        3.14160  -0.08216   0.00000  -0.10387  -0.10430   3.03730
   A46        3.14159  -0.00808   0.00000  -0.01044  -0.01044   3.13116
   A47        3.14159  -0.00061   0.00000  -0.00090  -0.00090   3.14069
    D1        0.00056   0.01346   0.00000   0.01869   0.01880   0.01936
    D2        2.13679   0.01567   0.00000   0.02125   0.02135   2.15814
    D3       -2.13566   0.01176   0.00000   0.01592   0.01603  -2.11963
    D4       -3.14103  -0.01246   0.00000  -0.01696  -0.01685   3.12531
    D5       -1.00480  -0.01025   0.00000  -0.01439  -0.01430  -1.01910
    D6        1.00593  -0.01416   0.00000  -0.01972  -0.01961   0.98632
    D7       -1.57024   0.00145   0.00000   0.00215   0.00207  -1.56816
    D8        0.56599   0.00366   0.00000   0.00471   0.00462   0.57061
    D9        2.57672  -0.00025   0.00000  -0.00062  -0.00069   2.57603
   D10        0.00026  -0.01360   0.00000  -0.01885  -0.01901  -0.01875
   D11        2.13645  -0.01194   0.00000  -0.01617  -0.01638   2.12007
   D12       -2.13594  -0.01673   0.00000  -0.02247  -0.02268  -2.15861
   D13       -3.14133   0.01232   0.00000   0.01679   0.01701  -3.12433
   D14       -1.00514   0.01397   0.00000   0.01947   0.01963  -0.98551
   D15        1.00566   0.00919   0.00000   0.01317   0.01333   1.01899
   D16        1.57106   0.00033   0.00000   0.00002   0.00010   1.57116
   D17       -2.57593   0.00198   0.00000   0.00270   0.00273  -2.57320
   D18       -0.56513  -0.00280   0.00000  -0.00360  -0.00357  -0.56870
   D19        1.38607   0.01930   0.00000   0.02573   0.02644   1.41252
   D20       -0.18472   0.00895   0.00000   0.01305   0.01185  -0.17288
   D21       -1.75552  -0.00662   0.00000  -0.00991  -0.00877  -1.76429
   D22        2.95687  -0.01697   0.00000  -0.02260  -0.02337   2.93350
   D23       -0.18472   0.00442   0.00000   0.00558   0.00660  -0.17813
   D24       -1.75552  -0.00592   0.00000  -0.00710  -0.00800  -1.76352
   D25       -0.00099  -0.00520   0.00000  -0.00724  -0.00715  -0.00814
   D26        2.13518   0.00046   0.00000  -0.00017  -0.00014   2.13504
   D27       -2.13717  -0.00627   0.00000  -0.00832  -0.00829  -2.14545
   D28       -2.13722  -0.00568   0.00000  -0.00790  -0.00782  -2.14504
   D29       -0.00104  -0.00002   0.00000  -0.00084  -0.00082  -0.00186
   D30        2.00979  -0.00674   0.00000  -0.00898  -0.00896   2.00083
   D31        2.13523  -0.00007   0.00000  -0.00070  -0.00062   2.13462
   D32       -2.01178   0.00558   0.00000   0.00637   0.00639  -2.00539
   D33       -0.00094  -0.00114   0.00000  -0.00178  -0.00176  -0.00270
   D34        0.00060  -0.00291   0.00000  -0.00404  -0.00401  -0.00342
   D35        2.13677   0.00341   0.00000   0.00427   0.00426   2.14103
   D36       -2.13558  -0.00324   0.00000  -0.00384  -0.00384  -2.13942
   D37       -2.13558  -0.00584   0.00000  -0.00807  -0.00803  -2.14361
   D38        0.00059   0.00047   0.00000   0.00024   0.00025   0.00084
   D39        2.01143  -0.00617   0.00000  -0.00786  -0.00786   2.00357
   D40        2.13677  -0.00051   0.00000  -0.00146  -0.00142   2.13535
   D41       -2.01024   0.00580   0.00000   0.00685   0.00686  -2.00338
   D42        0.00060  -0.00084   0.00000  -0.00126  -0.00125  -0.00065
   D43        0.00023   0.00278   0.00000   0.00388   0.00383   0.00406
   D44        2.13644   0.00594   0.00000   0.00823   0.00819   2.14463
   D45       -2.13598   0.00058   0.00000   0.00153   0.00149  -2.13449
   D46       -2.13594  -0.00343   0.00000  -0.00431  -0.00433  -2.14027
   D47        0.00027  -0.00027   0.00000   0.00003   0.00003   0.00030
   D48        2.01103  -0.00563   0.00000  -0.00666  -0.00667   2.00436
   D49        2.13640   0.00303   0.00000   0.00358   0.00357   2.13997
   D50       -2.01057   0.00618   0.00000   0.00793   0.00793  -2.00265
   D51        0.00019   0.00083   0.00000   0.00123   0.00123   0.00142
   D52       -0.00066   0.00548   0.00000   0.00757   0.00752   0.00686
   D53       -2.13685   0.00070   0.00000   0.00148   0.00146  -2.13539
   D54        2.13554   0.00594   0.00000   0.00829   0.00827   2.14381
   D55       -2.13687  -0.00016   0.00000   0.00047   0.00044  -2.13643
   D56        2.01012  -0.00494   0.00000  -0.00562  -0.00563   2.00450
   D57       -0.00067   0.00031   0.00000   0.00119   0.00118   0.00051
   D58        2.13556   0.00595   0.00000   0.00799   0.00795   2.14351
   D59       -0.00064   0.00116   0.00000   0.00189   0.00189   0.00125
   D60       -2.01143   0.00641   0.00000   0.00871   0.00870  -2.00274
         Item               Value     Threshold  Converged?
 Maximum Force            0.144649     0.000450     NO 
 RMS     Force            0.035805     0.000300     NO 
 Maximum Displacement     0.383413     0.001800     NO 
 RMS     Displacement     0.095577     0.001200     NO 
 Predicted change in Energy=-1.067547D-01
 GradGradGradGradGradGradGradGradGradGradGradGradGradGradGradGradGradGrad

                          Input orientation:                          
 ---------------------------------------------------------------------
 Center     Atomic      Atomic             Coordinates (Angstroms)
 Number     Number       Type             X           Y           Z
 ---------------------------------------------------------------------
      1          6           0       -1.918444   -0.945421    0.072787
      2          6           0       -0.482777   -0.923169    0.033466
      3          6           0        0.197002    0.340577   -0.021897
      4          6           0       -0.556517    1.566149   -0.047668
      5          6           0       -1.994077    1.532011   -0.022379
      6          6           0       -2.681804    0.272030    0.033806
      7          1           0       -0.128804   -1.445442    0.906453
      8          1           0        0.854762    0.383773    0.829324
      9          1           0       -0.234744    2.158139    0.792267
     10          1           0       -2.316621    2.108435    0.827973
     11          1           0       -3.333594    0.223468   -0.823908
     12          1           0       -2.338643    2.046512   -0.902941
     13          1           0       -0.267642    2.096993   -0.938701
     14          1           0        0.816938    0.331679   -0.901766
     15          1           0       -0.167547   -1.496090   -0.825039
     16          1           0       -3.312044    0.282928    0.907062
     17          6           0       -2.654774   -2.330532    0.110846
     18          1           0       -2.518478   -2.475797    1.171840
     19          1           0       -1.749325   -2.887812   -0.092495
     20          6           0       -3.532817   -3.575102   -0.018998
     21          6           0       -4.209048   -4.563697   -0.117115
     22          1           0       -4.799828   -5.441802   -0.200299
     23          1           0       -1.902651   -0.911208    1.150136
 ---------------------------------------------------------------------
                    Distance matrix (angstroms):
                    1          2          3          4          5
     1  C    0.000000
     2  C    1.436378   0.000000
     3  C    2.477472   1.436043   0.000000
     4  C    2.859605   2.491732   1.438918   0.000000
     5  C    2.480412   2.883584   2.494062   1.438187   0.000000
     6  C    1.437507   2.502844   2.880161   2.489624   1.436550
     7  H    2.036623   1.077113   2.039079   3.187941   3.634171
     8  H    3.166982   2.032362   1.076610   2.039322   3.187433
     9  H    3.603413   3.183043   2.037842   1.076792   2.037385
    10  H    3.170945   3.631095   3.188402   2.039310   1.076754
    11  H    2.042796   3.190146   3.622437   3.180802   2.036919
    12  H    3.174945   3.624929   3.180559   2.034260   1.076488
    13  H    3.606181   3.180059   2.035049   1.076655   2.034559
    14  H    3.172231   2.034345   1.076368   2.034645   3.180553
    15  H    2.043274   1.079184   2.037469   3.183224   3.626275
    16  H    2.036413   3.197279   3.630385   3.186078   2.039879
    17  C    1.569128   2.589253   3.909612   4.428536   3.920906
    18  H    1.977374   2.801897   4.090330   4.655515   4.214698
    19  H    1.956732   2.340904   3.770367   4.611135   4.427149
    20  C    3.087045   4.042060   5.407781   5.940677   5.333885
    21  C    4.286590   5.211643   6.593501   7.135883   6.486349
    22  H    5.347372   6.253768   7.644347   8.193922   7.519173
    23  H    1.078009   1.806416   2.710935   3.063350   2.711544
                    6          7          8          9         10
     6  C    0.000000
     7  H    3.198286   0.000000
     8  H    3.626656   2.078311   0.000000
     9  H    3.181317   3.606946   2.082492   0.000000
    10  H    2.033825   4.174056   3.610004   2.082777   0.000000
    11  H    1.078361   4.006257   4.505685   3.994728   2.704819
    12  H    2.035692   4.511213   3.995407   2.704179   1.732161
    13  H    3.178748   3.996588   2.705702   1.732360   2.705473
    14  H    3.622161   2.705964   1.732286   2.704023   3.996004
    15  H    3.191450   1.732666   2.704795   3.996697   4.510385
    16  H    1.076985   3.622193   4.168751   3.605464   2.080769
    17  C    2.603842   2.792293   4.494497   5.144808   4.509218
    18  H    2.978649   2.615838   4.435449   5.180046   4.601541
    19  H    3.296979   2.388392   4.281855   5.342133   5.111905
    20  C    3.940487   4.120585   5.970192   6.663745   5.873592
    21  C    5.073412   5.236373   7.142505   7.861626   6.999416
    22  H    6.098255   6.246140   8.183632   8.921003   8.014346
    23  H    1.803698   1.868508   3.063205   3.511535   3.064867
                   11         12         13         14         15
    11  H    0.000000
    12  H    2.078380   0.000000
    13  H    3.594905   2.071925   0.000000
    14  H    4.152672   3.591427   2.072199   0.000000
    15  H    3.602879   4.155690   3.596274   2.077460   0.000000
    16  H    1.732125   2.708108   3.995755   4.508073   4.006612
    17  C    2.803119   4.504022   5.138378   4.490604   2.785403
    18  H    3.454483   4.978789   5.516435   4.827707   3.236391
    19  H    3.567203   5.035045   5.268751   4.195920   2.230590
    20  C    3.888020   5.814633   6.609076   5.912917   4.036959
    21  C    4.917614   6.914536   7.782961   7.059810   5.122997
    22  H    5.885067   7.913658   8.827196   8.085369   6.116941
    23  H    2.689227   3.626752   4.010707   3.626463   2.693323
                   16         17         18         19         20
    16  H    0.000000
    17  C    2.810006   0.000000
    18  H    2.882779   1.079531   0.000000
    19  H    3.673526   1.082472   1.536195   0.000000
    20  C    3.973754   1.528651   1.911923   1.912751   0.000000
    21  C    5.034216   2.730341   2.979725   2.976481   1.201764
    22  H    6.017664   3.791843   3.985537   3.979957   2.263351
    23  H    1.863179   1.913189   1.681562   2.339787   3.334763
                   21         22         23
    21  C    0.000000
    22  H    1.061606   0.000000
    23  H    4.501785   5.544690   0.000000
 Symmetry turned off by external request.
 Stoichiometry    C9H14
 Framework group  C1[X(C9H14)]
 Deg. of freedom    63
 Full point group                 C1      NOp   1
 Rotational constants (GHZ):      4.4473592      0.7462735      0.6568811
 Standard basis: 6-31G (6D, 7F)
   109 basis functions,   254 primitive gaussians,   109 cartesian basis functions
    34 alpha electrons       34 beta electrons
       nuclear repulsion energy       436.9341004506 Hartrees.
 NAtoms=   23 NActive=   23 NUniq=   23 SFac= 1.00D+00 NAtFMM=   60 NAOKFM=F Big=F
 Integral buffers will be    131072 words long.
 Raffenetti 2 integral format.
 Two-electron integral symmetry is turned off.
 Nuclear repulsion after empirical dispersion term =      436.9184889346 Hartrees.
 One-electron integrals computed using PRISM.
 NBasis=   109 RedAO= T EigKep=  3.03D-04  NBF=   109
 NBsUse=   109 1.00D-06 EigRej= -1.00D+00 NBFU=   109
 Initial guess from the checkpoint file:  "E:\PROJECT- VIT group\ML\Substrates\molecule_16.chk"
 B after Tr=     0.001565   -0.010797    0.011843
         Rot=    0.999998   -0.001376    0.000623    0.001487 Ang=  -0.24 deg.
 ExpMin= 1.61D-01 ExpMax= 3.05D+03 ExpMxC= 4.57D+02 IAcc=1 IRadAn=         1 AccDes= 0.00D+00
 Harris functional with IExCor=  402 and IRadAn=       1 diagonalized for initial guess.
 HarFok:  IExCor=  402 AccDes= 0.00D+00 IRadAn=         1 IDoV= 1 UseB2=F ITyADJ=14
 ICtDFT=  3500011 ScaDFX=  1.000000  1.000000  1.000000  1.000000
 FoFCou: FMM=F IPFlag=           0 FMFlag=      100000 FMFlg1=           0
         NFxFlg=           0 DoJE=T BraDBF=F KetDBF=T FulRan=T
         wScrn=  0.000000 ICntrl=     500 IOpCl=  0 I1Cent=   200000004 NGrid=           0
         NMat0=    1 NMatS0=      1 NMatT0=    0 NMatD0=    1 NMtDS0=    0 NMtDT0=    0
 Symmetry not used in FoFCou.
 Keep R1 ints in memory in canonical form, NReq=18961153.
 Requested convergence on RMS density matrix=1.00D-08 within 128 cycles.
 Requested convergence on MAX density matrix=1.00D-06.
 Requested convergence on             energy=1.00D-06.
 No special actions if energy rises.
 Integral accuracy reduced to 1.0D-05 until final iterations.
 Initial convergence to 1.0D-05 achieved.  Increase integral accuracy.
 SCF Done:  E(RB3LYP) =  -351.010199449     A.U. after   14 cycles
            NFock= 14  Conv=0.24D-08     -V/T= 2.0003
 Calling FoFJK, ICntrl=      2127 FMM=F ISym2X=0 I1Cent= 0 IOpClX= 0 NMat=1 NMatS=1 NMatT=0.
 -------------------------------------------------------------------
 Center     Atomic                   Forces (Hartrees/Bohr)
 Number     Number              X              Y              Z
 -------------------------------------------------------------------
      1        6          -0.054959060    0.006270656    0.080320301
      2        6           0.032909027   -0.075041501   -0.046384307
      3        6           0.058075086    0.004150507   -0.000755590
      4        6           0.029454147    0.054084567   -0.001516018
      5        6          -0.030403667    0.051846387   -0.000829077
      6        6          -0.074641012   -0.005885041   -0.043179542
      7        1           0.008448699   -0.016294209    0.004251145
      8        1           0.015213770    0.000175851    0.006126156
      9        1           0.007739918    0.013913200    0.005607679
     10        1          -0.007919413    0.013342274    0.006104591
     11        1          -0.016300644    0.001448976   -0.009114906
     12        1          -0.008488355    0.012386518   -0.006284630
     13        1           0.007400860    0.013389781   -0.006611115
     14        1           0.014723687   -0.000712348   -0.006249307
     15        1           0.011163653   -0.013574193   -0.009984747
     16        1          -0.018424872   -0.002522934    0.004068975
     17        6           0.044549903   -0.092596131    0.035178485
     18        1          -0.013557285   -0.002519836    0.022193840
     19        1           0.018460456   -0.013387100   -0.015830383
     20        6          -0.008559216    0.074473738   -0.036202925
     21        6          -0.012901954   -0.020423111   -0.000869091
     22        1           0.000421064   -0.002274202    0.001440485
     23        1          -0.002404794   -0.000251850    0.018519978
 -------------------------------------------------------------------
 Cartesian Forces:  Max     0.092596131 RMS     0.029702433

 GradGradGradGradGradGradGradGradGradGradGradGradGradGradGradGradGradGrad
 Berny optimization.
 Using GEDIIS/GDIIS optimizer.
 FormGI is forming the generalized inverse of G from B-inverse, IUseBI=4.
 Internal  Forces:  Max     0.095851346 RMS     0.025177374
 Search for a local minimum.
 Step number   2 out of a maximum of  138
 All quantities printed in internal units (Hartrees-Bohrs-Radians)
 Mixed Optimization -- RFO/linear search
 Update second derivatives using D2CorX and points    1    2
 DE= -1.02D-01 DEPred=-1.07D-01 R= 9.52D-01
 TightC=F SS=  1.41D+00  RLast= 3.11D-01 DXNew= 5.0454D-01 9.3154D-01
 Trust test= 9.52D-01 RLast= 3.11D-01 DXMaxT set to 5.05D-01
 ITU=  1  0
 Use linear search instead of GDIIS.
 Linear search step of   0.600 exceeds DXMaxT=   0.505 but not scaled.
 Quartic linear search produced a step of  2.00000.
 Iteration  1 RMS(Cart)=  0.16676074 RMS(Int)=  0.01009240
 Iteration  2 RMS(Cart)=  0.03736018 RMS(Int)=  0.00210868
 Iteration  3 RMS(Cart)=  0.00080172 RMS(Int)=  0.00207177
 Iteration  4 RMS(Cart)=  0.00000138 RMS(Int)=  0.00207177
 Iteration  5 RMS(Cart)=  0.00000001 RMS(Int)=  0.00207177
 Variable       Old X    -DE/DX   Delta X   Delta X   Delta X     New X
                                 (Linear)    (Quad)   (Total)
    R1        2.71436   0.09052   0.15578   0.00000   0.15588   2.87024
    R2        2.71649   0.09353   0.16130   0.00000   0.16142   2.87792
    R3        2.96522   0.03688   0.11009   0.00000   0.11009   3.07531
    R4        2.03714   0.01847   0.03027   0.00000   0.03027   2.06741
    R5        2.71373   0.09205   0.15621   0.00000   0.15620   2.86992
    R6        2.03545   0.01413   0.02688   0.00000   0.02688   2.06233
    R7        2.03936   0.01841   0.03471   0.00000   0.03471   2.07407
    R8        2.71916   0.09585   0.16437   0.00000   0.16426   2.88342
    R9        2.03450   0.01415   0.02498   0.00000   0.02498   2.05948
   R10        2.03404   0.01359   0.02407   0.00000   0.02407   2.05811
   R11        2.71778   0.09574   0.16389   0.00000   0.16378   2.88156
   R12        2.03484   0.01434   0.02567   0.00000   0.02567   2.06051
   R13        2.03458   0.01406   0.02515   0.00000   0.02515   2.05973
   R14        2.71469   0.09184   0.15652   0.00000   0.15652   2.87121
   R15        2.03477   0.01433   0.02552   0.00000   0.02552   2.06029
   R16        2.03427   0.01378   0.02452   0.00000   0.02452   2.05879
   R17        2.03781   0.01704   0.03160   0.00000   0.03160   2.06940
   R18        2.03521   0.01405   0.02640   0.00000   0.02640   2.06161
   R19        2.04002   0.02044   0.03602   0.00000   0.03602   2.07604
   R20        2.04558   0.02532   0.04714   0.00000   0.04714   2.09272
   R21        2.88873  -0.02706  -0.04289   0.00000  -0.04289   2.84584
   R22        2.27100   0.02565   0.02556   0.00000   0.02556   2.29657
   R23        2.00615   0.00153   0.00229   0.00000   0.00229   2.00844
    A1        2.11403   0.01862   0.03932   0.00000   0.03821   2.15223
    A2        2.07529  -0.01897  -0.03823   0.00000  -0.03915   2.03614
    A3        1.58302   0.00867   0.02444   0.00000   0.02430   1.60732
    A4        2.09331  -0.00035  -0.00219   0.00000  -0.00343   2.08988
    A5        1.57880   0.00589   0.01600   0.00000   0.01476   1.59356
    A6        1.58145   0.00526   0.02131   0.00000   0.02267   1.60412
    A7        2.08039  -0.01286  -0.02831   0.00000  -0.02801   2.05238
    A8        1.87420   0.00227   0.00691   0.00000   0.00728   1.88148
    A9        1.88127   0.00857   0.02105   0.00000   0.02075   1.90202
   A10        1.87799   0.00643   0.01450   0.00000   0.01421   1.89220
   A11        1.87365   0.00261   0.00582   0.00000   0.00629   1.87994
   A12        1.86643  -0.00706  -0.02105   0.00000  -0.02114   1.84529
   A13        2.09710   0.00203   0.00562   0.00000   0.00548   2.10258
   A14        1.86924  -0.00114  -0.00312   0.00000  -0.00307   1.86617
   A15        1.87222   0.00086   0.00283   0.00000   0.00276   1.87497
   A16        1.87541   0.00270   0.00922   0.00000   0.00893   1.88434
   A17        1.86921  -0.00116  -0.00317   0.00000  -0.00284   1.86637
   A18        1.87000  -0.00410  -0.01399   0.00000  -0.01399   1.85602
   A19        2.09776   0.00333   0.00694   0.00000   0.00667   2.10443
   A20        1.87319   0.00098   0.00476   0.00000   0.00458   1.87777
   A21        1.86948  -0.00119  -0.00264   0.00000  -0.00244   1.86704
   A22        1.87342   0.00119   0.00524   0.00000   0.00511   1.87853
   A23        1.86967  -0.00104  -0.00226   0.00000  -0.00209   1.86758
   A24        1.86953  -0.00423  -0.01494   0.00000  -0.01494   1.85459
   A25        2.09443  -0.00022  -0.00009   0.00000  -0.00017   2.09426
   A26        1.87612   0.00331   0.01072   0.00000   0.01058   1.88669
   A27        1.86943  -0.00090  -0.00266   0.00000  -0.00247   1.86696
   A28        1.87051  -0.00016  -0.00051   0.00000  -0.00039   1.87011
   A29        1.87335   0.00179   0.00518   0.00000   0.00506   1.87841
   A30        1.86948  -0.00452  -0.01498   0.00000  -0.01497   1.85451
   A31        2.08250  -0.01111  -0.02380   0.00000  -0.02346   2.05903
   A32        1.88010   0.00778   0.01865   0.00000   0.01849   1.89859
   A33        1.87270   0.00119   0.00384   0.00000   0.00404   1.87673
   A34        1.87313   0.00201   0.00471   0.00000   0.00473   1.87786
   A35        1.87862   0.00676   0.01569   0.00000   0.01571   1.89434
   A36        1.86678  -0.00678  -0.02041   0.00000  -0.02043   1.84635
   A37        1.65427   0.05108   0.16694   0.00000   0.16490   1.81917
   A38        1.62820   0.03685   0.11480   0.00000   0.10963   1.73783
   A39        1.58054   0.00835   0.01948   0.00000   0.00179   1.58232
   A40        1.61726   0.03571   0.09292   0.00000   0.09393   1.71118
   A41        1.61617   0.03368   0.09074   0.00000   0.08995   1.70612
   A42        3.27153   0.08680   0.25986   0.00000   0.25883   3.53035
   A43        3.12804  -0.00703  -0.02710   0.00000  -0.02710   3.10094
   A44        3.13324  -0.00414  -0.01670   0.00000  -0.01670   3.11655
   A45        3.03730  -0.07297  -0.20860   0.00000  -0.20938   2.82791
   A46        3.13116  -0.00616  -0.02087   0.00000  -0.02087   3.11029
   A47        3.14069  -0.00059  -0.00181   0.00000  -0.00181   3.13888
    D1        0.01936   0.01269   0.03760   0.00000   0.03824   0.05761
    D2        2.15814   0.01401   0.04270   0.00000   0.04328   2.20142
    D3       -2.11963   0.01118   0.03207   0.00000   0.03273  -2.08690
    D4        3.12531  -0.01021  -0.03370   0.00000  -0.03308   3.09222
    D5       -1.01910  -0.00889  -0.02859   0.00000  -0.02805  -1.04715
    D6        0.98632  -0.01172  -0.03923   0.00000  -0.03860   0.94772
    D7       -1.56816   0.00016   0.00415   0.00000   0.00368  -1.56448
    D8        0.57061   0.00148   0.00925   0.00000   0.00871   0.57933
    D9        2.57603  -0.00135  -0.00138   0.00000  -0.00184   2.57419
   D10       -0.01875  -0.01284  -0.03801   0.00000  -0.03890  -0.05765
   D11        2.12007  -0.01153  -0.03276   0.00000  -0.03397   2.08610
   D12       -2.15861  -0.01497  -0.04536   0.00000  -0.04655  -2.20516
   D13       -3.12433   0.01067   0.03401   0.00000   0.03520  -3.08913
   D14       -0.98551   0.01198   0.03926   0.00000   0.04013  -0.94537
   D15        1.01899   0.00854   0.02667   0.00000   0.02756   1.04655
   D16        1.57116   0.00121   0.00020   0.00000   0.00069   1.57185
   D17       -2.57320   0.00253   0.00545   0.00000   0.00563  -2.56758
   D18       -0.56870  -0.00091  -0.00714   0.00000  -0.00695  -0.57566
   D19        1.41252   0.01967   0.05289   0.00000   0.05689   1.46940
   D20       -0.17288   0.00517   0.02369   0.00000   0.01664  -0.15624
   D21       -1.76429  -0.00255  -0.01754   0.00000  -0.01084  -1.77513
   D22        2.93350  -0.01706  -0.04674   0.00000  -0.05109   2.88241
   D23       -0.17813   0.00727   0.01319   0.00000   0.01908  -0.15905
   D24       -1.76352  -0.00724  -0.01600   0.00000  -0.02117  -1.78469
   D25       -0.00814  -0.00482  -0.01429   0.00000  -0.01373  -0.02186
   D26        2.13504  -0.00062  -0.00028   0.00000  -0.00008   2.13496
   D27       -2.14545  -0.00549  -0.01657   0.00000  -0.01634  -2.16180
   D28       -2.14504  -0.00405  -0.01564   0.00000  -0.01517  -2.16021
   D29       -0.00186   0.00014  -0.00163   0.00000  -0.00153  -0.00339
   D30        2.00083  -0.00472  -0.01792   0.00000  -0.01779   1.98305
   D31        2.13462  -0.00032  -0.00124   0.00000  -0.00078   2.13384
   D32       -2.00539   0.00388   0.01277   0.00000   0.01287  -1.99253
   D33       -0.00270  -0.00099  -0.00352   0.00000  -0.00340  -0.00609
   D34       -0.00342  -0.00245  -0.00803   0.00000  -0.00787  -0.01129
   D35        2.14103   0.00256   0.00852   0.00000   0.00847   2.14950
   D36       -2.13942  -0.00242  -0.00769   0.00000  -0.00774  -2.14716
   D37       -2.14361  -0.00479  -0.01606   0.00000  -0.01582  -2.15943
   D38        0.00084   0.00022   0.00049   0.00000   0.00052   0.00136
   D39        2.00357  -0.00477  -0.01572   0.00000  -0.01568   1.98789
   D40        2.13535  -0.00080  -0.00283   0.00000  -0.00257   2.13278
   D41       -2.00338   0.00421   0.01372   0.00000   0.01377  -1.98962
   D42       -0.00065  -0.00078  -0.00249   0.00000  -0.00244  -0.00309
   D43        0.00406   0.00233   0.00766   0.00000   0.00734   0.01140
   D44        2.14463   0.00489   0.01638   0.00000   0.01614   2.16077
   D45       -2.13449   0.00083   0.00299   0.00000   0.00273  -2.13176
   D46       -2.14027  -0.00258  -0.00866   0.00000  -0.00875  -2.14902
   D47        0.00030  -0.00002   0.00006   0.00000   0.00005   0.00035
   D48        2.00436  -0.00407  -0.01334   0.00000  -0.01336   1.99100
   D49        2.13997   0.00223   0.00714   0.00000   0.00704   2.14701
   D50       -2.00265   0.00479   0.01585   0.00000   0.01584  -1.98680
   D51        0.00142   0.00073   0.00246   0.00000   0.00243   0.00385
   D52        0.00686   0.00505   0.01504   0.00000   0.01472   0.02158
   D53       -2.13539   0.00085   0.00292   0.00000   0.00279  -2.13261
   D54        2.14381   0.00439   0.01653   0.00000   0.01639   2.16020
   D55       -2.13643   0.00081   0.00087   0.00000   0.00066  -2.13578
   D56        2.00450  -0.00339  -0.01125   0.00000  -0.01128   1.99322
   D57        0.00051   0.00015   0.00237   0.00000   0.00232   0.00283
   D58        2.14351   0.00524   0.01590   0.00000   0.01568   2.15918
   D59        0.00125   0.00104   0.00378   0.00000   0.00374   0.00499
   D60       -2.00274   0.00458   0.01740   0.00000   0.01735  -1.98539
         Item               Value     Threshold  Converged?
 Maximum Force            0.095851     0.000450     NO 
 RMS     Force            0.025177     0.000300     NO 
 Maximum Displacement     0.775302     0.001800     NO 
 RMS     Displacement     0.188718     0.001200     NO 
 Predicted change in Energy=-1.067325D-01
 GradGradGradGradGradGradGradGradGradGradGradGradGradGradGradGradGradGrad

                          Input orientation:                          
 ---------------------------------------------------------------------
 Center     Atomic      Atomic             Coordinates (Angstroms)
 Number     Number       Type             X           Y           Z
 ---------------------------------------------------------------------
      1          6           0       -1.861238   -1.024072    0.221762
      2          6           0       -0.348416   -0.964893    0.099984
      3          6           0        0.290616    0.402196   -0.070743
      4          6           0       -0.574530    1.656890   -0.144577
      5          6           0       -2.093939    1.557274   -0.062987
      6          6           0       -2.758102    0.201501    0.108130
      7          1           0        0.076460   -1.435554    0.988228
      8          1           0        0.995447    0.527771    0.750947
      9          1           0       -0.244833    2.331441    0.646118
     10          1           0       -2.430875    2.186617    0.761070
     11          1           0       -3.443457    0.059983   -0.734168
     12          1           0       -2.491345    2.006861   -0.972314
     13          1           0       -0.337649    2.151765   -1.086387
     14          1           0        0.885230    0.372728   -0.982727
     15          1           0       -0.033805   -1.588628   -0.746536
     16          1           0       -3.386042    0.232945    0.999694
     17          6           0       -2.527591   -2.504647    0.332418
     18          1           0       -2.456869   -2.753521    1.400110
     19          1           0       -1.635880   -3.124540    0.115721
     20          6           0       -3.575864   -3.515727   -0.050645
     21          6           0       -4.385977   -4.370755   -0.349941
     22          1           0       -5.075101   -5.136761   -0.610571
     23          1           0       -1.817719   -0.922253    1.310170
 ---------------------------------------------------------------------
                    Distance matrix (angstroms):
                    1          2          3          4          5
     1  C    0.000000
     2  C    1.518868   0.000000
     3  C    2.598129   1.518698   0.000000
     4  C    2.996227   2.642855   1.525839   0.000000
     5  C    2.607409   3.071602   2.649598   1.524855   0.000000
     6  C    1.522927   2.677149   3.060548   2.636286   1.519379
     7  H    2.124020   1.091338   2.131809   3.357119   3.843528
     8  H    3.293767   2.111342   1.089830   2.131127   3.356586
     9  H    3.748641   3.342875   2.126636   1.090375   2.126349
    10  H    3.305127   3.834799   3.358956   2.132329   1.090261
    11  H    2.142988   3.365332   3.807958   3.335936   2.124515
    12  H    3.318043   3.817498   3.335729   2.117028   1.089465
    13  H    3.757461   3.334839   2.118311   1.089964   2.117857
    14  H    3.308312   2.117399   1.089105   2.117183   3.335344
    15  H    2.143789   1.097553   2.127282   3.344865   3.822053
    16  H    2.123746   3.386955   3.833053   3.352845   2.133698
    17  C    1.627383   2.678371   4.068731   4.621727   4.104096
    18  H    2.175839   3.055338   4.435159   5.037954   4.566763
    19  H    2.115182   2.514336   4.022937   4.904721   4.707562
    20  C    3.036856   4.116535   5.504561   5.981036   5.285035
    21  C    4.231009   5.301342   6.688014   7.134550   6.362178
    22  H    5.285443   6.344361   7.730613   8.162474   7.348284
    23  H    1.094026   1.904000   2.847132   3.211508   2.847791
                    6          7          8          9         10
     6  C    0.000000
     7  H    3.389582   0.000000
     8  H    3.822146   2.180707   0.000000
     9  H    3.338053   3.796119   2.191463   0.000000
    10  H    2.115205   4.411174   3.806778   2.193848   0.000000
    11  H    1.095082   4.194413   4.704069   4.158835   2.789916
    12  H    2.120811   4.720972   4.161136   2.787740   1.743728
    13  H    3.330013   4.164658   2.791111   1.744269   2.792115
    14  H    3.806988   2.794398   1.744079   2.786886   4.162640
    15  H    3.369987   1.744992   2.789437   4.165448   4.719247
    16  H    1.090955   3.843558   4.398437   3.794192   2.187720
    17  C    2.725193   2.890351   4.667175   5.356971   4.711800
    18  H    3.239153   2.885210   4.806951   5.596289   4.981367
    19  H    3.510269   2.558525   4.546072   5.655445   5.408963
    20  C    3.809426   4.329647   6.155429   6.765399   5.872530
    21  C    4.874970   5.506309   7.359839   7.941073   6.932235
    22  H    5.863621   6.541687   8.413810   8.982472   7.906022
    23  H    1.895269   1.988728   3.213908   3.674433   3.215982
                   11         12         13         14         15
    11  H    0.000000
    12  H    2.180267   0.000000
    13  H    3.761070   2.161577   0.000000
    14  H    4.347082   3.751234   2.161285   0.000000
    15  H    3.787320   4.360966   3.768071   2.178837   0.000000
    16  H    1.743413   2.799298   4.162487   4.710976   4.195824
    17  C    2.924678   4.696525   5.337699   4.653627   2.867438
    18  H    3.666647   5.318912   5.893691   5.159552   3.440392
    19  H    3.759100   5.314783   5.565057   4.448985   2.380999
    20  C    3.642861   5.703037   6.609029   5.990845   4.091962
    21  C    4.546142   6.682137   7.711976   7.119458   5.180629
    22  H    5.448273   7.605129   8.705886   8.125178   6.166230
    23  H    2.790543   3.774018   4.169374   3.773630   2.802934
                   16         17         18         19         20
    16  H    0.000000
    17  C    2.945608   0.000000
    18  H    3.153201   1.098593   0.000000
    19  H    3.888082   1.107417   1.568863   0.000000
    20  C    3.897664   1.505953   1.984388   1.986012   0.000000
    21  C    4.900555   2.720582   3.065873   3.054984   1.215292
    22  H    5.854880   3.782467   4.071585   4.050280   2.277933
    23  H    1.972439   1.990952   1.941686   2.511940   3.415992
                   21         22         23
    21  C    0.000000
    22  H    1.062819   0.000000
    23  H    4.609130   5.662319   0.000000
 Symmetry turned off by external request.
 Stoichiometry    C9H14
 Framework group  C1[X(C9H14)]
 Deg. of freedom    63
 Full point group                 C1      NOp   1
 Rotational constants (GHZ):      3.7509780      0.7370849      0.6404064
 Standard basis: 6-31G (6D, 7F)
   109 basis functions,   254 primitive gaussians,   109 cartesian basis functions
    34 alpha electrons       34 beta electrons
       nuclear repulsion energy       421.9771205759 Hartrees.
 NAtoms=   23 NActive=   23 NUniq=   23 SFac= 1.00D+00 NAtFMM=   60 NAOKFM=F Big=F
 Integral buffers will be    131072 words long.
 Raffenetti 2 integral format.
 Two-electron integral symmetry is turned off.
 Nuclear repulsion after empirical dispersion term =      421.9619895480 Hartrees.
 One-electron integrals computed using PRISM.
 NBasis=   109 RedAO= T EigKep=  4.71D-04  NBF=   109
 NBsUse=   109 1.00D-06 EigRej= -1.00D+00 NBFU=   109
 Initial guess from the checkpoint file:  "E:\PROJECT- VIT group\ML\Substrates\molecule_16.chk"
 B after Tr=     0.008076   -0.009565    0.019754
         Rot=    0.999993   -0.002771    0.000370    0.002641 Ang=  -0.44 deg.
 ExpMin= 1.61D-01 ExpMax= 3.05D+03 ExpMxC= 4.57D+02 IAcc=1 IRadAn=         1 AccDes= 0.00D+00
 Harris functional with IExCor=  402 and IRadAn=       1 diagonalized for initial guess.
 HarFok:  IExCor=  402 AccDes= 0.00D+00 IRadAn=         1 IDoV= 1 UseB2=F ITyADJ=14
 ICtDFT=  3500011 ScaDFX=  1.000000  1.000000  1.000000  1.000000
 FoFCou: FMM=F IPFlag=           0 FMFlag=      100000 FMFlg1=           0
         NFxFlg=           0 DoJE=T BraDBF=F KetDBF=T FulRan=T
[...]
 ,0.00030975,-0.00060891,0.00069004,0.00058038,0.00251580,0.06012800,-0
 .00060002,0.00037296,0.00015832,-0.00901677,0.00032608,-0.01395321,-0.
 10261685,-0.00353636,-0.24342161,-0.00869387,-0.00224904,-0.01789241,-
 0.00066719,0.00004022,0.00042032,-0.00017145,-0.00000004,-0.00099998,0
 .00140766,0.00220187,-0.00068468,0.00307818,0.00029270,0.00483806,0.00
 118361,-0.00336846,-0.00037770,-0.00002293,0.00011363,0.00038017,0.001
 02120,0.00052933,0.00062662,0.00077057,-0.00038482,-0.00011801,-0.0000
 3702,-0.00040530,0.00064641,0.11370775,0.00621360,0.26805363,0.0009895
 1,0.02073966,0.02194565,-0.05447575,-0.02348122,-0.02322803,0.00031140
 ,-0.00445990,-0.00457639,-0.00036065,-0.00018077,0.00093421,0.00022175
 ,-0.00012066,0.00003353,0.00087876,-0.00064971,0.00106982,-0.00349746,
 -0.02049180,-0.01794147,-0.00031643,0.00007108,0.00003754,-0.00012191,
 0.00020131,0.00013741,0.00001747,-0.00012867,-0.00001814,-0.00016036,-
 0.00009466,-0.00070222,0.00005548,0.00002895,-0.00006733,0.00019010,-0
 .00019363,-0.00006505,0.00109620,0.00054885,0.00019221,0.05895176,-0.0
 0164161,-0.00196744,-0.00236564,-0.02162634,-0.19183561,-0.12548185,-0
 .00255399,-0.02318442,-0.01712537,-0.00223167,-0.00329400,0.00398783,-
 0.00054492,0.00035998,0.00013034,-0.00020143,-0.00015314,-0.00036849,0
 .00172553,0.00630446,0.00560147,-0.00050044,-0.00047829,0.00022879,-0.
 00012436,0.00043532,0.00014021,0.00010959,0.00005930,-0.00005020,0.000
 39587,-0.00015179,0.00030149,0.00005853,-0.00000658,0.00002772,0.00064
 281,-0.00138779,-0.00078650,0.00071163,0.00104535,0.00004472,0.0275896
 4,0.21365016,-0.00032346,-0.01314988,-0.01601221,-0.02232182,-0.124856
 73,-0.15562256,0.00143148,0.01744355,0.01005188,0.00100440,0.00291991,
 -0.00151066,0.00023998,0.00011482,-0.00008436,-0.00009957,0.00045188,-
 0.00004299,-0.00272824,-0.01589697,-0.01331772,0.00023911,-0.00042843,
 -0.00005714,0.00018294,0.00014654,0.00014927,-0.00004552,0.00007046,-0
 .00000258,0.00025724,-0.00022399,0.00027050,0.00001826,-0.00003819,0.0
 0004182,-0.00024438,0.00084620,0.00045694,-0.00010118,0.00030961,0.001
 59432,0.01932642,0.13349671,0.17457874,-0.01987219,0.00087813,0.013153
 95,-0.00125005,0.00192518,-0.00357103,0.00093981,0.00025604,-0.0007859
 8,0.00084901,-0.00237765,0.00055595,-0.01042621,0.00029535,0.00554978,
 -0.23814749,0.00198387,0.10932036,-0.00111367,0.00029832,0.00069125,-0
 .00002603,-0.00002763,0.00004022,-0.00010850,0.00003881,-0.00010817,0.
 00087799,-0.00007851,-0.00078463,0.00495337,-0.00032190,-0.00352459,-0
 .00030589,-0.00050478,0.00013962,-0.00068936,-0.00000364,0.00003222,0.
 00014145,-0.00004477,0.00010684,-0.00011028,0.00017470,0.00010456,0.26
 232754,0.01980414,-0.00232861,-0.01175606,0.00259924,-0.00206120,0.003
 18112,0.00017348,-0.00045657,0.00003773,-0.00041302,-0.00550558,0.0010
 0153,-0.02993002,-0.00248366,0.01393428,0.00118761,-0.04711433,-0.0005
 0928,0.00120169,-0.00019045,-0.00060151,0.00002012,0.00007971,0.000034
 12,-0.00016582,-0.00004776,-0.00016265,-0.00033357,0.00153633,-0.00027
 271,0.00918424,0.00031788,-0.00577995,0.00043592,-0.00032456,0.0004031
 8,-0.00168855,0.00000043,0.00009533,-0.00000038,0.00000416,0.00005333,
 -0.00001823,0.00001209,-0.00012523,-0.00182448,0.05758346,-0.01496813,
 0.00211054,0.00751410,-0.00157132,0.00222080,-0.00085637,-0.00017370,0
 .00000159,-0.00054530,-0.00079300,-0.00052259,0.00042211,-0.00117767,-
 0.00254088,0.00006232,0.11113023,-0.00091186,-0.11542719,-0.00051369,0
 .00017372,0.00042978,0.00015772,0.00003718,0.00014327,0.00004936,0.000
 04685,0.00004154,-0.00061619,0.00011692,0.00136932,0.02903286,-0.00036
 323,-0.01685705,0.00002903,0.00026014,-0.00022599,0.00001174,0.0000064
 6,0.00005266,-0.00002430,-0.00008519,0.00049583,-0.00035741,0.00015840
 ,0.00009378,-0.12028632,0.00069599,0.12182458,-0.08835664,-0.02555765,
 0.00388257,-0.01437719,-0.02639650,0.00995714,-0.00414960,0.00140798,0
 .00120762,-0.00048491,0.00039139,-0.00003095,-0.00312165,0.00255507,-0
 .00305369,0.00950762,0.01935627,-0.00267058,-0.00030050,-0.00009111,-0
 .00028445,-0.00026990,-0.00123780,0.00078845,0.00014885,0.00002939,0.0
 0003692,0.00003453,0.00015107,0.00015416,0.00026547,-0.00004044,-0.000
 31499,0.00039094,0.00157361,-0.00021230,0.00010275,-0.00001951,-0.0000
 0502,0.00000020,0.00000875,0.00016578,0.00093854,-0.00113995,-0.000331
 71,0.00074157,0.00119511,-0.00013173,0.54070925,-0.02516111,-0.1320396
 5,0.01055007,-0.00319657,0.00030904,0.00301946,0.00129914,0.00044492,-
 0.00121891,0.00055732,0.00046664,-0.00013942,0.00309858,-0.00066813,0.
 00253147,-0.00776527,-0.02754556,0.00526783,0.00086899,0.00027987,-0.0
 0052743,0.00020897,0.00036189,-0.00029685,0.00000195,0.00004850,-0.000
 07686,0.00000674,-0.00006608,-0.00005838,-0.00063987,0.00099333,-0.000
 30825,-0.00044120,-0.00101361,-0.00006971,-0.00002526,0.00010601,-0.00
 001377,-0.00003594,0.00001639,-0.00010255,0.00048696,0.00069818,-0.001
 29086,-0.00083908,0.00042559,-0.00028305,-0.05722464,0.45024849,0.0067
 0476,0.01821274,-0.07893192,0.01041470,0.01864681,-0.00712358,0.003645
 65,-0.00104592,-0.00112687,-0.00046690,-0.00070223,-0.00038126,-0.0017
 8216,0.00090024,-0.00125892,0.00594082,0.01560475,-0.00227822,-0.00040
 568,-0.00044490,0.00016142,0.00025879,0.00090068,-0.00056052,0.0003092
 8,0.00010637,0.00033861,-0.00016540,0.00018395,-0.00001067,0.00049164,
 0.00054279,-0.00063927,0.00023755,0.00073590,0.00013894,0.00005206,-0.
 00004048,0.00019210,-0.00004143,0.00013226,-0.00015362,0.00067609,0.00
 101432,0.00017518,0.00092006,-0.00105897,0.00087923,-0.00123804,0.0100
 1818,0.53741110,-0.01209155,0.00180471,0.00922595,0.00054312,-0.003639
 95,0.00023517,-0.00072299,0.00056422,0.00013606,0.00001874,0.00011072,
 0.00005216,-0.00010332,-0.00007113,-0.00021748,0.00072404,0.00073818,-
 0.00052812,0.00012044,0.00012521,-0.00019416,-0.00006460,-0.00030207,0
 .00021243,0.00001367,0.00002105,-0.00002532,0.00004191,-0.00005998,-0.
 00003353,-0.00002326,0.00004441,-0.00012660,0.00004569,0.00003277,-0.0
 0000408,0.00003783,-0.00007228,-0.00001969,0.00000184,-0.00010566,0.00
 012657,0.00031376,0.00006056,-0.00030054,0.00062464,-0.00036104,0.0001
 5813,-0.18946877,0.02615757,0.12062250,0.20832263,-0.02494890,0.000293
 61,0.02069825,-0.00076181,-0.00547532,0.00084533,-0.00157474,0.0003725
 3,0.00043310,-0.00008841,0.00030967,0.00006927,-0.00006821,0.00009070,
 -0.00035638,-0.00116983,0.00140371,0.00031091,-0.00023168,-0.00001857,
 -0.00012610,-0.00012422,-0.00047545,0.00029048,0.00001262,0.00001136,-
 0.00001699,0.00003951,-0.00002466,0.00000037,0.00005957,-0.00005601,-0
 .00005021,0.00005022,0.00011870,-0.00002778,0.00006705,-0.00004437,-0.
 00000443,0.00003458,-0.00002345,0.00009674,0.00029988,-0.00003479,0.00
 003820,0.00085120,-0.00039743,-0.00013369,0.02705842,-0.04961765,-0.02
 137278,-0.02477904,0.05938716,0.00620635,-0.00082282,-0.00442301,-0.00
 015307,0.00113848,0.00072806,0.00036145,-0.00018150,0.00010291,0.00003
 124,-0.00013927,0.00000486,-0.00021894,0.00012278,0.00018988,0.0006064
 0,-0.00058850,-0.00055242,0.00031738,0.00007798,-0.00001922,-0.0000044
 9,0.00013357,-0.00007679,-0.00002645,-0.00000639,-0.00000368,0.0000022
 7,0.00002416,0.00000102,-0.00001017,0.00003322,0.00010734,-0.00001113,
 -0.00004882,0.00001062,-0.00007234,0.00002302,0.00000958,0.00000018,-0
 .00002397,-0.00000024,-0.00034106,0.00009976,0.00016074,-0.00075145,0.
 00064485,-0.00002280,0.12174579,-0.02055271,-0.15105443,-0.13261832,0.
 02663973,0.17026566,0.00857115,-0.01049020,0.00754930,0.00103321,-0.00
 039511,0.00037278,0.00011374,0.00008164,-0.00010781,0.00015446,0.00007
 763,-0.00007279,0.00041004,-0.00056252,0.00024212,-0.00112540,-0.00199
 815,0.00055311,0.00012059,0.00016438,-0.00039103,0.00001112,0.00003959
 ,-0.00002786,-0.00000755,-0.00000915,-0.00000793,-0.00000225,-0.000012
 50,0.00000303,-0.00002376,-0.00000409,0.00002762,-0.00004661,-0.000193
 17,0.00000820,0.00000612,0.00002803,0.00001809,-0.00000411,0.00003411,
 -0.00002211,0.00004065,0.00014278,-0.00007638,0.00025899,-0.00018904,-
 0.00013182,-0.16457990,0.10020681,-0.07495966,-0.01842579,0.01582015,-
 0.01136942,0.18062433,0.02087216,-0.02089360,0.01473067,0.00092287,0.0
 0123288,-0.00044597,-0.00001966,-0.00014568,-0.00023818,0.00029220,0.0
 0008434,-0.00003122,0.00130674,-0.00043557,0.00123526,-0.00461433,-0.0
 0448281,-0.00041328,-0.00079711,-0.00001774,0.00003138,-0.00003879,0.0
 0008759,-0.00001468,-0.00007010,0.00000053,-0.00003751,-0.00002503,-0.
 00008858,-0.00005557,-0.00003972,0.00013847,0.00023926,-0.00021454,-0.
 00068081,0.00004391,-0.00010597,0.00002473,0.00003218,0.00003629,0.000
 12099,-0.00012447,-0.00021058,0.00016738,0.00021487,-0.00035849,0.0003
 5595,-0.00032482,0.09945019,-0.12823359,0.06344859,0.00312648,-0.00279
 488,0.00258229,-0.10646559,0.14643385,-0.00462568,0.00561324,-0.003177
 84,-0.00051865,-0.00004743,0.00011893,0.00012605,-0.00011392,-0.000080
 72,-0.00012645,-0.00009982,0.00011521,-0.00049943,0.00006588,-0.000084
 37,0.00140252,0.00092072,0.00091440,0.00038355,0.00017147,0.00007650,0
 .00000058,-0.00001981,0.00000682,0.00000839,0.00001080,0.00000351,0.00
 004393,0.00008690,-0.00000529,0.00008507,-0.00035125,0.00022151,0.0000
 4208,0.00012092,-0.00000650,0.00002520,-0.00004912,-0.00002770,-0.0000
 0570,-0.00008820,0.00008183,-0.00012621,-0.00009568,-0.00041892,-0.000
 29477,0.00004771,0.00002143,-0.07536211,0.06443425,-0.09690175,0.01554
 994,-0.01252787,0.00971913,0.08666218,-0.06840059,0.10970679,-0.008598
 15,-0.01232248,-0.01303017,-0.00105166,-0.00124197,-0.00163233,0.00029
 683,0.00011323,-0.00021277,-0.00009869,-0.00011087,-0.00004193,-0.0003
 1661,0.00023291,-0.00020228,0.00100161,0.00142160,0.00078367,-0.000000
 57,-0.00015701,-0.00019297,0.00004465,0.00009004,-0.00008069,0.0000392
 3,0.00003602,0.00008504,-0.00001799,0.00001286,-0.00000775,0.00025609,
 -0.00015256,0.00005763,0.00004309,0.00011120,0.00001762,0.00003385,-0.
 00003358,0.00004951,0.00004150,0.00005203,0.00002663,-0.00088164,-0.00
 079139,0.00025295,0.00015531,-0.00014646,-0.00000795,-0.09431150,-0.02
 800414,-0.05488577,0.01198332,0.01057565,0.01829401,-0.00869733,-0.014
 02441,-0.02391944,0.25209098,-0.01550275,-0.02280698,-0.02937577,0.000
 21538,0.00107222,-0.00086728,0.00052068,0.00000723,-0.00017650,-0.0000
 7945,-0.00011084,-0.00012600,-0.00035741,0.00044139,-0.00059017,-0.000
 30093,-0.00040912,-0.00050804,0.00003164,-0.00021441,-0.00023026,0.000
 00764,0.00012798,-0.00009104,0.00011785,0.00003833,0.00011209,-0.00005
 344,0.00001562,0.00003096,0.00004166,-0.00110919,-0.00022412,0.0000766
 8,0.00016649,0.00008598,0.00002893,-0.00002649,0.00011034,0.00004638,0
 .00009994,0.00000442,-0.00045282,-0.00021963,0.00055206,0.00031590,0.0
 0002284,-0.00002035,-0.02851732,-0.10895665,-0.07381544,-0.00230221,-0
 .00455916,-0.00888527,0.00272066,0.01027382,0.01249074,0.20916420,0.38
 275775,-0.00560622,-0.01265607,0.00436161,0.00012254,0.00179305,0.0008
 5028,0.00051816,-0.00006754,0.00012248,-0.00011122,-0.00012526,0.00002
 734,-0.00044969,0.00023784,-0.00045977,0.00113102,0.00126643,0.0016191
 5,0.00014226,-0.00021538,-0.00024624,0.00006368,0.00018796,-0.00016783
 ,-0.00005197,-0.00006764,-0.00004575,-0.00002143,-0.00000946,0.0000241
 5,0.00027106,0.00012116,-0.00043110,0.00004359,0.00029034,-0.00004906,
 0.00002257,0.00004433,-0.00004450,-0.00001944,0.00008406,-0.00010053,0
 .00071223,0.00013837,0.00028351,-0.00000793,-0.00012962,-0.00011193,-0
 .05387449,-0.07142350,-0.20584060,-0.01062587,-0.01442252,-0.02662967,
 -0.00890706,-0.01049084,-0.02089425,0.36969631,0.50055851,0.99983946,0
 .00052385,0.00118436,-0.00050487,0.00010040,0.00026781,0.00041451,0.00
 002468,0.00002718,-0.00013432,-0.00005799,0.00003823,0.00006610,0.0001
 3313,-0.00008069,0.00024948,-0.00021738,0.00017783,-0.00036017,0.00006
 027,-0.00014214,-0.00010421,-0.00002274,-0.00005023,0.00003861,0.00003
 431,0.00002663,0.00001197,0.00003597,0.00005824,-0.00002414,-0.0001836
 9,-0.00011706,0.00040008,-0.00002037,-0.00011483,0.00004352,0.00004071
 ,-0.00008063,0.00000068,-0.00000395,-0.00000350,0.00006341,-0.00016365
 ,-0.00037044,-0.00025990,0.00004424,-0.00007268,-0.00020241,0.00607450
 ,-0.00045554,-0.00198360,-0.00104478,-0.00077609,-0.00058814,0.0007598
 0,0.00005286,0.00012996,-0.15385786,-0.16448027,-0.29681606,0.21639900
 ,0.00076207,0.00138796,0.00000829,0.00017107,-0.00017369,-0.00010022,-
 0.00007319,0.00008431,0.00012350,0.00006837,0.00002376,0.00000362,0.00
 006127,0.00002243,-0.00003204,-0.00023934,-0.00006389,0.00060852,-0.00
 001574,-0.00003691,-0.00005384,-0.00009043,-0.00006357,0.00003997,0.00
 000370,0.00003332,-0.00001540,-0.00006018,-0.00007089,-0.00003116,-0.0
 0004949,-0.00027443,-0.00037075,-0.00002138,-0.00007195,0.00004625,-0.
 00004476,-0.00003868,0.00003696,0.00004015,0.00000190,-0.00001352,-0.0
 0012777,-0.00027667,0.00005063,-0.00004574,0.00000861,-0.00006041,-0.0
 0074588,0.00611797,-0.00293769,-0.00090868,0.00024788,-0.00021171,0.00
 029784,-0.00111235,-0.00082927,-0.16408621,-0.25483140,-0.40095911,0.2
 2943330,0.35689468,0.00217369,0.00506556,-0.00356823,0.00090878,-0.000
 89936,-0.00035179,-0.00046040,0.00013370,0.00005919,0.00008757,0.00012
 886,-0.00009826,0.00030197,-0.00007014,0.00061881,-0.00071393,0.000281
 87,-0.00093107,0.00012408,0.00028317,0.00026318,-0.00007098,-0.0001657
 9,0.00016446,0.00006562,0.00007862,0.00007983,0.00003033,0.00015059,-0
 .00000904,0.00019184,-0.00032864,0.00084669,-0.00004249,-0.00030543,0.
 00006130,-0.00003213,-0.00002935,0.00004566,0.00000555,-0.00018786,0.0
 0016397,-0.00050916,0.00042325,0.00018631,-0.00006340,0.00012779,0.000
 04828,-0.00188636,-0.00262197,0.00119877,-0.00129862,-0.00031379,0.000
 20404,0.00046197,-0.00136332,-0.00006766,-0.29735536,-0.40268774,-0.75
 896900,0.41302775,0.55767575,1.05530530,0.00017368,0.00009073,0.000338
 36,-0.00001463,-0.00003070,-0.00002509,-0.00003492,-0.00000210,0.00001
 081,0.00002081,-0.00000594,-0.00000868,-0.00000210,-0.00000693,-0.0000
 0149,-0.00000127,-0.00005072,0.00000247,-0.00000743,0.00001990,0.00001
 306,-0.00000366,0.00000032,0.00000154,-0.00000840,0.00000059,0.0000028
 6,-0.00000545,0.00000522,0.00001352,0.00004310,-0.00000666,-0.00003653
 ,0.00000078,0.00001504,-0.00001517,-0.00000852,0.00002013,-0.00000284,
 0.00001120,-0.00002088,0.00000536,-0.00002188,0.00000479,-0.00000188,-
 0.00003465,0.00001627,0.00004489,0.00549506,-0.00095811,-0.00157075,-0
 .00063669,-0.00056330,-0.00097941,0.00024084,0.00050130,0.00066615,0.0
 0229718,0.00159386,0.00249655,-0.06859041,-0.06432460,-0.11428181,0.06
 108733,0.00030524,0.00042093,0.00098342,-0.00004110,-0.00004328,0.0000
 1328,-0.00004043,-0.00000519,-0.00003536,-0.00000623,0.00000276,0.0000
 0641,0.00000102,-0.00001943,0.00002982,0.00001528,-0.00003433,-0.00010
 981,0.00003186,0.00001513,0.00003614,0.00002891,0.00000483,0.00000607,
 -0.00000136,-0.00000253,0.00001281,0.00001280,0.00002380,0.00001638,-0
 .00003033,-0.00005176,0.00005423,0.00000029,-0.00001182,-0.00001013,0.
 00000906,0.00001388,-0.00001571,-0.00000384,-0.00002397,0.00003458,-0.
 00003610,0.00001840,-0.00005540,-0.00000183,0.00001169,-0.00000046,-0.
 00100990,0.00467004,-0.00201774,-0.00003230,0.00006720,-0.00003662,-0.
 00019678,-0.00059203,-0.00088910,0.00157600,0.00342398,0.00320984,-0.0
 6431308,-0.10781111,-0.15396898,0.06362621,0.09975947,-0.00032884,-0.0
 0049194,-0.00069360,-0.00001627,0.00005524,-0.00001842,0.00004183,-0.0
 0001936,0.00005210,-0.00001069,0.00001495,-0.00002141,-0.00000647,-0.0
 0001616,-0.00000510,0.00004957,0.00004170,0.00003726,0.00000848,0.0000
 0139,-0.00000203,0.00002058,0.00002006,-0.00001726,0.00000137,-0.00001
 125,-0.00000568,0.00000346,0.00000928,0.00000113,0.00000106,0.00000440
 ,0.00002684,-0.00000006,0.00003565,-0.00001093,0.00001093,0.00001938,0
 .00000012,-0.00001785,0.00002409,-0.00002760,-0.00002583,-0.00000689,0
 .00007070,0.00001853,-0.00002874,-0.00001532,-0.00144002,-0.00177627,0
 .00220863,0.00028227,0.00023027,0.00042576,0.00003253,0.00013983,0.000
 21830,0.00174461,0.00222934,0.00623104,-0.11366062,-0.15318683,-0.2959
 1174,0.11331767,0.15278110,0.28737116,-0.06345916,-0.02390261,-0.05516
 354,0.00169097,0.01300296,0.02721179,0.00009776,0.00055159,-0.00032613
 ,0.00006737,-0.00041747,0.00022259,0.00078372,-0.00091475,0.00063630,-
 0.00718460,-0.00622515,-0.02308522,0.00139586,0.00031704,0.00023185,-0
 .00001622,0.00000692,0.00000339,-0.00000040,-0.00076015,0.00014779,-0.
 00005203,0.00044629,0.00015665,-0.00246928,0.00289115,-0.00177534,-0.0
 0014573,-0.00024360,0.00026132,0.00000482,0.00003352,-0.00004945,-0.00
 000400,-0.00002591,-0.00000754,-0.00389538,0.00011012,0.00377722,0.000
 17039,-0.00067454,0.00034168,-0.00498874,-0.00814632,-0.01277450,-0.00
 020988,0.00021738,-0.00042069,0.00056767,0.00042323,0.00035283,-0.0004
 5162,-0.00283486,0.00127142,-0.00006805,-0.00000438,-0.00066450,0.0000
 0003,0.00010660,-0.00002628,0.07816650,-0.02376338,-0.08406772,-0.0822
 7244,-0.00023639,-0.00120119,-0.00348866,0.00022119,0.00018885,0.00008
 703,-0.00066935,-0.00074619,0.00008619,-0.00011385,0.00096973,0.000781
 00,0.00813626,0.00591778,0.02194158,0.00036829,0.00046513,-0.00022445,
 0.00002640,0.00001690,-0.00008026,-0.00054475,-0.00103584,0.00080266,0
 .00006328,0.00005075,-0.00045680,0.00313600,-0.00260720,0.00238423,0.0
 0004113,0.00032309,-0.00028508,0.00005379,0.00010551,-0.00000213,0.000
 04100,0.00000201,-0.00013963,0.00068017,0.00023952,-0.00058975,-0.0005
 8899,0.00055141,-0.00058208,-0.01119654,-0.01704595,-0.02701144,-0.000
 15153,0.00121921,-0.00002227,0.00090267,0.00055713,-0.00045057,-0.0023
 1467,-0.00520373,0.00263505,-0.00020927,0.00000273,-0.00140679,0.00007
 560,0.00016334,-0.00006926,0.02604294,0.10113473,-0.05457883,-0.084071
 98,-0.24304992,-0.00394138,-0.00852459,-0.01634127,0.00021295,-0.00054
 952,0.00024618,-0.00013536,-0.00010413,-0.00103469,-0.00036090,-0.0004
 3310,0.00032962,-0.00572998,-0.00485731,-0.01622677,0.00048654,0.00015
 789,0.00164850,0.00011373,0.00023501,-0.00010514,0.00095320,0.00061338
 ,0.00056950,-0.00004974,0.00088224,0.00000037,-0.00239022,0.00213743,0
 .00008492,0.00011532,-0.00004816,0.00034665,0.00011781,0.00004620,0.00
 049261,-0.00012590,0.00002920,0.00027010,0.00289320,0.00048723,-0.0010
 4454,-0.00045509,0.00016778,0.00066373,0.00289800,0.00493920,0.0035576
 4,-0.00060884,-0.00030011,0.00085268,0.00014293,-0.00075778,0.00046063
 ,0.00056142,0.00142354,0.00063122,0.00019238,0.00020847,0.00066101,0.0
 0001041,-0.00004477,0.00008605,0.05967836,0.08836387,0.26690091||-0.00
 002262,0.00001511,0.00000187,0.00001200,-0.00003130,0.00000290,-0.0000
 1729,0.00004689,0.00001008,0.00001751,-0.00002947,-0.00001341,0.000000
 39,0.00002429,0.00000231,0.00001132,-0.00003125,-0.00001091,0.00000108
 ,0.00000019,-0.00000371,0.00000058,-0.00000207,-0.00000325,0.00000080,
 0.00000386,0.00000173,-0.00000015,-0.00000665,0.00000726,-0.00000316,0
 .00000302,0.00000477,-0.00000052,-0.00000070,0.00000710,0.00000117,0.0
 0000262,0.00000228,-0.00000435,-0.00000196,-0.00000097,-0.00000259,0.0
 0000748,-0.00000435,-0.00000120,0.00000323,0.00000835,0.00000960,-0.00
 000013,-0.00000595,0.00000107,-0.00000277,-0.00000160,0.00000260,-0.00
 000243,-0.00000430,-0.00000729,-0.00000078,0.00001114,0.00000491,0.000
 00478,-0.00000809,-0.00000391,0.00000194,-0.00000156,0.00000004,-0.000
 00389,-0.00000170|||@


 WE HAVE SEEN THAT MAN ON THE AVERAGE DOES NOT LIVE ABOVE
 TWO-AND-TWENTY YEARS.  DURING THESE TWO AND TWENTY
 YEARS HE IS LIABLE TO TWO AND TWENTY THOUSAND EVILS,
 MANY OF WHICH ARE INCURABLE.  YET EVEN IN THIS DREADFUL STATE
 MEN STILL STRUT AND POSE ON THE STAGE OF LIFE.
 THEY MAKE LOVE AT THE RISK OF DESTRUCTION,
 INTRIGUE, CARRY ON WAR, AND FORM PROJECTS, JUST AS IF THEY
 WERE TO LIVE IN LUXURY AND HAPPINESS FOR A THOUSAND
 AGES.

                                              -- VOLTAIRE
 Job cpu time:       0 days  0 hours  5 minutes 49.0 seconds.
 File lengths (MBytes):  RWF=     43 Int=      0 D2E=      0 Chk=      2 Scr=      1
 Normal termination of Gaussian 09 at Wed Sep 13 19:37:36 2023.
