 Entering Link 1 = C:\G09W\l1.exe PID=     11812.
  
 Copyright (c) 1988,1990,1992,1993,1995,1998,2003,2009,2013,
            Gaussian, Inc.  All Rights Reserved.
  
 This is part of the Gaussian(R) 09 program.  It is based on
 the Gaussian(R) 03 system (copyright 2003, Gaussian, Inc.),
 the Gaussian(R) 98 system (copyright 1998, Gaussian, Inc.),
 the Gaussian(R) 94 system (copyright 1995, Gaussian, Inc.),
 the Gaussian 92(TM) system (copyright 1992, Gaussian, Inc.),
 the Gaussian 90(TM) system (copyright 1990, Gaussian, Inc.),
 the Gaussian 88(TM) system (copyright 1988, Gaussian, Inc.),
 the Gaussian 86(TM) system (copyright 1986, Carnegie Mellon
 University), and the Gaussian 82(TM) system (copyright 1983,
 Carnegie Mellon University). Gaussian is a federally registered
 trademark of Gaussian, Inc.
  
 This software contains proprietary and confidential information,
 including trade secrets, belonging to Gaussian, Inc.
  
 This software is provided under written license and may be
 used, copied, transmitted, or stored only in accord with that
 written license.
  
 The following legend is applicable only to US Government
 contracts under FAR:
  
                    RESTRICTED RIGHTS LEGEND
  
 Use, reproduction and disclosure by the US Government is
 subject to restrictions as set forth in subparagraphs (a)
 and (c) of the Commercial Computer Software - Restricted
 Rights clause in FAR 52.227-19.
  
 Gaussian, Inc.
 340 Quinnipiac St., Bldg. 40, Wallingford CT 06492
  
  
 ---------------------------------------------------------------
 Warning -- This program may not be used in any manner that
 competes with the business of Gaussian, Inc. or will provide
 assistance to any competitor of Gaussian, Inc.  The licensee
 of this program is prohibited from giving any competitor of
 Gaussian, Inc. access to this program.  By using this program,
 the user acknowledges that Gaussian, Inc. is engaged in the
 business of creating and licensing software in the field of
 computational chemistry and represents and warrants to the
 licensee that it is not a competitor of Gaussian, Inc. and that
 it will not use this program in any manner prohibited above.
 ---------------------------------------------------------------
  

 Cite this work as:
 Gaussian 09, Revision D.01,
 M. J. Frisch, G. W. Trucks, H. B. Schlegel, G. E. Scuseria, 
 M. A. Robb, J. R. Cheeseman, G. Scalmani, V. Barone, B. Mennucci, 
 G. A. Petersson, H. Nakatsuji, M. Caricato, X. Li, H. P. Hratchian, 
 A. F. Izmaylov, J. Bloino, G. Zheng, J. L. Sonnenberg, M. Hada, 
 M. Ehara, K. Toyota, R. Fukuda, J. Hasegawa, M. Ishida, T. Nakajima, 
 Y. Honda, O. Kitao, H. Nakai, T. Vreven, J. A. Montgomery, Jr., 
 J. E. Peralta, F. Ogliaro, M. Bearpark, J. J. Heyd, E. Brothers, 
 K. N. Kudin, V. N. Staroverov, T. Keith, R. Kobayashi, J. Normand, 
 K. Raghavachari, A. Rendell, J. C. Burant, S. S. Iyengar, J. Tomasi, 
 M. Cossi, N. Rega, J. M. Millam, M. Klene, J. E. Knox, J. B. Cross, 
 V. Bakken, C. Adamo, J. Jaramillo, R. Gomperts, R. E. Stratmann, 
 O. Yazyev, A. J. Austin, R. Cammi, C. Pomelli, J. W. Ochterski, 
 R. L. Martin, K. Morokuma, V. G. Zakrzewski, G. A. Voth, 
 P. Salvador, J. J. Dannenberg, S. Dapprich, A. D. Daniels, 
 O. Farkas, J. B. Foresman, J. V. Ortiz, J. Cioslowski, 
 and D. J. Fox, Gaussian, Inc., Wallingford CT, 2013.
 
 ******************************************
 Gaussian 09:  EM64W-G09RevD.01 13-Apr-2013
                13-Sep-2023 
 ******************************************
 %nprocshared=2
 Will use up to    2 processors via shared memory.
 %mem=2GB
 %chk=E:\PROJECT- VIT group\ML\Substrates\molecule_10.chk
 -----------------------------------------------------
 # opt freq b3lyp/6-31g nosymm empiricaldispersion=gd3
 -----------------------------------------------------
 1/14=-1,18=20,19=15,26=3,38=1/1,3;
 2/9=110,12=2,15=1,17=6,18=5,40=1/2;
 3/5=1,6=6,11=2,16=1,25=1,30=1,71=1,74=-5,124=31/1,2,3;
 4//1;
 5/5=2,38=5/2;
 6/7=2,8=2,9=2,10=2,28=1/1;
 7/30=1/1,2,3,16;
 1/14=-1,18=20,19=15,26=3/3(2);
 2/9=110,15=1/2;
 99//99;
 2/9=110,15=1/2;
 3/5=1,6=6,11=2,16=1,25=1,30=1,71=1,74=-5,124=31/1,2,3;
 4/5=5,16=3,69=1/1;
 5/5=2,38=5/2;
 7/30=1/1,2,3,16;
 1/14=-1,18=20,19=15,26=3/3(-5);
 2/9=110,15=1/2;
 6/7=2,8=2,9=2,10=2,19=2,28=1/1;
 99/9=1/99;
 -----------
 molecule_10
 -----------
 Symbolic Z-matrix:
 Charge =  0 Multiplicity = 1
 C                    -0.82362  -0.62321   0.24732 
 C                     0.57772  -0.63177   0.23816 
 C                     1.28396   0.54994  -0.024 
 C                     0.58884   1.74021  -0.27699 
 C                    -0.8125    1.74877  -0.26782 
 C                    -1.51873   0.56706  -0.00566 
 H                    -1.36284  -1.52547   0.44749 
 H                     1.10846  -1.54056   0.43132 
 H                     1.12806   2.64247  -0.47715 
 H                    -1.34324   2.65756  -0.46098 
 C                    -5.15513   1.77529  -0.23941 
 C                    -5.16625  -0.59669   0.27573 
 C                    -5.86136   0.59358   0.02274 
 H                    -5.46216   2.49554   0.48988 
 H                    -5.49156  -1.31308  -0.44943 
 Cl                    3.04388   0.53919  -0.03551 
 B                    -3.05867   0.57646   0.00441 
 H                    -5.47543   2.12925  -1.19703 
 H                    -5.47829  -0.94678   1.23748 
 C                    -6.78102   0.33554  -1.18525 
 H                    -7.40259  -0.51222  -0.98564 
 H                    -7.39459   1.19526  -1.35647 
 H                    -6.18486   0.1443   -2.05296 
 C                    -6.76192   0.86273   1.24263 
 H                    -7.37566   1.71804   1.0511 
 H                    -7.38366   0.01056   1.42193 
 H                    -6.15218   1.04661   2.10246 
 O                    -3.75378   1.76673  -0.24858 
 O                    -3.7649   -0.60525   0.26656 
 

 GradGradGradGradGradGradGradGradGradGradGradGradGradGradGradGradGradGrad
 Berny optimization.
 Initialization pass.
                           ----------------------------
                           !    Initial Parameters    !
                           ! (Angstroms and Degrees)  !
 --------------------------                            --------------------------
 ! Name  Definition              Value          Derivative Info.                !
 --------------------------------------------------------------------------------
 ! R1    R(1,2)                  1.4014         estimate D2E/DX2                !
 ! R2    R(1,6)                  1.4014         estimate D2E/DX2                !
 ! R3    R(1,7)                  1.07           estimate D2E/DX2                !
 ! R4    R(2,3)                  1.4014         estimate D2E/DX2                !
 ! R5    R(2,8)                  1.07           estimate D2E/DX2                !
 ! R6    R(3,4)                  1.4014         estimate D2E/DX2                !
 ! R7    R(3,16)                 1.76           estimate D2E/DX2                !
 ! R8    R(4,5)                  1.4014         estimate D2E/DX2                !
 ! R9    R(4,9)                  1.07           estimate D2E/DX2                !
 ! R10   R(5,6)                  1.4014         estimate D2E/DX2                !
 ! R11   R(5,10)                 1.07           estimate D2E/DX2                !
 ! R12   R(6,17)                 1.54           estimate D2E/DX2                !
 ! R13   R(11,13)                1.4014         estimate D2E/DX2                !
 ! R14   R(11,14)                1.07           estimate D2E/DX2                !
 ! R15   R(11,18)                1.07           estimate D2E/DX2                !
 ! R16   R(11,28)                1.4014         estimate D2E/DX2                !
 ! R17   R(12,13)                1.4014         estimate D2E/DX2                !
 ! R18   R(12,15)                1.07           estimate D2E/DX2                !
 ! R19   R(12,19)                1.07           estimate D2E/DX2                !
 ! R20   R(12,29)                1.4014         estimate D2E/DX2                !
 ! R21   R(13,20)                1.54           estimate D2E/DX2                !
 ! R22   R(13,24)                1.54           estimate D2E/DX2                !
 ! R23   R(17,28)                1.4014         estimate D2E/DX2                !
 ! R24   R(17,29)                1.4014         estimate D2E/DX2                !
 ! R25   R(20,21)                1.07           estimate D2E/DX2                !
 ! R26   R(20,22)                1.07           estimate D2E/DX2                !
 ! R27   R(20,23)                1.07           estimate D2E/DX2                !
 ! R28   R(24,25)                1.07           estimate D2E/DX2                !
 ! R29   R(24,26)                1.07           estimate D2E/DX2                !
 ! R30   R(24,27)                1.07           estimate D2E/DX2                !
 ! A1    A(2,1,6)              120.0            estimate D2E/DX2                !
 ! A2    A(2,1,7)              120.0            estimate D2E/DX2                !
 ! A3    A(6,1,7)              120.0            estimate D2E/DX2                !
 ! A4    A(1,2,3)              120.0            estimate D2E/DX2                !
 ! A5    A(1,2,8)              120.0            estimate D2E/DX2                !
 ! A6    A(3,2,8)              120.0            estimate D2E/DX2                !
 ! A7    A(2,3,4)              120.0            estimate D2E/DX2                !
 ! A8    A(2,3,16)             120.0            estimate D2E/DX2                !
 ! A9    A(4,3,16)             120.0            estimate D2E/DX2                !
 ! A10   A(3,4,5)              120.0            estimate D2E/DX2                !
 ! A11   A(3,4,9)              120.0            estimate D2E/DX2                !
 ! A12   A(5,4,9)              120.0            estimate D2E/DX2                !
 ! A13   A(4,5,6)              120.0            estimate D2E/DX2                !
 ! A14   A(4,5,10)             120.0            estimate D2E/DX2                !
 ! A15   A(6,5,10)             120.0            estimate D2E/DX2                !
 ! A16   A(1,6,5)              120.0            estimate D2E/DX2                !
 ! A17   A(1,6,17)             120.0            estimate D2E/DX2                !
 ! A18   A(5,6,17)             120.0            estimate D2E/DX2                !
 ! A19   A(13,11,14)           107.1877         estimate D2E/DX2                !
 ! A20   A(13,11,18)           107.1877         estimate D2E/DX2                !
 ! A21   A(13,11,28)           120.0            estimate D2E/DX2                !
 ! A22   A(14,11,18)           107.5431         estimate D2E/DX2                !
 ! A23   A(14,11,28)           107.1877         estimate D2E/DX2                !
 ! A24   A(18,11,28)           107.1877         estimate D2E/DX2                !
 ! A25   A(13,12,15)           107.1877         estimate D2E/DX2                !
 ! A26   A(13,12,19)           107.1877         estimate D2E/DX2                !
 ! A27   A(13,12,29)           120.0            estimate D2E/DX2                !
 ! A28   A(15,12,19)           107.5431         estimate D2E/DX2                !
 ! A29   A(15,12,29)           107.1877         estimate D2E/DX2                !
 ! A30   A(19,12,29)           107.1877         estimate D2E/DX2                !
 ! A31   A(11,13,12)           120.0            estimate D2E/DX2                !
 ! A32   A(11,13,20)           107.1877         estimate D2E/DX2                !
 ! A33   A(11,13,24)           107.1877         estimate D2E/DX2                !
 ! A34   A(12,13,20)           107.1877         estimate D2E/DX2                !
 ! A35   A(12,13,24)           107.1877         estimate D2E/DX2                !
 ! A36   A(20,13,24)           107.5431         estimate D2E/DX2                !
 ! A37   A(6,17,28)            120.0            estimate D2E/DX2                !
 ! A38   A(6,17,29)            120.0            estimate D2E/DX2                !
 ! A39   A(28,17,29)           120.0            estimate D2E/DX2                !
 ! A40   A(13,20,21)           109.4712         estimate D2E/DX2                !
 ! A41   A(13,20,22)           109.4712         estimate D2E/DX2                !
 ! A42   A(13,20,23)           109.4712         estimate D2E/DX2                !
 ! A43   A(21,20,22)           109.4713         estimate D2E/DX2                !
 ! A44   A(21,20,23)           109.4712         estimate D2E/DX2                !
 ! A45   A(22,20,23)           109.4712         estimate D2E/DX2                !
 ! A46   A(13,24,25)           109.4712         estimate D2E/DX2                !
 ! A47   A(13,24,26)           109.4712         estimate D2E/DX2                !
 ! A48   A(13,24,27)           109.4712         estimate D2E/DX2                !
 ! A49   A(25,24,26)           109.4713         estimate D2E/DX2                !
 ! A50   A(25,24,27)           109.4712         estimate D2E/DX2                !
 ! A51   A(26,24,27)           109.4712         estimate D2E/DX2                !
 ! A52   A(11,28,17)           120.0            estimate D2E/DX2                !
 ! A53   A(12,29,17)           120.0            estimate D2E/DX2                !
 ! D1    D(6,1,2,3)              0.0001         estimate D2E/DX2                !
 ! D2    D(6,1,2,8)           -179.9999         estimate D2E/DX2                !
 ! D3    D(7,1,2,3)           -179.9999         estimate D2E/DX2                !
 ! D4    D(7,1,2,8)              0.0            estimate D2E/DX2                !
 ! D5    D(2,1,6,5)              0.0            estimate D2E/DX2                !
 ! D6    D(2,1,6,17)           180.0            estimate D2E/DX2                !
 ! D7    D(7,1,6,5)           -180.0            estimate D2E/DX2                !
 ! D8    D(7,1,6,17)             0.0            estimate D2E/DX2                !
 ! D9    D(1,2,3,4)             -0.0001         estimate D2E/DX2                !
 ! D10   D(1,2,3,16)           180.0            estimate D2E/DX2                !
 ! D11   D(8,2,3,4)            179.9999         estimate D2E/DX2                !
 ! D12   D(8,2,3,16)             0.0            estimate D2E/DX2                !
 ! D13   D(2,3,4,5)              0.0            estimate D2E/DX2                !
 ! D14   D(2,3,4,9)           -179.9998         estimate D2E/DX2                !
 ! D15   D(16,3,4,5)           180.0            estimate D2E/DX2                !
 ! D16   D(16,3,4,9)             0.0002         estimate D2E/DX2                !
 ! D17   D(3,4,5,6)              0.0            estimate D2E/DX2                !
 ! D18   D(3,4,5,10)          -179.9999         estimate D2E/DX2                !
 ! D19   D(9,4,5,6)            179.9999         estimate D2E/DX2                !
 ! D20   D(9,4,5,10)            -0.0001         estimate D2E/DX2                !
 ! D21   D(4,5,6,1)             -0.0001         estimate D2E/DX2                !
 ! D22   D(4,5,6,17)           180.0            estimate D2E/DX2                !
 ! D23   D(10,5,6,1)           179.9999         estimate D2E/DX2                !
 ! D24   D(10,5,6,17)           -0.0001         estimate D2E/DX2                !
 ! D25   D(1,6,17,28)         -180.0            estimate D2E/DX2                !
 ! D26   D(1,6,17,29)           -0.0002         estimate D2E/DX2                !
 ! D27   D(5,6,17,28)            0.0            estimate D2E/DX2                !
 ! D28   D(5,6,17,29)          179.9998         estimate D2E/DX2                !
 ! D29   D(14,11,13,12)       -122.3949         estimate D2E/DX2                !
 ! D30   D(14,11,13,20)        115.2102         estimate D2E/DX2                !
 ! D31   D(14,11,13,24)          0.0001         estimate D2E/DX2                !
 ! D32   D(18,11,13,12)        122.395          estimate D2E/DX2                !
 ! D33   D(18,11,13,20)          0.0001         estimate D2E/DX2                !
 ! D34   D(18,11,13,24)       -115.21           estimate D2E/DX2                !
 ! D35   D(28,11,13,12)          0.0001         estimate D2E/DX2                !
 ! D36   D(28,11,13,20)       -122.3949         estimate D2E/DX2                !
 ! D37   D(28,11,13,24)        122.395          estimate D2E/DX2                !
 ! D38   D(13,11,28,17)         -0.0001         estimate D2E/DX2                !
 ! D39   D(14,11,28,17)        122.3948         estimate D2E/DX2                !
 ! D40   D(18,11,28,17)       -122.3951         estimate D2E/DX2                !
 ! D41   D(15,12,13,11)       -122.395          estimate D2E/DX2                !
 ! D42   D(15,12,13,20)          0.0            estimate D2E/DX2                !
 ! D43   D(15,12,13,24)        115.2101         estimate D2E/DX2                !
 ! D44   D(19,12,13,11)        122.3949         estimate D2E/DX2                !
 ! D45   D(19,12,13,20)       -115.2101         estimate D2E/DX2                !
 ! D46   D(19,12,13,24)          0.0            estimate D2E/DX2                !
 ! D47   D(29,12,13,11)          0.0            estimate D2E/DX2                !
 ! D48   D(29,12,13,20)        122.3949         estimate D2E/DX2                !
 ! D49   D(29,12,13,24)       -122.395          estimate D2E/DX2                !
 ! D50   D(13,12,29,17)          0.0            estimate D2E/DX2                !
 ! D51   D(15,12,29,17)        122.395          estimate D2E/DX2                !
 ! D52   D(19,12,29,17)       -122.3949         estimate D2E/DX2                !
 ! D53   D(11,13,20,21)       -174.9728         estimate D2E/DX2                !
 ! D54   D(11,13,20,22)        -54.9728         estimate D2E/DX2                !
 ! D55   D(11,13,20,23)         65.0272         estimate D2E/DX2                !
 ! D56   D(12,13,20,21)         54.9728         estimate D2E/DX2                !
 ! D57   D(12,13,20,22)        174.9728         estimate D2E/DX2                !
 ! D58   D(12,13,20,23)        -65.0272         estimate D2E/DX2                !
 ! D59   D(24,13,20,21)        -60.0            estimate D2E/DX2                !
 ! D60   D(24,13,20,22)         60.0            estimate D2E/DX2                !
 ! D61   D(24,13,20,23)        180.0            estimate D2E/DX2                !
 ! D62   D(11,13,24,25)         54.9727         estimate D2E/DX2                !
 ! D63   D(11,13,24,26)        174.9728         estimate D2E/DX2                !
 ! D64   D(11,13,24,27)        -65.0272         estimate D2E/DX2                !
 ! D65   D(12,13,24,25)       -174.9728         estimate D2E/DX2                !
 ! D66   D(12,13,24,26)        -54.9728         estimate D2E/DX2                !
 ! D67   D(12,13,24,27)         65.0272         estimate D2E/DX2                !
 ! D68   D(20,13,24,25)        -60.0            estimate D2E/DX2                !
 ! D69   D(20,13,24,26)         60.0            estimate D2E/DX2                !
 ! D70   D(20,13,24,27)        180.0            estimate D2E/DX2                !
 ! D71   D(6,17,28,11)         179.9999         estimate D2E/DX2                !
 ! D72   D(29,17,28,11)          0.0001         estimate D2E/DX2                !
 ! D73   D(6,17,29,12)        -179.9998         estimate D2E/DX2                !
 ! D74   D(28,17,29,12)          0.0            estimate D2E/DX2                !
 --------------------------------------------------------------------------------
 Trust Radius=3.00D-01 FncErr=1.00D-07 GrdErr=1.00D-06
 Number of steps in this run=    167 maximum allowed number of steps=    174.
 GradGradGradGradGradGradGradGradGradGradGradGradGradGradGradGradGradGrad

                          Input orientation:                          
 ---------------------------------------------------------------------
 Center     Atomic      Atomic             Coordinates (Angstroms)
 Number     Number       Type             X           Y           Z
 ---------------------------------------------------------------------
      1          6           0       -0.823619   -0.623209    0.247324
      2          6           0        0.577725   -0.631768    0.238156
      3          6           0        1.283955    0.549941   -0.024000
      4          6           0        0.588842    1.740208   -0.276988
      5          6           0       -0.812502    1.748767   -0.267821
      6          6           0       -1.518733    0.567058   -0.005664
      7          1           0       -1.362841   -1.525470    0.447487
      8          1           0        1.108460   -1.540563    0.431317
      9          1           0        1.128064    2.642468   -0.477153
     10          1           0       -1.343237    2.657562   -0.460985
     11          6           0       -5.155128    1.775288   -0.239414
     12          6           0       -5.166245   -0.596688    0.275727
     13          6           0       -5.861359    0.593579    0.022738
     14          1           0       -5.462161    2.495540    0.489880
     15          1           0       -5.491563   -1.313078   -0.449430
     16         17           0        3.043885    0.539192   -0.035514
     17          5           0       -3.058671    0.576463    0.004410
     18          1           0       -5.475431    2.129245   -1.197026
     19          1           0       -5.478295   -0.946782    1.237475
     20          6           0       -6.781020    0.335541   -1.185252
     21          1           0       -7.402593   -0.512222   -0.985642
     22          1           0       -7.394591    1.195259   -1.356469
     23          1           0       -6.184860    0.144300   -2.052961
     24          6           0       -6.761924    0.862733    1.242631
     25          1           0       -7.375655    1.718040    1.051099
     26          1           0       -7.383658    0.010559    1.421925
     27          1           0       -6.152177    1.046610    2.102455
     28          8           0       -3.753785    1.766730   -0.248579
     29          8           0       -3.764901   -0.605246    0.266563
 ---------------------------------------------------------------------
                    Distance matrix (angstroms):
                    1          2          3          4          5
     1  C    0.000000
     2  C    1.401400   0.000000
     3  C    2.427296   1.401400   0.000000
     4  C    2.802800   2.427296   1.401400   0.000000
     5  C    2.427296   2.802800   2.427296   1.401400   0.000000
     6  C    1.401400   2.427296   2.802800   2.427296   1.401400
     7  H    1.070000   2.146700   3.396345   3.872800   3.396345
     8  H    2.146700   1.070000   2.146700   3.396345   3.872800
     9  H    3.872800   3.396345   2.146700   1.070000   2.146700
    10  H    3.396345   3.872800   3.396345   2.146700   1.070000
    11  C    4.975106   6.235992   6.558176   5.744200   4.342800
    12  C    4.342800   5.744200   6.558176   6.235992   4.975106
    13  C    5.187469   6.558176   7.145600   6.558176   5.187469
    14  H    5.594774   6.806147   7.039852   6.145994   4.769812
    15  H    4.769810   6.145992   7.039850   6.806146   5.594773
    16  Cl   4.048303   2.743718   1.760000   2.743718   4.048303
    17  B    2.548270   3.838989   4.342800   3.838989   2.548270
    18  H    5.594775   6.806147   7.039850   6.145992   4.769810
    19  H    4.769812   6.145994   7.039852   6.806148   5.594776
    20  C    6.201782   7.557308   8.150969   7.557307   6.201781
    21  H    6.694433   8.074494   8.803924   8.332987   7.004045
    22  H    7.004045   8.332987   8.803924   8.074494   6.694432
    23  H    5.884155   7.182204   7.750124   7.182203   5.884154
    24  C    6.201785   7.557311   8.150974   7.557312   6.201785
    25  H    7.004047   8.332991   8.803928   8.074498   6.694436
    26  H    6.694435   8.074498   8.803928   8.332991   7.004049
    27  H    5.884160   7.182211   7.750133   7.182212   5.884162
    28  O    3.813607   4.975106   5.187469   4.342800   2.941400
    29  O    2.941400   4.342800   5.187469   4.975106   3.813607
                    6          7          8          9         10
     6  C    0.000000
     7  H    2.146700   0.000000
     8  H    3.396345   2.471400   0.000000
     9  H    3.396345   4.942800   4.280590   0.000000
    10  H    2.146700   4.280590   4.942800   2.471400   0.000000
    11  C    3.838989   5.074276   7.118798   6.347206   3.918930
    12  C    3.838989   3.918930   6.347206   7.118798   5.074276
    13  C    4.342800   4.990735   7.300676   7.300676   4.990735
    14  H    4.417605   5.742363   7.711460   6.662418   4.230358
    15  H    4.417604   4.230356   6.662414   7.711458   5.742363
    16  Cl   4.562800   4.890332   2.879094   2.879094   4.890332
    17  B    1.540000   2.736837   4.693509   4.693509   2.736837
    18  H    4.417605   5.742365   7.711459   6.662414   4.230355
    19  H    4.417606   4.230357   6.662417   7.711462   5.742365
    20  C    5.397842   5.957000   8.269035   8.269034   5.956998
    21  H    6.061767   6.289605   8.689262   9.109487   6.858469
    22  H    6.061767   6.858471   9.109488   8.689261   6.289603
    23  H    5.113012   5.682625   7.886882   7.886880   5.682621
    24  C    5.397844   5.957001   8.269039   8.269040   5.957003
    25  H    6.061770   6.858472   9.109491   8.689267   6.289608
    26  H    6.061770   6.289607   8.689266   9.109493   6.858474
    27  H    5.113017   5.682627   7.886889   7.886891   5.682631
    28  O    2.548270   4.127917   5.919617   4.965039   2.578650
    29  O    2.548270   2.578650   4.965039   5.919617   4.127917
                   11         12         13         14         15
    11  C    0.000000
    12  C    2.427296   0.000000
    13  C    1.401400   1.401400   0.000000
    14  H    1.070000   3.113728   1.998758   0.000000
    15  H    3.113729   1.070000   1.998758   3.922849   0.000000
    16  Cl   8.294174   8.294174   8.905600   8.743921   8.743918
    17  B    2.427296   2.427296   2.802800   3.113728   3.113728
    18  H    1.070000   3.113729   1.998758   1.726267   3.522606
    19  H    3.113728   1.070000   1.998758   3.522604   1.726267
    20  C    2.368756   2.368756   1.540000   3.034971   2.218575
    21  H    3.292516   2.568938   2.148263   3.871573   2.140311
    22  H    2.568938   3.292516   2.148263   2.972208   3.276582
    23  H    2.647532   2.647532   2.148263   3.537890   2.275066
    24  C    2.368756   2.368756   1.540000   2.218575   3.034970
    25  H    2.568937   3.292516   2.148263   2.140311   3.871572
    26  H    3.292516   2.568938   2.148263   3.276582   2.972206
    27  H    2.647532   2.647532   2.148263   2.275065   3.537889
    28  O    1.401400   2.802800   2.427296   1.998758   3.541954
    29  O    2.802800   1.401400   2.427296   3.541954   1.998758
                   16         17         18         19         20
    16  Cl   0.000000
    17  B    6.102800   0.000000
    18  H    8.743919   3.113729   0.000000
    19  H    8.743921   3.113728   3.922849   0.000000
    20  C    9.894045   3.915255   2.218575   3.034971   0.000000
    21  H   10.542159   4.586404   3.276582   2.972207   1.070000
    22  H   10.542159   4.586404   2.140311   3.871572   1.070000
    23  H    9.454933   3.767307   2.275066   3.537890   1.070000
    24  C    9.894050   3.915256   3.034970   2.218575   2.484534
    25  H   10.542164   4.586405   2.972206   3.276582   2.695582
    26  H   10.542164   4.586405   3.871572   2.140312   2.695581
    27  H    9.454943   3.767308   3.537889   2.275065   3.421999
    28  O    6.910901   1.401400   1.998758   3.541954   3.477041
    29  O    6.910901   1.401400   3.541955   1.998758   3.477041
                   21         22         23         24         25
    21  H    0.000000
    22  H    1.747303   0.000000
    23  H    1.747303   1.747303   0.000000
    24  C    2.695581   2.695581   3.421999   0.000000
    25  H    3.020449   2.463745   3.678293   1.070000   0.000000
    26  H    2.463745   3.020448   3.678293   1.070000   1.747303
    27  H    3.678293   3.678293   4.252378   1.070000   1.747303
    28  O    4.364710   3.848308   3.434852   3.477042   3.848309
    29  O    3.848308   4.364710   3.434852   3.477042   4.364711
                   26         27         28         29
    26  H    0.000000
    27  H    1.747303   0.000000
    28  O    4.364711   3.434854   0.000000
    29  O    3.848309   3.434853   2.427296   0.000000
 Symmetry turned off by external request.
 Stoichiometry    C11H14BClO2
 Framework group  C1[X(C11H14BClO2)]
 Deg. of freedom    81
 Full point group                 C1      NOp   1
 Rotational constants (GHZ):      2.0841146      0.1970377      0.1873970
 Standard basis: 6-31G (6D, 7F)
   167 basis functions,   410 primitive gaussians,   167 cartesian basis functions
    59 alpha electrons       59 beta electrons
       nuclear repulsion energy      1038.4758498865 Hartrees.
 NAtoms=   29 NActive=   29 NUniq=   29 SFac= 1.00D+00 NAtFMM=   60 NAOKFM=F Big=F
 Integral buffers will be    131072 words long.
 Raffenetti 2 integral format.
 Two-electron integral symmetry is turned off.
 Nuclear repulsion after empirical dispersion term =     1038.4489441642 Hartrees.
 One-electron integrals computed using PRISM.
 NBasis=   167 RedAO= T EigKep=  6.68D-04  NBF=   167
 NBsUse=   167 1.00D-06 EigRej= -1.00D+00 NBFU=   167
 ExpMin= 1.27D-01 ExpMax= 2.52D+04 ExpMxC= 3.78D+03 IAcc=1 IRadAn=         1 AccDes= 0.00D+00
 Harris functional with IExCor=  402 and IRadAn=       1 diagonalized for initial guess.
 HarFok:  IExCor=  402 AccDes= 0.00D+00 IRadAn=         1 IDoV= 1 UseB2=F ITyADJ=14
 ICtDFT=  3500011 ScaDFX=  1.000000  1.000000  1.000000  1.000000
 FoFCou: FMM=F IPFlag=           0 FMFlag=      100000 FMFlg1=           0
         NFxFlg=           0 DoJE=T BraDBF=F KetDBF=T FulRan=T
         wScrn=  0.000000 ICntrl=     500 IOpCl=  0 I1Cent=   200000004 NGrid=           0
         NMat0=    1 NMatS0=      1 NMatT0=    0 NMatD0=    1 NMtDS0=    0 NMtDT0=    0
 Symmetry not used in FoFCou.
 Keep R1 ints in memory in canonical form, NReq=100874417.
 Requested convergence on RMS density matrix=1.00D-08 within 128 cycles.
 Requested convergence on MAX density matrix=1.00D-06.
 Requested convergence on             energy=1.00D-06.
 No special actions if energy rises.
 Integral accuracy reduced to 1.0D-05 until final iterations.
 Initial convergence to 1.0D-05 achieved.  Increase integral accuracy.
 SCF Done:  E(RB3LYP) =  -1062.99396990     A.U. after   14 cycles
            NFock= 14  Conv=0.46D-08     -V/T= 2.0025

 **********************************************************************

            Population analysis using the SCF density.

 **********************************************************************

 Alpha  occ. eigenvalues -- -101.52514 -19.15822 -19.15820 -10.25076 -10.22665
 Alpha  occ. eigenvalues --  -10.22663 -10.19406 -10.19370 -10.19370 -10.18987
 Alpha  occ. eigenvalues --  -10.18985 -10.17910 -10.17908 -10.16944  -9.45919
 Alpha  occ. eigenvalues --   -7.22279  -7.21174  -7.21140  -6.79847  -1.07231
 Alpha  occ. eigenvalues --   -1.02809  -0.89060  -0.87689  -0.83370  -0.75473
 Alpha  occ. eigenvalues --   -0.73382  -0.72744  -0.72207  -0.69923  -0.61816
 Alpha  occ. eigenvalues --   -0.61523  -0.59091  -0.54218  -0.52768  -0.51457
 Alpha  occ. eigenvalues --   -0.49005  -0.48323  -0.47281  -0.46244  -0.45854
 Alpha  occ. eigenvalues --   -0.43145  -0.42276  -0.41817  -0.41052  -0.41041
 Alpha  occ. eigenvalues --   -0.40797  -0.39813  -0.39067  -0.36866  -0.35637
 Alpha  occ. eigenvalues --   -0.34578  -0.32890  -0.32303  -0.30930  -0.30273
 Alpha  occ. eigenvalues --   -0.30019  -0.28143  -0.25534  -0.24071
 Alpha virt. eigenvalues --   -0.02947  -0.00351   0.04117   0.06411   0.07721
 Alpha virt. eigenvalues --    0.09759   0.11026   0.12211   0.13730   0.14101
 Alpha virt. eigenvalues --    0.14274   0.15071   0.15234   0.15735   0.16358
 Alpha virt. eigenvalues --    0.17729   0.18321   0.18346   0.20919   0.20998
 Alpha virt. eigenvalues --    0.21013   0.21477   0.24945   0.26685   0.28627
 Alpha virt. eigenvalues --    0.30023   0.30379   0.31723   0.33261   0.33830
 Alpha virt. eigenvalues --    0.37729   0.38354   0.41659   0.42281   0.42347
 Alpha virt. eigenvalues --    0.43678   0.45147   0.50202   0.52395   0.53323
 Alpha virt. eigenvalues --    0.53425   0.57882   0.58172   0.58765   0.59692
 Alpha virt. eigenvalues --    0.60442   0.61719   0.61889   0.62212   0.63673
 Alpha virt. eigenvalues --    0.64211   0.64475   0.65803   0.66069   0.67813
 Alpha virt. eigenvalues --    0.68046   0.68086   0.68223   0.71203   0.73840
 Alpha virt. eigenvalues --    0.76449   0.76856   0.78954   0.80503   0.81836
 Alpha virt. eigenvalues --    0.81838   0.82804   0.84596   0.87356   0.87996
 Alpha virt. eigenvalues --    0.89227   0.89241   0.89284   0.91783   0.92951
 Alpha virt. eigenvalues --    0.95016   0.95048   0.95395   0.96150   0.97447
 Alpha virt. eigenvalues --    0.97902   0.99862   1.00748   1.01975   1.02345
 Alpha virt. eigenvalues --    1.04114   1.05751   1.06541   1.12936   1.15328
 Alpha virt. eigenvalues --    1.18654   1.18905   1.23971   1.24226   1.29300
 Alpha virt. eigenvalues --    1.37087   1.38548   1.43100   1.45454   1.46488
 Alpha virt. eigenvalues --    1.46733   1.49717   1.63940   1.64372   1.86931
 Alpha virt. eigenvalues --    1.92653   1.96849   2.16570
          Condensed to atoms (all electrons):
               1          2          3          4          5          6
     1  C    5.000103   0.462604  -0.034265  -0.041744  -0.051076   0.478983
     2  C    0.462604   5.064308   0.462616  -0.060705  -0.041743  -0.038052
     3  C   -0.034265   0.462616   5.295838   0.462614  -0.034266  -0.038919
     4  C   -0.041744  -0.060705   0.462614   5.064301   0.462606  -0.038051
     5  C   -0.051076  -0.041743  -0.034266   0.462606   5.000107   0.478988
     6  C    0.478983  -0.038052  -0.038919  -0.038051   0.478988   5.054177
     7  H    0.363502  -0.047342   0.005139   0.000063   0.006254  -0.037967
     8  H   -0.025290   0.354037  -0.038317   0.003845   0.000830   0.004140
     9  H    0.000830   0.003845  -0.038316   0.354036  -0.025291   0.004140
    10  H    0.006254   0.000063   0.005139  -0.047341   0.363502  -0.037966
    11  C    0.000086   0.000002   0.000000  -0.000001  -0.000494   0.002028
    12  C   -0.000494  -0.000001   0.000000   0.000002   0.000086   0.002029
    13  C    0.000012   0.000000   0.000000   0.000000   0.000012  -0.000572
    14  H    0.000000   0.000000   0.000000   0.000000   0.000021  -0.000027
    15  H    0.000021   0.000000   0.000000   0.000000   0.000000  -0.000028
    16  Cl   0.002397  -0.069153   0.217590  -0.069152   0.002397   0.000485
    17  B   -0.027821   0.007872   0.000124   0.007872  -0.027825   0.331680
    18  H    0.000000   0.000000   0.000000   0.000000   0.000021  -0.000028
    19  H    0.000021   0.000000   0.000000   0.000000   0.000000  -0.000028
    20  C   -0.000001   0.000000   0.000000   0.000000  -0.000001   0.000008
    21  H    0.000000   0.000000   0.000000   0.000000   0.000000   0.000000
    22  H    0.000000   0.000000   0.000000   0.000000   0.000000   0.000000
    23  H    0.000000   0.000000   0.000000   0.000000   0.000000   0.000001
    24  C   -0.000001   0.000000   0.000000   0.000000  -0.000001   0.000008
    25  H    0.000000   0.000000   0.000000   0.000000   0.000000   0.000000
    26  H    0.000000   0.000000   0.000000   0.000000   0.000000   0.000000
    27  H    0.000000   0.000000   0.000000   0.000000   0.000000   0.000001
    28  O   -0.001400  -0.000046   0.000000   0.000238   0.009803  -0.067166
    29  O    0.009804   0.000238   0.000000  -0.000046  -0.001400  -0.067166
               7          8          9         10         11         12
     1  C    0.363502  -0.025290   0.000830   0.006254   0.000086  -0.000494
     2  C   -0.047342   0.354037   0.003845   0.000063   0.000002  -0.000001
     3  C    0.005139  -0.038317  -0.038316   0.005139   0.000000   0.000000
     4  C    0.000063   0.003845   0.354036  -0.047341  -0.000001   0.000002
     5  C    0.006254   0.000830  -0.025291   0.363502  -0.000494   0.000086
     6  C   -0.037967   0.004140   0.004140  -0.037966   0.002028   0.002029
     7  H    0.561675  -0.004188   0.000011  -0.000152   0.000006  -0.000014
     8  H   -0.004188   0.559487  -0.000184   0.000011   0.000000   0.000000
     9  H    0.000011  -0.000184   0.559488  -0.004188   0.000000   0.000000
    10  H   -0.000152   0.000011  -0.004188   0.561673  -0.000014   0.000006
    11  C    0.000006   0.000000   0.000000  -0.000014   5.039528  -0.090820
    12  C   -0.000014   0.000000   0.000000   0.000006  -0.090820   5.039553
    13  C    0.000033   0.000000   0.000000   0.000033   0.220062   0.220043
    14  H    0.000000   0.000000   0.000000  -0.000016   0.398590   0.003874
    15  H   -0.000016   0.000000   0.000000   0.000000   0.003873   0.398588
    16  Cl  -0.000125   0.001802   0.001802  -0.000125   0.000000   0.000000
    17  B   -0.008005  -0.000230  -0.000230  -0.008006  -0.028007  -0.028003
    18  H    0.000000   0.000000   0.000000  -0.000016   0.398581   0.003874
    19  H   -0.000016   0.000000   0.000000   0.000000   0.003875   0.398582
    20  C   -0.000001   0.000000   0.000000  -0.000001  -0.059157  -0.059155
    21  H    0.000000   0.000000   0.000000   0.000000   0.007086  -0.008729
    22  H    0.000000   0.000000   0.000000   0.000000  -0.008727   0.007087
    23  H    0.000000   0.000000   0.000000   0.000000  -0.004143  -0.004153
    24  C   -0.000001   0.000000   0.000000  -0.000001  -0.059153  -0.059161
    25  H    0.000000   0.000000   0.000000   0.000000  -0.008729   0.007086
    26  H    0.000000   0.000000   0.000000   0.000000   0.007087  -0.008726
    27  H    0.000000   0.000000   0.000000   0.000000  -0.004154  -0.004143
    28  O    0.000118   0.000000  -0.000001   0.007667   0.215770  -0.014566
    29  O    0.007666  -0.000001   0.000000   0.000118  -0.014566   0.215770
              13         14         15         16         17         18
     1  C    0.000012   0.000000   0.000021   0.002397  -0.027821   0.000000
     2  C    0.000000   0.000000   0.000000  -0.069153   0.007872   0.000000
     3  C    0.000000   0.000000   0.000000   0.217590   0.000124   0.000000
     4  C    0.000000   0.000000   0.000000  -0.069152   0.007872   0.000000
     5  C    0.000012   0.000021   0.000000   0.002397  -0.027825   0.000021
     6  C   -0.000572  -0.000027  -0.000028   0.000485   0.331680  -0.000028
     7  H    0.000033   0.000000  -0.000016  -0.000125  -0.008005   0.000000
     8  H    0.000000   0.000000   0.000000   0.001802  -0.000230   0.000000
     9  H    0.000000   0.000000   0.000000   0.001802  -0.000230   0.000000
    10  H    0.000033  -0.000016   0.000000  -0.000125  -0.008006  -0.000016
    11  C    0.220062   0.398590   0.003873   0.000000  -0.028007   0.398581
    12  C    0.220043   0.003874   0.398588   0.000000  -0.028003   0.003874
    13  C    5.531841  -0.081013  -0.081011   0.000000  -0.024034  -0.080995
    14  H   -0.081013   0.613045  -0.000475   0.000000  -0.001170  -0.045841
    15  H   -0.081011  -0.000475   0.613038   0.000000  -0.001172   0.000329
    16  Cl   0.000000   0.000000   0.000000  16.804755   0.000011   0.000000
    17  B   -0.024034  -0.001170  -0.001172   0.000011   3.521481  -0.001173
    18  H   -0.080995  -0.045841   0.000329   0.000000  -0.001173   0.613028
    19  H   -0.080996   0.000329  -0.045840   0.000000  -0.001171  -0.000475
    20  C    0.357579   0.006304  -0.011560   0.000000   0.001231  -0.011569
    21  H   -0.037592  -0.000641   0.002773   0.000000  -0.000078   0.001331
    22  H   -0.037592   0.001048   0.001331   0.000000  -0.000078   0.002775
    23  H   -0.043171   0.000050   0.002344   0.000000   0.000420   0.002343
    24  C    0.357590  -0.011562   0.006303   0.000000   0.001231   0.006304
    25  H   -0.037596   0.002774  -0.000641   0.000000  -0.000078   0.001049
    26  H   -0.037591   0.001331   0.001048   0.000000  -0.000078  -0.000641
    27  H   -0.043167   0.002345   0.000050   0.000000   0.000419   0.000050
    28  O   -0.039289  -0.044846  -0.000100   0.000000   0.351516  -0.044840
    29  O   -0.039286  -0.000101  -0.044843   0.000000   0.351520  -0.000100
              19         20         21         22         23         24
     1  C    0.000021  -0.000001   0.000000   0.000000   0.000000  -0.000001
     2  C    0.000000   0.000000   0.000000   0.000000   0.000000   0.000000
     3  C    0.000000   0.000000   0.000000   0.000000   0.000000   0.000000
     4  C    0.000000   0.000000   0.000000   0.000000   0.000000   0.000000
     5  C    0.000000  -0.000001   0.000000   0.000000   0.000000  -0.000001
     6  C   -0.000028   0.000008   0.000000   0.000000   0.000001   0.000008
     7  H   -0.000016  -0.000001   0.000000   0.000000   0.000000  -0.000001
     8  H    0.000000   0.000000   0.000000   0.000000   0.000000   0.000000
     9  H    0.000000   0.000000   0.000000   0.000000   0.000000   0.000000
    10  H    0.000000  -0.000001   0.000000   0.000000   0.000000  -0.000001
    11  C    0.003875  -0.059157   0.007086  -0.008727  -0.004143  -0.059153
    12  C    0.398582  -0.059155  -0.008729   0.007087  -0.004153  -0.059161
    13  C   -0.080996   0.357579  -0.037592  -0.037592  -0.043171   0.357590
    14  H    0.000329   0.006304  -0.000641   0.001048   0.000050  -0.011562
    15  H   -0.045840  -0.011560   0.002773   0.001331   0.002344   0.006303
    16  Cl   0.000000   0.000000   0.000000   0.000000   0.000000   0.000000
    17  B   -0.001171   0.001231  -0.000078  -0.000078   0.000420   0.001231
    18  H   -0.000475  -0.011569   0.001331   0.002775   0.002343   0.006304
    19  H    0.613028   0.006303   0.001049  -0.000641   0.000050  -0.011570
    20  C    0.006303   5.146671   0.368465   0.368450   0.374015  -0.072464
    21  H    0.001049   0.368465   0.591093  -0.030931  -0.031281  -0.004110
    22  H   -0.000641   0.368450  -0.030931   0.591105  -0.031280  -0.004113
    23  H    0.000050   0.374015  -0.031281  -0.031280   0.578230   0.006434
    24  C   -0.011570  -0.072464  -0.004110  -0.004113   0.006434   5.146654
    25  H    0.001331  -0.004110   0.000043   0.002942   0.000009   0.368468
    26  H    0.002776  -0.004113   0.002942   0.000044   0.000009   0.368449
    27  H    0.002344   0.006434   0.000009   0.000009  -0.000280   0.374015
    28  O   -0.000100   0.002029  -0.000149   0.000074   0.000575   0.002028
    29  O   -0.044842   0.002028   0.000074  -0.000149   0.000575   0.002029
              25         26         27         28         29
     1  C    0.000000   0.000000   0.000000  -0.001400   0.009804
     2  C    0.000000   0.000000   0.000000  -0.000046   0.000238
     3  C    0.000000   0.000000   0.000000   0.000000   0.000000
     4  C    0.000000   0.000000   0.000000   0.000238  -0.000046
     5  C    0.000000   0.000000   0.000000   0.009803  -0.001400
     6  C    0.000000   0.000000   0.000001  -0.067166  -0.067166
     7  H    0.000000   0.000000   0.000000   0.000118   0.007666
     8  H    0.000000   0.000000   0.000000   0.000000  -0.000001
     9  H    0.000000   0.000000   0.000000  -0.000001   0.000000
    10  H    0.000000   0.000000   0.000000   0.007667   0.000118
    11  C   -0.008729   0.007087  -0.004154   0.215770  -0.014566
    12  C    0.007086  -0.008726  -0.004143  -0.014566   0.215770
    13  C   -0.037596  -0.037591  -0.043167  -0.039289  -0.039286
    14  H    0.002774   0.001331   0.002345  -0.044846  -0.000101
    15  H   -0.000641   0.001048   0.000050  -0.000100  -0.044843
    16  Cl   0.000000   0.000000   0.000000   0.000000   0.000000
    17  B   -0.000078  -0.000078   0.000419   0.351516   0.351520
    18  H    0.001049  -0.000641   0.000050  -0.044840  -0.000100
    19  H    0.001331   0.002776   0.002344  -0.000100  -0.044842
    20  C   -0.004110  -0.004113   0.006434   0.002029   0.002028
    21  H    0.000043   0.002942   0.000009  -0.000149   0.000074
    22  H    0.002942   0.000044   0.000009   0.000074  -0.000149
    23  H    0.000009   0.000009  -0.000280   0.000575   0.000575
    24  C    0.368468   0.368449   0.374015   0.002028   0.002029
    25  H    0.591093  -0.030931  -0.031281   0.000074  -0.000149
    26  H   -0.030931   0.591103  -0.031280  -0.000149   0.000074
    27  H   -0.031281  -0.031280   0.578234   0.000575   0.000575
    28  O    0.000074  -0.000149   0.000575   8.215107  -0.048978
    29  O   -0.000149   0.000074   0.000575  -0.048978   8.215098
 Mulliken charges:
               1
     1  C   -0.142523
     2  C   -0.098545
     3  C   -0.264977
     4  C   -0.098538
     5  C   -0.142530
     6  C   -0.030696
     7  H    0.153359
     8  H    0.144057
     9  H    0.144057
    10  H    0.153360
    11  C   -0.018608
    12  C   -0.018613
    13  C   -0.023302
    14  H    0.155982
    15  H    0.155987
    16  Cl   0.107317
    17  B    0.581782
    18  H    0.155992
    19  H    0.155991
    20  C   -0.417385
    21  H    0.138647
    22  H    0.138647
    23  H    0.149254
    24  C   -0.417378
    25  H    0.138647
    26  H    0.138648
    27  H    0.149249
    28  O   -0.543943
    29  O   -0.543941
 Sum of Mulliken charges =   0.00000
 Mulliken charges with hydrogens summed into heavy atoms:
               1
     1  C    0.010836
     2  C    0.045513
     3  C   -0.264977
     4  C    0.045518
     5  C    0.010831
     6  C   -0.030696
    11  C    0.293366
    12  C    0.293366
    13  C   -0.023302
    16  Cl   0.107317
    17  B    0.581782
    20  C    0.009163
    24  C    0.009168
    28  O   -0.543943
    29  O   -0.543941
 Electronic spatial extent (au):  <R**2>=           7865.4664
 Charge=              0.0000 electrons
 Dipole moment (field-independent basis, Debye):
    X=             -5.0091    Y=              0.0306    Z=              0.0329  Tot=              5.0093
 Quadrupole moment (field-independent basis, Debye-Ang):
   XX=            -70.3254   YY=            -93.0689   ZZ=            -96.0927
   XY=             -2.9376   XZ=             -0.0950   YZ=             -0.6621
 Traceless Quadrupole moment (field-independent basis, Debye-Ang):
   XX=             16.1702   YY=             -6.5732   ZZ=             -9.5970
   XY=             -2.9376   XZ=             -0.0950   YZ=             -0.6621
 Octapole moment (field-independent basis, Debye-Ang**2):
  XXX=            440.0938  YYY=           -159.8390  ZZZ=              0.3381  XYY=            220.6259
  XXY=            -39.2280  XXZ=              0.9644  XZZ=            211.9563  YZZ=            -54.8410
  YYZ=             -0.7218  XYZ=             -2.4291
 Hexadecapole moment (field-independent basis, Debye-Ang**3):
 XXXX=          -8258.6862 YYYY=           -750.7003 ZZZZ=           -288.8952 XXXY=            265.8944
 XXXZ=             15.7010 YYYX=            397.9520 YYYZ=             26.8167 ZZZX=             20.0100
 ZZZY=             36.1114 XXYY=          -1669.2052 XXZZ=          -1610.2859 YYZZ=           -179.0094
 XXYZ=              8.9740 YYXZ=              3.7252 ZZXY=            127.3572
 N-N= 1.038448944164D+03 E-N=-4.575146506128D+03  KE= 1.060300600348D+03
 Calling FoFJK, ICntrl=      2127 FMM=F ISym2X=0 I1Cent= 0 IOpClX= 0 NMat=1 NMatS=1 NMatT=0.
 -------------------------------------------------------------------
 Center     Atomic                   Forces (Hartrees/Bohr)
 Number     Number              X              Y              Z
 -------------------------------------------------------------------
      1        6           0.016893295    0.010582403   -0.002420168
      2        6          -0.003301475    0.004714504   -0.000989526
      3        6          -0.037703096    0.000228886    0.000240876
      4        6          -0.003338616   -0.004677565    0.001029186
      5        6           0.016801664   -0.010782044    0.002203570
      6        6          -0.013097434    0.000084224    0.000088496
      7        1          -0.005528925   -0.008292234    0.001845010
      8        1           0.006251974   -0.008400905    0.001771649
      9        1           0.006331532    0.008325820   -0.001850879
     10        1          -0.005454312    0.008357329   -0.001771421
     11        6           0.022195404    0.083073508   -0.018308163
     12        6           0.021388986   -0.083325182    0.018037298
     13        6          -0.101405084    0.000596541    0.000645477
     14        1           0.002751481    0.021496887    0.006892056
     15        1           0.002406880   -0.021530550   -0.006925876
     16       17           0.026391478   -0.000162750   -0.000171546
     17        5          -0.004327165    0.000020601    0.000024065
     18        1           0.002567078    0.016676323   -0.015163323
     19        1           0.002553929   -0.016708324    0.015136775
     20        6          -0.002918631    0.002090944    0.009978652
     21        1          -0.012934338   -0.013235285   -0.000528226
     22        1          -0.012877012    0.011898549   -0.006057506
     23        1           0.008726164   -0.003576032   -0.016267356
     24        6          -0.003042137   -0.002045458   -0.009949014
     25        1          -0.012770263    0.013395456    0.000707273
     26        1          -0.012952945   -0.011738717    0.006228864
     27        1           0.008974655    0.003465428    0.016152369
     28        8           0.043611222   -0.019921739    0.004035545
     29        8           0.043805691    0.019389380   -0.004614157
 -------------------------------------------------------------------
 Cartesian Forces:  Max     0.101405084 RMS     0.020996570

 GradGradGradGradGradGradGradGradGradGradGradGradGradGradGradGradGradGrad
 Berny optimization.
 FormGI is forming the generalized inverse of G from B-inverse, IUseBI=4.
 Internal  Forces:  Max     0.128191734 RMS     0.017636701
 Search for a local minimum.
 Step number   1 out of a maximum of  167
 All quantities printed in internal units (Hartrees-Bohrs-Radians)
 Mixed Optimization -- RFO/linear search
 Second derivative matrix not updated -- first step.
 ITU=  0
     Eigenvalues ---    0.00237   0.00237   0.00766   0.01511   0.01669
     Eigenvalues ---    0.01873   0.02008   0.02070   0.02070   0.02070
     Eigenvalues ---    0.02070   0.02070   0.02070   0.02070   0.02070
     Eigenvalues ---    0.02116   0.04406   0.04585   0.05075   0.05720
     Eigenvalues ---    0.05720   0.05720   0.05720   0.06116   0.06605
     Eigenvalues ---    0.07055   0.07478   0.11983   0.12493   0.12494
     Eigenvalues ---    0.13223   0.14829   0.15920   0.16000   0.16000
     Eigenvalues ---    0.16000   0.16000   0.16000   0.16000   0.16000
     Eigenvalues ---    0.16000   0.16000   0.16000   0.22000   0.22981
     Eigenvalues ---    0.23340   0.24000   0.24832   0.25000   0.25000
     Eigenvalues ---    0.25000   0.28519   0.28519   0.28519   0.29539
     Eigenvalues ---    0.37230   0.37230   0.37230   0.37230   0.37230
     Eigenvalues ---    0.37230   0.37230   0.37230   0.37230   0.37230
     Eigenvalues ---    0.37230   0.37230   0.37230   0.37230   0.40671
     Eigenvalues ---    0.41268   0.41640   0.42324   0.45389   0.45389
     Eigenvalues ---    0.45389   0.45389   0.45389   0.45389   0.45389
     Eigenvalues ---    0.45389
 RFO step:  Lambda=-9.96973988D-02 EMin= 2.36824051D-03
 Linear search not attempted -- first point.
 Maximum step size (   0.300) exceeded in Quadratic search.
    -- Step size scaled by   0.666
 Iteration  1 RMS(Cart)=  0.05941127 RMS(Int)=  0.00076996
 Iteration  2 RMS(Cart)=  0.00102957 RMS(Int)=  0.00025820
 Iteration  3 RMS(Cart)=  0.00000078 RMS(Int)=  0.00025820
 Variable       Old X    -DE/DX   Delta X   Delta X   Delta X     New X
                                 (Linear)    (Quad)   (Total)
    R1        2.64826  -0.00269   0.00000  -0.00323  -0.00323   2.64503
    R2        2.64826   0.00595   0.00000   0.00742   0.00742   2.65569
    R3        2.02201   0.01012   0.00000   0.01428   0.01428   2.03629
    R4        2.64826  -0.00328   0.00000  -0.00421  -0.00422   2.64405
    R5        2.02201   0.01056   0.00000   0.01489   0.01489   2.03690
    R6        2.64826  -0.00328   0.00000  -0.00421  -0.00422   2.64405
    R7        3.32592   0.02639   0.00000   0.04448   0.04448   3.37040
    R8        2.64826  -0.00268   0.00000  -0.00322  -0.00322   2.64504
    R9        2.02201   0.01056   0.00000   0.01489   0.01489   2.03690
   R10        2.64826   0.00596   0.00000   0.00743   0.00743   2.65570
   R11        2.02201   0.01012   0.00000   0.01428   0.01428   2.03629
   R12        2.91018   0.00425   0.00000   0.00735   0.00735   2.91752
   R13        2.64826   0.12819   0.00000   0.16240   0.16283   2.81110
   R14        2.02201   0.01838   0.00000   0.02593   0.02593   2.04794
   R15        2.02201   0.01831   0.00000   0.02583   0.02583   2.04784
   R16        2.64826   0.04366   0.00000   0.05251   0.05249   2.70075
   R17        2.64826   0.12818   0.00000   0.16238   0.16282   2.81108
   R18        2.02201   0.01838   0.00000   0.02593   0.02593   2.04794
   R19        2.02201   0.01832   0.00000   0.02584   0.02584   2.04785
   R20        2.64826   0.04368   0.00000   0.05254   0.05251   2.70078
   R21        2.91018   0.02252   0.00000   0.03895   0.03895   2.94913
   R22        2.91018   0.02252   0.00000   0.03896   0.03896   2.94913
   R23        2.64826  -0.00274   0.00000  -0.01151  -0.01195   2.63631
   R24        2.64826  -0.00273   0.00000  -0.01150  -0.01194   2.63632
   R25        2.02201   0.01790   0.00000   0.02524   0.02524   2.04725
   R26        2.02201   0.01792   0.00000   0.02528   0.02528   2.04728
   R27        2.02201   0.01869   0.00000   0.02637   0.02637   2.04838
   R28        2.02201   0.01790   0.00000   0.02525   0.02525   2.04726
   R29        2.02201   0.01793   0.00000   0.02529   0.02529   2.04729
   R30        2.02201   0.01869   0.00000   0.02636   0.02636   2.04837
    A1        2.09440   0.00393   0.00000   0.00861   0.00862   2.10301
    A2        2.09440  -0.00147   0.00000  -0.00302  -0.00303   2.09137
    A3        2.09440  -0.00247   0.00000  -0.00559  -0.00559   2.08881
    A4        2.09440  -0.00317   0.00000  -0.00710  -0.00711   2.08729
    A5        2.09440   0.00277   0.00000   0.00659   0.00659   2.10098
    A6        2.09440   0.00040   0.00000   0.00052   0.00052   2.09491
    A7        2.09440   0.00580   0.00000   0.01016   0.01015   2.10455
    A8        2.09440  -0.00290   0.00000  -0.00508  -0.00508   2.08932
    A9        2.09440  -0.00290   0.00000  -0.00508  -0.00507   2.08932
   A10        2.09440  -0.00317   0.00000  -0.00711  -0.00712   2.08728
   A11        2.09440   0.00040   0.00000   0.00052   0.00053   2.09492
   A12        2.09440   0.00277   0.00000   0.00659   0.00659   2.10099
   A13        2.09440   0.00393   0.00000   0.00861   0.00862   2.10301
   A14        2.09440  -0.00146   0.00000  -0.00301  -0.00302   2.09138
   A15        2.09440  -0.00247   0.00000  -0.00560  -0.00560   2.08879
   A16        2.09440  -0.00734   0.00000  -0.01317  -0.01316   2.08123
   A17        2.09440   0.00366   0.00000   0.00657   0.00657   2.10096
   A18        2.09440   0.00368   0.00000   0.00660   0.00659   2.10099
   A19        1.87078   0.01760   0.00000   0.04048   0.03995   1.91073
   A20        1.87078   0.01764   0.00000   0.04062   0.04010   1.91087
   A21        2.09440  -0.02318   0.00000  -0.02405  -0.02321   2.07119
   A22        1.87698  -0.00908   0.00000  -0.02179  -0.02299   1.85399
   A23        1.87078  -0.00136   0.00000  -0.01850  -0.01843   1.85235
   A24        1.87078  -0.00137   0.00000  -0.01842  -0.01836   1.85242
   A25        1.87078   0.01761   0.00000   0.04050   0.03997   1.91075
   A26        1.87078   0.01764   0.00000   0.04062   0.04009   1.91087
   A27        2.09440  -0.02320   0.00000  -0.02407  -0.02323   2.07116
   A28        1.87698  -0.00908   0.00000  -0.02179  -0.02299   1.85399
   A29        1.87078  -0.00137   0.00000  -0.01852  -0.01845   1.85233
   A30        1.87078  -0.00136   0.00000  -0.01840  -0.01834   1.85244
   A31        2.09440  -0.02121   0.00000  -0.04092  -0.04052   2.05388
   A32        1.87078   0.00815   0.00000   0.01580   0.01581   1.88659
   A33        1.87078   0.00793   0.00000   0.01519   0.01521   1.88599
   A34        1.87078   0.00794   0.00000   0.01522   0.01524   1.88602
   A35        1.87078   0.00815   0.00000   0.01580   0.01580   1.88658
   A36        1.87698  -0.01119   0.00000  -0.02152  -0.02155   1.85543
   A37        2.09440  -0.00744   0.00000  -0.00424  -0.00381   2.09058
   A38        2.09440  -0.00743   0.00000  -0.00422  -0.00379   2.09061
   A39        2.09440   0.01487   0.00000   0.00846   0.00760   2.10200
   A40        1.91063   0.00524   0.00000   0.01346   0.01339   1.92403
   A41        1.91063   0.00538   0.00000   0.01383   0.01377   1.92440
   A42        1.91063   0.00094   0.00000   0.00235   0.00233   1.91297
   A43        1.91063  -0.00522   0.00000  -0.01327  -0.01337   1.89726
   A44        1.91063  -0.00315   0.00000  -0.00815  -0.00817   1.90246
   A45        1.91063  -0.00319   0.00000  -0.00822  -0.00825   1.90239
   A46        1.91063   0.00526   0.00000   0.01350   0.01343   1.92407
   A47        1.91063   0.00539   0.00000   0.01385   0.01378   1.92442
   A48        1.91063   0.00095   0.00000   0.00237   0.00234   1.91298
   A49        1.91063  -0.00523   0.00000  -0.01330  -0.01340   1.89723
   A50        1.91063  -0.00316   0.00000  -0.00817  -0.00819   1.90244
   A51        1.91063  -0.00320   0.00000  -0.00824  -0.00826   1.90237
   A52        2.09440   0.02636   0.00000   0.04029   0.03967   2.13407
   A53        2.09440   0.02636   0.00000   0.04030   0.03969   2.13408
    D1        0.00000   0.00001   0.00000   0.00008   0.00008   0.00008
    D2       -3.14159   0.00002   0.00000   0.00008   0.00008  -3.14151
    D3       -3.14159   0.00000   0.00000  -0.00002  -0.00002   3.14158
    D4        0.00000   0.00000   0.00000  -0.00001  -0.00001  -0.00001
    D5        0.00000  -0.00001   0.00000  -0.00005  -0.00005  -0.00005
    D6        3.14159  -0.00001   0.00000  -0.00005  -0.00005   3.14154
    D7       -3.14159   0.00001   0.00000   0.00005   0.00005  -3.14155
    D8        0.00000   0.00001   0.00000   0.00004   0.00004   0.00004
    D9        0.00000  -0.00001   0.00000  -0.00003  -0.00003  -0.00003
   D10        3.14159  -0.00001   0.00000  -0.00004  -0.00004   3.14155
   D11        3.14159  -0.00001   0.00000  -0.00004  -0.00004   3.14155
   D12        0.00000  -0.00001   0.00000  -0.00005  -0.00005  -0.00005
   D13        0.00000  -0.00001   0.00000  -0.00005  -0.00005  -0.00004
   D14       -3.14159  -0.00001   0.00000  -0.00006  -0.00006   3.14154
   D15        3.14159  -0.00001   0.00000  -0.00003  -0.00003   3.14156
   D16        0.00000  -0.00001   0.00000  -0.00005  -0.00005  -0.00004
   D17        0.00000   0.00001   0.00000   0.00007   0.00007   0.00007
   D18       -3.14159   0.00000   0.00000  -0.00001  -0.00001   3.14158
   D19        3.14159   0.00002   0.00000   0.00009   0.00009  -3.14151
   D20        0.00000   0.00000   0.00000   0.00000   0.00000   0.00000
   D21        0.00000   0.00000   0.00000  -0.00003  -0.00003  -0.00003
   D22        3.14159   0.00000   0.00000  -0.00002  -0.00002   3.14157
   D23        3.14159   0.00001   0.00000   0.00006   0.00006  -3.14154
   D24        0.00000   0.00001   0.00000   0.00006   0.00006   0.00006
   D25       -3.14159   0.00006   0.00000   0.00037   0.00037  -3.14122
   D26        0.00000   0.00006   0.00000   0.00038   0.00038   0.00037
   D27        0.00000   0.00006   0.00000   0.00036   0.00036   0.00036
   D28        3.14159   0.00006   0.00000   0.00037   0.00037  -3.14122
   D29       -2.13619   0.00334   0.00000   0.00718   0.00753  -2.12866
   D30        2.01080   0.00084   0.00000   0.00244   0.00287   2.01367
   D31        0.00000   0.00592   0.00000   0.01218   0.01245   0.01245
   D32        2.13620  -0.00336   0.00000  -0.00719  -0.00754   2.12866
   D33        0.00000  -0.00585   0.00000  -0.01193  -0.01220  -0.01220
   D34       -2.01079  -0.00077   0.00000  -0.00220  -0.00262  -2.01342
   D35        0.00000  -0.00003   0.00000  -0.00012  -0.00012  -0.00011
   D36       -2.13619  -0.00252   0.00000  -0.00487  -0.00478  -2.14097
   D37        2.13620   0.00256   0.00000   0.00487   0.00480   2.14100
   D38        0.00000   0.00006   0.00000   0.00027   0.00027   0.00027
   D39        2.13619   0.00594   0.00000   0.02172   0.02173   2.15792
   D40       -2.13620  -0.00588   0.00000  -0.02145  -0.02145  -2.15765
   D41       -2.13620   0.00333   0.00000   0.00717   0.00752  -2.12867
   D42        0.00000   0.00593   0.00000   0.01220   0.01247   0.01247
   D43        2.01080   0.00085   0.00000   0.00247   0.00291   2.01370
   D44        2.13619  -0.00336   0.00000  -0.00721  -0.00756   2.12863
   D45       -2.01080  -0.00077   0.00000  -0.00218  -0.00261  -2.01341
   D46        0.00000  -0.00585   0.00000  -0.01191  -0.01218  -0.01218
   D47        0.00000  -0.00003   0.00000  -0.00015  -0.00015  -0.00015
   D48        2.13619   0.00256   0.00000   0.00488   0.00480   2.14100
   D49       -2.13620  -0.00252   0.00000  -0.00485  -0.00476  -2.14096
   D50        0.00000   0.00006   0.00000   0.00028   0.00028   0.00028
   D51        2.13620   0.00594   0.00000   0.02173   0.02174   2.15794
   D52       -2.13619  -0.00587   0.00000  -0.02143  -0.02143  -2.15763
   D53       -3.05385  -0.00784   0.00000  -0.01529  -0.01507  -3.06892
   D54       -0.95946  -0.00774   0.00000  -0.01483  -0.01457  -0.97402
   D55        1.13494  -0.00777   0.00000  -0.01498  -0.01475   1.12019
   D56        0.95946   0.00776   0.00000   0.01483   0.01458   0.97403
   D57        3.05385   0.00787   0.00000   0.01529   0.01508   3.06893
   D58       -1.13494   0.00783   0.00000   0.01513   0.01490  -1.12004
   D59       -1.04720  -0.00011   0.00000  -0.00043  -0.00045  -1.04765
   D60        1.04720  -0.00001   0.00000   0.00003   0.00005   1.04725
   D61        3.14159  -0.00004   0.00000  -0.00013  -0.00013   3.14146
   D62        0.95946   0.00776   0.00000   0.01483   0.01457   0.97403
   D63        3.05385   0.00787   0.00000   0.01528   0.01507   3.06892
   D64       -1.13494   0.00783   0.00000   0.01512   0.01489  -1.12005
   D65       -3.05385  -0.00785   0.00000  -0.01531  -0.01510  -3.06895
   D66       -0.95946  -0.00774   0.00000  -0.01486  -0.01460  -0.97406
   D67        1.13494  -0.00778   0.00000  -0.01502  -0.01478   1.12016
   D68       -1.04720  -0.00011   0.00000  -0.00043  -0.00045  -1.04765
   D69        1.04720  -0.00001   0.00000   0.00002   0.00005   1.04724
   D70        3.14159  -0.00004   0.00000  -0.00014  -0.00014   3.14146
   D71        3.14159  -0.00003   0.00000  -0.00013  -0.00014   3.14145
   D72        0.00000  -0.00003   0.00000  -0.00014  -0.00015  -0.00015
   D73       -3.14159  -0.00003   0.00000  -0.00014  -0.00015   3.14145
   D74        0.00000  -0.00003   0.00000  -0.00013  -0.00014  -0.00014
         Item               Value     Threshold  Converged?
 Maximum Force            0.128192     0.000450     NO 
 RMS     Force            0.017637     0.000300     NO 
 Maximum Displacement     0.188146     0.001800     NO 
 RMS     Displacement     0.059678     0.001200     NO 
 Predicted change in Energy=-4.899305D-02
 GradGradGradGradGradGradGradGradGradGradGradGradGradGradGradGradGradGrad

                          Input orientation:                          
 ---------------------------------------------------------------------
 Center     Atomic      Atomic             Coordinates (Angstroms)
 Number     Number       Type             X           Y           Z
 ---------------------------------------------------------------------
      1          6           0       -0.780786   -0.622354    0.246272
      2          6           0        0.618832   -0.633700    0.237664
      3          6           0        1.317804    0.549737   -0.024232
      4          6           0        0.629983    1.741653   -0.277040
      5          6           0       -0.769665    1.747410   -0.267316
      6          6           0       -1.485856    0.566867   -0.005874
      7          1           0       -1.322899   -1.531608    0.447515
      8          1           0        1.157726   -1.546909    0.431228
      9          1           0        1.177417    2.648227   -0.477708
     10          1           0       -1.303226    2.663232   -0.461514
     11          6           0       -5.144530    1.833130   -0.252153
     12          6           0       -5.156210   -0.654681    0.288330
     13          6           0       -5.920066    0.593924    0.023110
     14          1           0       -5.411025    2.594441    0.471616
     15          1           0       -5.441402   -1.412641   -0.431821
     16         17           0        3.101269    0.538831   -0.035900
     17          5           0       -3.029681    0.576279    0.004220
     18          1           0       -5.424209    2.226563   -1.222375
     19          1           0       -5.427980   -1.044731    1.262167
     20          6           0       -6.865481    0.334077   -1.191049
     21          1           0       -7.500598   -0.521438   -0.995124
     22          1           0       -7.492977    1.198959   -1.369745
     23          1           0       -6.273403    0.138432   -2.077685
     24          6           0       -6.846263    0.865233    1.249515
     25          1           0       -7.473382    1.728476    1.061885
     26          1           0       -7.481925    0.008092    1.436484
     27          1           0       -6.240296    1.053535    2.128319
     28          8           0       -3.717045    1.763746   -0.248142
     29          8           0       -3.728146   -0.602726    0.265647
 ---------------------------------------------------------------------
                    Distance matrix (angstroms):
                    1          2          3          4          5
     1  C    0.000000
     2  C    1.399690   0.000000
     3  C    2.418894   1.399169   0.000000
     4  C    2.802258   2.430503   1.399169   0.000000
     5  C    2.424805   2.802252   2.418892   1.399694   0.000000
     6  C    1.405328   2.435237   2.803772   2.435247   1.405334
     7  H    1.077557   2.149556   3.395269   3.879815   3.401325
     8  H    2.155652   1.077880   2.151509   3.405113   3.880121
     9  H    3.880129   3.405117   2.151514   1.077881   2.155658
    10  H    3.401320   3.879809   3.395273   2.149567   1.077557
    11  C    5.031907   6.288204   6.592481   5.775291   4.375731
    12  C    4.375746   5.775302   6.592509   6.288250   5.031954
    13  C    5.285957   6.656597   7.238160   6.656614   5.285973
    14  H    5.642487   6.843595   7.050094   6.146667   4.775532
    15  H    4.775532   6.146657   7.050101   6.843628   5.642527
    16  Cl   4.061812   2.759014   1.783536   2.759018   4.061816
    17  B    2.559852   3.850999   4.347659   3.851019   2.559874
    18  H    5.642219   6.843330   7.049967   6.146710   4.775616
    19  H    4.775653   6.146746   7.050018   6.843392   5.642275
    20  C    6.324885   7.680674   8.268865   7.681059   6.325328
    21  H    6.834261   8.213252   8.936121   8.470158   7.140227
    22  H    7.140182   8.470174   8.936540   8.214073   6.835135
    23  H    6.012356   7.311630   7.874787   7.312276   6.013101
    24  C    6.325300   7.681033   8.268854   7.680673   6.324876
    25  H    7.140201   8.470132   8.936108   8.213247   6.834249
    26  H    6.835155   8.214093   8.936571   8.470210   7.140210
    27  H    6.013065   7.312247   7.874780   7.311634   6.012348
    28  O    3.815697   4.978312   5.183981   4.347181   2.947488
    29  O    2.947489   4.347178   5.183995   4.978344   3.815730
                    6          7          8          9         10
     6  C    0.000000
     7  H    2.153071   0.000000
     8  H    3.412862   2.480725   0.000000
     9  H    3.412874   4.957685   4.292519   0.000000
    10  H    2.153069   4.292249   4.957677   2.480741   0.000000
    11  C    3.879429   5.139636   7.184017   6.378265   3.935545
    12  C    3.879463   3.935558   6.378266   7.184069   5.139679
    13  C    4.434387   5.082515   7.405732   7.405757   5.082529
    14  H    4.443648   5.808411   7.765365   6.656702   4.213013
    15  H    4.443673   4.213010   6.656679   7.765405   5.808452
    16  Cl   4.587309   4.908530   2.888923   2.888936   4.908544
    17  B    1.543887   2.748237   4.714302   4.714329   2.748259
    18  H    4.443545   5.808023   7.765009   6.656861   4.213323
    19  H    4.443593   4.213360   6.656889   7.765074   5.808068
    20  C    5.513547   6.073376   8.398913   8.399545   6.074197
    21  H    6.191942   6.423832   8.834741   9.253239   6.988152
    22  H    6.192349   6.987725   9.252997   8.835827   6.425106
    23  H    5.234173   5.802858   8.022263   8.023324   5.804247
    24  C    5.513527   6.074175   8.399515   8.398916   6.073358
    25  H    6.191923   6.988136   9.253210   8.834739   6.423810
    26  H    6.192372   6.425134   8.835844   9.253035   6.987738
    27  H    5.234149   5.804211   8.023288   8.022273   5.802845
    28  O    2.543506   4.132220   5.931726   4.979033   2.584787
    29  O    2.543528   2.584785   4.979020   5.931763   4.132248
                   11         12         13         14         15
    11  C    0.000000
    12  C    2.545872   0.000000
    13  C    1.487568   1.487560   0.000000
    14  H    1.083723   3.264249   2.112427   0.000000
    15  H    3.264268   1.083723   2.112436   4.107776   0.000000
    16  Cl   8.349561   8.349584   9.021696   8.771673   8.771672
    17  B    2.473456   2.473481   2.890500   3.156301   3.156316
    18  H    1.083670   3.264295   2.112491   1.733527   3.724121
    19  H    3.264290   1.083676   2.112486   3.724087   1.733531
    20  C    2.467866   2.467350   1.560613   3.160561   2.378120
    21  H    3.412778   2.676035   2.186073   4.028193   2.313405
    22  H    2.677011   3.412577   2.186358   3.110065   3.450959
    23  H    2.734762   2.734077   2.178454   3.643434   2.409756
    24  C    2.467332   2.467852   1.560614   2.378065   3.160575
    25  H    2.676042   3.412786   2.186104   2.313359   4.028239
    26  H    3.412576   2.677028   2.186373   3.450912   3.110109
    27  H    2.734066   2.734740   2.178461   2.409718   3.643428
    28  O    1.429175   2.864924   2.509056   2.019325   3.618920
    29  O    2.864900   1.429189   2.509045   3.618892   2.019324
                   16         17         18         19         20
    16  Cl   0.000000
    17  B    6.131196   0.000000
    18  H    8.771541   3.156221   0.000000
    19  H    8.771587   3.156254   4.107837   0.000000
    20  C   10.035557   4.025008   2.379023   3.160030   0.000000
    21  H   10.697844   4.710920   3.451745   3.108849   1.083359
    22  H   10.698269   4.711318   2.314625   4.028066   1.083376
    23  H    9.602796   3.879145   2.411012   3.642694   1.083954
    24  C   10.035547   4.024990   3.160015   2.379001   2.497769
    25  H   10.697833   4.710912   3.108866   3.451732   2.718383
    26  H   10.698299   4.711337   4.028069   2.314630   2.718492
    27  H    9.602791   3.879125   3.642683   2.410974   3.453503
    28  O    6.930720   1.395075   2.019341   3.618822   3.584087
    29  O    6.930728   1.395080   3.618800   2.019371   3.583635
                   21         22         23         24         25
    21  H    0.000000
    22  H    1.760729   0.000000
    23  H    1.764475   1.764442   0.000000
    24  C    2.718348   2.718481   3.453501   0.000000
    25  H    3.048629   2.488694   3.718210   1.083361   0.000000
    26  H    2.488668   3.048476   3.718453   1.083381   1.760715
    27  H    3.718171   3.718442   4.304530   1.083951   1.764462
    28  O    4.482780   3.979276   3.538904   3.583616   3.978376
    29  O    3.978385   4.482692   3.538199   3.584069   4.482777
                   26         27         28         29
    26  H    0.000000
    27  H    1.764435   0.000000
    28  O    4.482701   3.538186   0.000000
    29  O    3.979299   3.538876   2.421630   0.000000
 Symmetry turned off by external request.
 Stoichiometry    C11H14BClO2
 Framework group  C1[X(C11H14BClO2)]
 Deg. of freedom    81
 Full point group                 C1      NOp   1
 Rotational constants (GHZ):      2.0359986      0.1927910      0.1832728
 Standard basis: 6-31G (6D, 7F)
   167 basis functions,   410 primitive gaussians,   167 cartesian basis functions
    59 alpha electrons       59 beta electrons
       nuclear repulsion energy      1025.1175001440 Hartrees.
 NAtoms=   29 NActive=   29 NUniq=   29 SFac= 1.00D+00 NAtFMM=   60 NAOKFM=F Big=F
 Integral buffers will be    131072 words long.
 Raffenetti 2 integral format.
 Two-electron integral symmetry is turned off.
 Nuclear repulsion after empirical dispersion term =     1025.0905519797 Hartrees.
 One-electron integrals computed using PRISM.
 NBasis=   167 RedAO= T EigKep=  6.74D-04  NBF=   167
 NBsUse=   167 1.00D-06 EigRej= -1.00D+00 NBFU=   167
 Initial guess from the checkpoint file:  "E:\PROJECT- VIT group\ML\Substrates\molecule_10.chk"
 B after Tr=     0.027023   -0.000170   -0.000228
         Rot=    1.000000   -0.000021    0.000000    0.000000 Ang=   0.00 deg.
 ExpMin= 1.27D-01 ExpMax= 2.52D+04 ExpMxC= 3.78D+03 IAcc=1 IRadAn=         1 AccDes= 0.00D+00
 Harris functional with IExCor=  402 and IRadAn=       1 diagonalized for initial guess.
 HarFok:  IExCor=  402 AccDes= 0.00D+00 IRadAn=         1 IDoV= 1 UseB2=F ITyADJ=14
 ICtDFT=  3500011 ScaDFX=  1.000000  1.000000  1.000000  1.000000
 FoFCou: FMM=F IPFlag=           0 FMFlag=      100000 FMFlg1=           0
         NFxFlg=           0 DoJE=T BraDBF=F KetDBF=T FulRan=T
         wScrn=  0.000000 ICntrl=     500 IOpCl=  0 I1Cent=   200000004 NGrid=           0
         NMat0=    1 NMatS0=      1 NMatT0=    0 NMatD0=    1 NMtDS0=    0 NMtDT0=    0
 Symmetry not used in FoFCou.
 Keep R1 ints in memory in canonical form, NReq=100874417.
 Requested convergence on RMS density matrix=1.00D-08 within 128 cycles.
 Requested convergence on MAX density matrix=1.00D-06.
 Requested convergence on             energy=1.00D-06.
 No special actions if energy rises.
 Integral accuracy reduced to 1.0D-05 until final iterations.
 Initial convergence to 1.0D-05 achieved.  Increase integral accuracy.
 SCF Done:  E(RB3LYP) =  -1063.03807158     A.U. after   12 cycles
            NFock= 12  Conv=0.69D-08     -V/T= 2.0034
 Calling FoFJK, ICntrl=      2127 FMM=F ISym2X=0 I1Cent= 0 IOpClX= 0 NMat=1 NMatS=1 NMatT=0.
 -------------------------------------------------------------------
 Center     Atomic                   Forces (Hartrees/Bohr)
 Number     Number              X              Y              Z
 -------------------------------------------------------------------
      1        6           0.008930457    0.006163398   -0.001403227
      2        6           0.000059081    0.000930751   -0.000192186
      3        6          -0.025118379    0.000152475    0.000159890
      4        6           0.000053274   -0.000934799    0.000188560
      5        6           0.008877544   -0.006269225    0.001290129
      6        6          -0.006827523    0.000046078    0.000046840
      7        1          -0.002809518   -0.003782035    0.000845662
      8        1           0.002879144   -0.003463473    0.000725003
      9        1           0.002911932    0.003428410   -0.000760063
     10        1          -0.002775827    0.003814489   -0.000807469
     11        6           0.006591895    0.032266092   -0.007175955
     12        6           0.006278610   -0.032324352    0.007096037
     13        6          -0.053081384    0.000310724    0.000335089
     14        1           0.000401184    0.007099844    0.005224063
     15        1           0.000241814   -0.007106958   -0.005236143
     16       17           0.016435020   -0.000101849   -0.000107211
     17        5          -0.007518455    0.000041271    0.000048456
     18        1           0.000196888    0.004218766   -0.007704878
     19        1           0.000247191   -0.004225347    0.007695173
     20        6           0.007307086    0.001518251    0.007374707
     21        1          -0.005578686   -0.006179931    0.000107742
     22        1          -0.005536831    0.005731262   -0.002526661
     23        1           0.003144034   -0.001821474   -0.008217248
     24        6           0.007212334   -0.001596052   -0.007467287
     25        1          -0.005508908    0.006249676   -0.000029719
     26        1          -0.005584341   -0.005658604    0.002607950
     27        1           0.003262926    0.001775143    0.008174321
     28        8           0.022581434   -0.013691259    0.002823891
     29        8           0.022728004    0.013408728   -0.003115464
 -------------------------------------------------------------------
 Cartesian Forces:  Max     0.053081384 RMS     0.010059310

 GradGradGradGradGradGradGradGradGradGradGradGradGradGradGradGradGradGrad
 Berny optimization.
 Using GEDIIS/GDIIS optimizer.
 FormGI is forming the generalized inverse of G from B-inverse, IUseBI=4.
 Internal  Forces:  Max     0.045369803 RMS     0.006681898
 Search for a local minimum.
 Step number   2 out of a maximum of  167
 All quantities printed in internal units (Hartrees-Bohrs-Radians)
 Mixed Optimization -- RFO/linear search
 Update second derivatives using D2CorX and points    1    2
 DE= -4.41D-02 DEPred=-4.90D-02 R= 9.00D-01
 TightC=F SS=  1.41D+00  RLast= 3.09D-01 DXNew= 5.0454D-01 9.2664D-01
 Trust test= 9.00D-01 RLast= 3.09D-01 DXMaxT set to 5.05D-01
 ITU=  1  0
 Use linear search instead of GDIIS.
     Eigenvalues ---    0.00237   0.00237   0.00766   0.01515   0.01663
     Eigenvalues ---    0.01868   0.02006   0.02070   0.02070   0.02070
     Eigenvalues ---    0.02070   0.02070   0.02070   0.02070   0.02070
     Eigenvalues ---    0.02117   0.04361   0.04671   0.05146   0.05586
     Eigenvalues ---    0.05586   0.05644   0.05644   0.06097   0.06473
     Eigenvalues ---    0.06883   0.07386   0.11855   0.12515   0.13121
     Eigenvalues ---    0.13202   0.14602   0.15974   0.16000   0.16000
     Eigenvalues ---    0.16000   0.16000   0.16000   0.16000   0.16000
     Eigenvalues ---    0.16000   0.16052   0.16480   0.22000   0.22891
     Eigenvalues ---    0.23334   0.24001   0.24915   0.25000   0.25000
     Eigenvalues ---    0.25000   0.28491   0.28519   0.28754   0.29407
     Eigenvalues ---    0.36940   0.37230   0.37230   0.37230   0.37230
     Eigenvalues ---    0.37230   0.37230   0.37230   0.37230   0.37230
     Eigenvalues ---    0.37230   0.37230   0.37230   0.37235   0.41248
     Eigenvalues ---    0.41266   0.41717   0.42369   0.44756   0.45389
     Eigenvalues ---    0.45389   0.45389   0.45389   0.45389   0.45389
     Eigenvalues ---    0.51749
 RFO step:  Lambda=-4.33590654D-03 EMin= 2.36824085D-03
 Quartic linear search produced a step of  0.81093.
 Iteration  1 RMS(Cart)=  0.04705972 RMS(Int)=  0.00071488
 Iteration  2 RMS(Cart)=  0.00080694 RMS(Int)=  0.00039932
 Iteration  3 RMS(Cart)=  0.00000044 RMS(Int)=  0.00039932
 Variable       Old X    -DE/DX   Delta X   Delta X   Delta X     New X
                                 (Linear)    (Quad)   (Total)
    R1        2.64503  -0.00138  -0.00262  -0.00164  -0.00426   2.64077
    R2        2.65569   0.00276   0.00602   0.00259   0.00861   2.66429
    R3        2.03629   0.00476   0.01158   0.00588   0.01746   2.05375
    R4        2.64405  -0.00244  -0.00342  -0.00513  -0.00855   2.63550
    R5        2.03690   0.00450   0.01207   0.00391   0.01599   2.05288
[...]
 3584,-0.00000041,-0.00000096,-0.00032156,-0.00002462,-0.00009771,0.000
 12340,0.00003219,0.00027274,0.00003433,-0.00018977,0.00009070,-0.13155
 956,0.02718480,0.11942617,-0.01083776,0.00507731,0.01570627,-0.0107037
 5,0.00219200,0.01612721,0.14262360,0.00001301,0.00002768,-0.00000705,0
 .00000972,-0.00000995,0.00000101,-0.00000745,-0.00000397,0.00000024,-0
 .00000538,-0.00001206,0.00000437,-0.00001510,0.00002139,0.00000409,0.0
 0000764,-0.00008713,0.00001987,0.00000825,-0.00001016,0.00000537,0.000
 00440,-0.00000061,0.00000028,-0.00000345,-0.00000030,-0.00000220,-0.00
 000904,-0.00001324,-0.00000675,0.00038694,0.00050056,-0.00121546,-0.00
 008830,0.00034998,0.00117457,0.00339045,-0.00206808,-0.00493844,0.0000
 9630,0.00006784,0.00036464,0.00008957,-0.00054019,0.00043002,0.0000065
 6,-0.00000311,0.00000128,-0.00004066,0.00080344,-0.00028212,-0.0001538
 0,-0.00109457,0.00011220,0.00002380,-0.00007109,-0.00016709,0.02671610
 ,-0.05896464,-0.03797852,-0.01550396,0.00498657,0.02252615,0.01527568,
 -0.00481876,-0.02253807,-0.02910050,0.06074212,-0.00000904,0.00001394,
 0.00001302,0.00000885,0.00000982,0.00000078,-0.00003416,0.00000058,-0.
 00000246,0.00001236,-0.00000343,0.00000256,-0.00000241,-0.00002025,0.0
 0001814,0.00003730,0.00002016,-0.00000430,-0.00000444,0.00000149,-0.00
 001551,0.00000102,-0.00000264,-0.00000411,0.00000300,0.00000103,-0.000
 00433,-0.00000005,-0.00000114,-0.00001159,0.00063820,0.00149824,0.0001
 7261,0.00076174,-0.00161393,0.00029343,0.01514266,-0.00506848,-0.02293
 747,0.00026792,0.00013336,0.00035120,-0.00015400,0.00130792,0.00001486
 ,0.00003045,0.00000117,0.00000231,-0.00019389,-0.00028367,-0.00038230,
 -0.00010189,-0.00079036,0.00063414,0.00028576,0.00006235,0.00049076,0.
 11736998,-0.03793353,-0.21729170,0.00262928,-0.00203345,-0.00441614,-0
 .00424794,0.00219171,0.00525304,-0.12749947,0.04333209,0.24132810,-0.0
 0001858,-0.00002870,0.00000337,-0.00002163,-0.00000081,-0.00000067,0.0
 0003054,0.00000028,0.00000034,-0.00002099,0.00000035,-0.00000151,-0.00
 001849,0.00002760,-0.00000866,-0.00011949,-0.00000507,-0.00003320,0.00
 002606,-0.00001042,0.00000501,-0.00000837,0.00000400,0.00000125,-0.000
 00842,-0.00000312,0.00000272,0.00002648,0.00001164,0.00000215,-0.01679
 671,-0.00361745,0.01895460,-0.01652953,0.01128775,0.01539169,-0.105402
 51,0.00835582,0.03781559,-0.00008539,0.00167207,0.00157056,-0.00040480
 ,0.00120568,-0.00013987,-0.00003969,0.00000006,-0.00000052,0.00055352,
 0.00003280,0.00022039,-0.00043723,-0.00117166,0.00040792,-0.00021693,-
 0.00063825,0.00212490,0.01153507,-0.00348746,-0.01548699,0.00039146,-0
 .00015489,-0.00063677,0.00041106,-0.00014836,-0.00051081,-0.00211872,-
 0.00110144,-0.00495852,0.54310464,-0.00006574,-0.00008770,0.00000973,-
 0.00004652,0.00004181,0.00000087,0.00001915,0.00002800,-0.00000533,0.0
 0002766,0.00004347,-0.00001698,0.00005356,-0.00006282,0.00001339,-0.00
 004333,0.00044901,-0.00011262,-0.00004374,0.00004771,-0.00001142,-0.00
 001177,0.00000148,0.00000111,0.00000474,-0.00000220,0.00000094,0.00006
 362,0.00005691,-0.00000353,-0.01674223,-0.00061005,0.02145464,0.019224
 02,-0.01225038,-0.01956424,0.00804162,-0.07878989,-0.01247471,-0.00350
 605,0.00086300,0.00166167,0.00075981,-0.00254862,-0.00012903,-0.000021
 65,0.00000429,-0.00000129,0.00025155,-0.00382936,0.00094871,-0.0008261
 4,-0.00261213,0.00138257,0.00341522,0.00060177,-0.00158178,0.00320986,
 0.00030881,-0.00840693,0.00027712,-0.00026904,-0.00077141,0.00028429,0
 .00019898,0.00122641,-0.00069585,0.00002466,-0.00082810,0.01444962,0.5
 8341867,-0.00001313,-0.00003879,-0.00000360,-0.00003651,-0.00002198,0.
 00000346,0.00008716,-0.00000642,0.00000226,-0.00005307,0.00000303,0.00
 000210,-0.00004039,0.00006844,-0.00002915,-0.00020821,-0.00011409,-0.0
 0003752,0.00005686,-0.00002835,0.00001698,-0.00001413,0.00000878,0.000
 00212,-0.00001810,-0.00000683,0.00000553,0.00003273,0.00000853,0.00000
 944,0.00953518,0.00494294,-0.00792287,0.00143308,-0.00298096,0.0035576
 4,0.03688492,-0.01249292,-0.13244896,0.00007352,-0.00172109,0.00106877
 ,-0.00023849,0.00152720,0.00004115,-0.00009894,-0.00000085,-0.00000127
 ,0.00124572,0.00095492,0.00025251,0.00010953,-0.00027658,0.00011586,-0
 .00147779,0.00197453,0.00094314,0.01471684,-0.00857483,-0.03595329,0.0
 0127252,0.00029106,0.00131678,0.00124649,0.00020814,0.00084860,-0.0031
 4625,-0.00083705,-0.00360916,0.06304193,-0.02023282,0.50237206,0.00002
 726,0.00002245,-0.00000056,0.00000109,-0.00002429,0.00000233,0.0000292
 5,-0.00000840,0.00000173,-0.00002329,-0.00001200,0.00000023,-0.0000278
 7,0.00004925,-0.00001109,-0.00005203,-0.00017839,0.00005663,0.00002611
 ,-0.00002531,0.00000369,0.00000198,0.00000170,-0.00000078,-0.00000881,
 -0.00000158,0.00000095,-0.00000740,-0.00000877,0.00000491,-0.00055980,
 0.00214060,0.00039848,-0.00030382,0.00026647,0.00337829,-0.01212251,0.
 01545366,-0.00333990,-0.00083803,-0.00124814,-0.00029593,-0.00049880,0
 .00065510,0.00017107,-0.00002878,-0.00000350,0.00000114,0.00054353,0.0
 0141889,-0.00043881,-0.00011001,-0.00014665,-0.00001197,-0.00006441,-0
 .00042331,0.00017583,0.00038656,-0.00029219,-0.00123883,0.00003471,-0.
 00015732,0.00010507,0.00069826,-0.00025972,0.00037167,-0.00002811,-0.0
 0030928,-0.00002504,-0.13630588,0.11864931,-0.02566158,0.14871941,-0.0
 0001622,0.00000887,-0.00000559,0.00001780,0.00001958,-0.00000441,-0.00
 006618,0.00000696,-0.00000005,0.00003445,-0.00000014,-0.00000357,0.000
 02568,-0.00005046,0.00001157,0.00010018,0.00012268,0.00000515,-0.00002
 871,0.00001932,-0.00000334,0.00000354,-0.00000427,0.00000150,0.0000100
 5,0.00000409,-0.00000091,-0.00000658,0.00000111,0.00000187,-0.00118540
 ,0.00006977,-0.00036796,0.00015080,0.00074820,-0.00011779,0.00279855,-
 0.00488514,0.00271976,-0.00036550,0.00040927,0.00025923,0.00005788,-0.
 00021262,-0.00018289,0.00006388,0.00000155,-0.00000113,-0.00048000,-0.
 00082055,0.00023607,0.00019593,0.00023522,-0.00005362,-0.00002867,0.00
 062369,-0.00056062,0.00014554,-0.00026599,0.00029126,0.00015655,-0.000
 03887,-0.00003839,-0.00039824,0.00040561,-0.00075702,-0.00033693,0.000
 25721,-0.00004727,0.11951206,-0.21462909,0.03465307,-0.13306953,0.2335
 5334,-0.00000465,-0.00001001,0.00000588,-0.00000292,0.00000925,0.00000
 002,-0.00000247,0.00000650,-0.00000188,0.00001144,0.00000559,-0.000002
 42,0.00001665,-0.00001416,0.00000392,0.00003246,0.00009130,-0.00002596
 ,-0.00001618,0.00001269,-0.00000803,0.00000086,-0.00000107,-0.00000058
 ,0.00000269,0.00000043,0.00000018,0.00000396,0.00000565,0.00000046,-0.
 00007919,-0.00123330,0.00036097,0.00241367,0.00001396,-0.00380976,0.01
 744919,-0.02172611,0.00197309,-0.00023733,0.00029026,0.00026954,0.0001
 7675,-0.00079415,0.00034006,0.00000619,-0.00000001,0.,-0.00031842,-0.0
 0080566,0.00005975,0.00001021,-0.00002683,-0.00010846,0.00026712,-0.00
 013415,0.00023453,0.00061574,-0.00075742,0.00132468,-0.00010731,-0.000
 03666,-0.00010028,-0.00018469,0.00025975,-0.00072245,-0.00006874,0.000
 32401,0.00035201,-0.02680707,0.03606886,-0.05679749,0.02536057,-0.0384
 0280,0.06183402,-0.00002858,-0.00004965,0.00000856,-0.00002361,0.00001
 138,-0.00000418,0.00002988,0.00000830,-0.00000158,0.00000130,0.0000235
 5,-0.00000707,0.00002754,-0.00002164,0.00000756,-0.00005090,0.00018757
 ,-0.00002345,-0.00000735,0.00001029,0.00000127,-0.00000884,0.00000199,
 0.00000041,0.00000199,-0.00000191,0.00000006,0.00002663,0.00002476,-0.
 00000601,-0.00029079,0.00121266,0.00317296,-0.00070882,-0.00169353,0.0
 0124553,-0.01211999,-0.01545171,0.00358844,-0.00005964,0.00046083,-0.0
 0002230,-0.00011965,0.00013860,-0.00006689,-0.00002927,0.00000391,-0.0
 0000053,0.00053277,-0.00148593,0.00020147,-0.00050733,-0.00051755,0.00
 043433,-0.00075345,0.00095498,-0.00084651,0.00040101,-0.00027028,-0.00
 124318,0.00069273,0.00039332,0.00015983,0.00003465,0.00018301,0.000027
 62,-0.00002072,0.00027235,-0.00015539,-0.13862455,-0.11896080,0.027539
 80,0.01173338,0.01672112,-0.00407681,0.15124277,-0.00001583,-0.0000393
 2,0.00000769,-0.00002631,-0.00000141,0.00000304,0.00005881,0.00000240,
 -0.00000191,-0.00001731,0.00001432,-0.00000134,0.00001227,0.00001401,0
 .00000139,-0.00007644,0.00005737,-0.00004443,0.00000777,-0.00000202,-0
 .00000095,-0.00000783,0.00000369,-0.00000050,-0.00000288,-0.00000373,-
 0.00000007,0.00001901,0.00001059,-0.00000481,0.00090173,-0.00006253,-0
 .00168371,0.00116493,0.00071121,0.00018580,0.00496521,0.00386945,-0.00
 361352,0.00014481,0.00081992,0.00028289,-0.00016799,0.00019919,-0.0000
 8694,-0.00005514,0.00000218,0.00000019,0.00028937,-0.00042866,-0.00000
 309,0.00002737,0.00027145,0.00021583,0.00010393,0.00025091,-0.00023940
 ,0.00014431,0.00019603,0.00020850,0.00025769,0.00040587,0.00026173,-0.
 00018338,-0.00000315,-0.00001124,0.00027715,0.00016317,0.00013467,-0.1
 2027660,-0.21086419,0.03856733,-0.01719552,-0.02096122,0.00448939,0.13
 213556,0.22921494,0.00002622,0.00003462,-0.00000557,0.00002480,-0.0000
 0622,-0.00000179,-0.00003028,-0.00000858,0.00000174,0.00000465,-0.0000
 1598,0.00000467,-0.00001082,0.00000575,0.00000156,0.00007063,-0.000131
 77,0.00003746,0.00000082,-0.00000453,0.00000349,0.00000668,-0.00000208
 ,0.00000059,0.00000234,0.00000255,-0.00000102,-0.00002681,-0.00002122,
 -0.00000138,0.00223484,-0.00180418,-0.00302409,-0.00054755,0.00104596,
 -0.00031402,0.01679042,0.02063783,-0.00646776,0.00023008,-0.00014294,0
 .00003309,0.00008302,-0.00012170,-0.00007047,0.00003260,-0.00000107,-0
 .00000007,-0.00048071,0.00104567,-0.00031580,0.00019607,0.00083116,-0.
 00013960,-0.00025231,-0.00031349,0.00062830,0.00055151,0.00124416,0.00
 086317,-0.00040174,-0.00075826,-0.00075145,-0.00003137,-0.00001830,-0.
 00013189,-0.00021206,-0.00023462,0.00044482,0.02717421,0.03725545,-0.0
 5844061,0.00350847,0.00478212,-0.00124070,-0.03389229,-0.04106752,0.06
 346286,0.00000414,0.00001967,-0.00000265,0.00001432,0.00000528,0.00000
 036,-0.00003500,0.00000003,0.00000006,0.00001395,-0.00000496,0.0000023
 7,0.00000386,-0.00001876,0.00000568,0.00005800,-0.00000215,-0.00000391
 ,-0.00000968,0.00000479,-0.00000337,0.00000459,-0.00000270,-0.00000095
 ,0.00000461,0.00000207,-0.00000193,-0.00000986,-0.00000591,-0.00000147
 ,0.00123292,0.00050669,0.00043061,0.00121637,-0.00034111,0.00051651,0.
 00878236,0.00417556,0.01879291,0.00010423,-0.00009169,-0.00025214,0.00
 002467,-0.00020723,0.00000469,0.00003541,-0.00000006,0.00000052,-0.000
 32660,0.00003677,0.00010403,0.00003218,0.00018904,-0.00008763,0.000127
 58,-0.00003736,-0.00026130,-0.00198748,0.00070885,0.00311364,-0.000017
 80,0.00034053,0.00007790,-0.00002327,-0.00027219,0.00021505,0.00093315
 ,0.00020541,0.00092177,-0.13547974,-0.02663662,-0.12106528,-0.01093991
 ,-0.00488240,-0.01532201,-0.01109237,-0.00207022,-0.01620568,0.1468049
 6,0.00001542,0.00002099,0.00000386,0.00000513,-0.00001222,0.00000429,0
 .00000785,-0.00000407,0.00000014,-0.00001002,-0.00000978,0.00000111,-0
 .00001283,0.00002813,-0.00000698,-0.00000909,-0.00008707,0.00002013,0.
 00000899,-0.00001348,-0.00000683,0.00000337,-0.00000031,-0.00000223,-0
 .00000446,-0.00000058,0.00000037,-0.00000819,-0.00000997,0.00000554,0.
 00009690,0.00034720,0.00115177,-0.00041261,0.00049748,-0.00122539,-0.0
 0359857,-0.00201983,-0.00509095,-0.00008529,-0.00053818,0.00043568,-0.
 00009156,0.00007085,0.00036552,-0.00000704,-0.00000303,0.00000136,0.00
 004918,0.00080449,-0.00028251,-0.00002598,-0.00007417,-0.00016643,0.00
 012424,-0.00110606,0.00009870,0.00111247,0.00000205,-0.00089533,0.0003
 1840,0.00024982,0.00031964,-0.00027285,0.00016958,-0.00023404,-0.00021
 640,0.00048546,-0.00045918,-0.02614443,-0.05822358,-0.03592883,0.01601
 628,0.00482794,0.02252395,-0.01550145,-0.00457460,-0.02212826,0.028485
 58,0.05991376,0.00000248,-0.00002057,0.00001813,-0.00001256,-0.0000033
 9,0.00000272,0.00003470,0.00000013,-0.00000293,-0.00000896,0.00001001,
 0.00000085,0.00000938,0.00001421,0.00001277,-0.00003780,0.00002049,-0.
 00000343,0.00000013,-0.00000130,-0.00001155,-0.00000310,0.00000111,-0.
 00000428,-0.00000119,-0.00000265,-0.00000406,0.00000438,0.00000153,-0.
 00001553,-0.00079371,-0.00159901,0.00030136,-0.00064389,0.00149416,0.0
 0016453,-0.01566978,-0.00487326,-0.02295335,0.00016949,0.00129923,0.00
 001520,-0.00026273,0.00013899,0.00035510,-0.00003096,0.00000155,0.0000
 0272,0.00019347,-0.00028505,-0.00038993,-0.00027978,0.00006325,0.00049
 443,0.00009114,-0.00081889,0.00062883,0.00492731,-0.00090005,-0.003714
 82,0.00003016,-0.00005114,0.00035220,0.00016210,0.00013703,0.00043771,
 -0.00095916,-0.00044952,-0.00144181,-0.11900831,-0.03590543,-0.2141220
 2,-0.00254942,-0.00192566,-0.00415372,0.00448935,0.00215520,0.00539729
 ,0.12940918,0.04113825,0.23788954,-0.00343334,-0.00454444,0.00095426,-
 0.00238567,0.00075780,-0.00010822,0.00217412,0.00103116,-0.00022563,-0
 .00012675,0.00092092,-0.00016367,-0.00111440,0.00212233,-0.00048709,-0
 .01908082,0.02867424,-0.00615128,0.00021994,0.00019435,-0.00005726,-0.
 00067472,0.00013415,-0.00002096,-0.00024632,-0.00017952,0.00003496,-0.
 00036092,0.00089359,-0.00020928,-0.17143489,0.01450481,-0.00261163,-0.
 01114428,0.00482558,-0.00089932,-0.02190113,0.00053307,-0.00002040,-0.
 03369380,0.00627591,0.00084573,0.00137966,-0.00053554,0.00027901,-0.00
 221903,-0.00001344,0.00001756,-0.13060738,0.11046590,-0.02406601,-0.03
 401440,0.00543034,-0.00300133,0.00136841,-0.00062622,-0.00005073,-0.00
 170738,-0.00320772,0.00348471,-0.00127200,-0.00092278,-0.00124340,0.00
 096674,0.00010821,0.00036835,0.00027197,0.00044350,-0.00047029,-0.0017
 2767,-0.00433975,-0.00175283,0.00096063,-0.00006328,-0.00039386,-0.001
 24166,-0.00029704,0.00153420,0.00026610,0.00060043,0.00025915,0.409855
 54,-0.00070847,0.00221789,-0.00021016,0.00092685,0.00056370,-0.0001872
 0,-0.00132545,-0.00016784,0.00003034,0.00083397,0.00044677,-0.00018602
 ,-0.00135194,-0.00475705,0.00113439,0.00964154,-0.00325372,0.00193250,
 -0.00070031,0.00055133,-0.00008419,0.00017525,-0.00007538,-0.00001224,
 0.00032980,0.00009136,-0.00002464,-0.00008343,0.00090244,-0.00032903,0
 .02721227,-0.07838969,0.00366206,0.02164917,0.00296713,-0.00105681,-0.
 02180936,0.01032289,-0.00210629,0.03196103,0.00008458,0.00275326,-0.00
 213179,0.00053123,-0.00061394,0.00121103,0.00012438,-0.00001791,0.0847
 7924,-0.22918163,0.04151750,0.01977510,0.00101453,0.00055782,-0.002151
 37,0.00061531,0.00037982,-0.00111489,-0.00058592,0.00078037,0.00015889
 ,0.00014129,-0.00047256,-0.00103043,0.00022956,-0.00034215,0.00027003,
 -0.00036471,0.00003923,-0.00090484,-0.00067898,-0.00075090,-0.00115964
 ,0.00042048,0.00032454,0.00019364,0.00051584,0.00024638,0.00016207,-0.
 00037942,0.00032948,-0.16360549,0.36110194,0.00017785,-0.00024088,0.00
 115598,-0.00019630,-0.00017521,-0.00023183,0.00027307,0.00002635,-0.00
 008275,-0.00016934,-0.00017239,-0.00034823,0.00029938,0.00114274,0.000
 51389,-0.00197308,0.00177007,0.00515263,0.00015252,-0.00011108,0.00004
 558,-0.00003686,-0.00000957,-0.00011976,-0.00006925,-0.00002440,-0.000
 01665,0.00004734,-0.00030152,-0.00050921,-0.00567336,0.00378479,-0.062
 71343,-0.00475669,-0.00108032,-0.00092628,0.00503126,-0.00218500,0.001
 18815,0.02139652,-0.00136952,0.00860187,0.00052285,0.00020473,0.000008
 19,-0.00025150,-0.00000951,0.00008586,-0.01829460,0.04146072,-0.047614
 13,-0.03245304,0.00489440,0.00796941,0.00040276,-0.00047515,-0.0000559
 2,-0.00020838,-0.00047716,-0.00068863,-0.00008652,-0.00053152,0.000068
 29,0.00054307,-0.00008839,0.00034049,0.00019032,0.00034044,0.00040077,
 0.00066483,0.00054086,-0.00054350,-0.00006316,0.00005555,0.00016186,0.
 00001983,0.00032528,-0.00032570,-0.00020479,0.00001245,0.00034878,0.03
 434953,-0.06631622,0.07158480,-0.00112990,-0.00215184,0.00051902,-0.00
 014292,-0.00091644,0.00015899,0.00217564,-0.00106100,0.00019550,-0.002
 40225,-0.00072240,0.00013610,-0.00338144,0.00460957,-0.00089902,-0.019
 44466,-0.02845883,0.00648499,-0.00038027,-0.00087394,0.00021108,-0.000
 24754,0.00018337,-0.00003225,-0.00067754,-0.00012661,0.00002871,0.0002
 2471,-0.00019200,0.00005370,-0.01136087,-0.00466545,0.00103845,-0.1717
 1016,-0.01340174,0.00397479,-0.02173035,-0.00018353,0.00023572,0.00139
 900,0.00053083,-0.00030533,-0.03440307,-0.00587992,-0.00028803,-0.0022
 2969,0.00004294,0.00001362,-0.13239057,-0.11109727,0.02556612,0.001396
 79,0.00061117,0.00003579,-0.03387316,-0.00497004,0.00351736,-0.0016471
 4,0.00437151,0.00175984,0.00098078,0.00005446,0.00038570,-0.00126328,0
 .00032058,-0.00151884,0.00025357,-0.00061131,-0.00025375,-0.00169350,0
 .00320901,-0.00345161,-0.00124269,0.00093359,0.00125414,0.00096287,-0.
 00011744,-0.00037992,0.00025836,-0.00044346,0.00047892,0.02092346,-0.0
 0120246,0.00036574,0.41277584,0.00132344,-0.00474875,0.00111082,-0.000
 82874,0.00046886,-0.00017648,0.00129737,-0.00017196,0.00000994,-0.0008
 9311,0.00058373,-0.00017632,0.00077254,0.00215419,-0.00021001,-0.00942
 145,-0.00279664,0.00197701,0.00010268,0.00090813,-0.00033627,-0.000326
 02,0.00009322,-0.00001995,-0.00016828,-0.00007163,-0.00001020,0.000702
 97,0.00054498,-0.00009377,-0.02148387,0.00325108,-0.00076754,-0.026183
 93,-0.07786729,0.00391476,0.02219435,0.01007538,-0.00235116,0.00211281
 ,0.00050313,-0.00063852,-0.03149162,0.00053302,0.00314501,-0.00118263,
 0.00013917,-0.00000173,-0.08538351,-0.22685466,0.04228800,0.00214700,0
 .00058013,0.00035424,-0.01938335,0.00129800,0.00075841,0.00091314,-0.0
 0074735,-0.00078414,0.00115696,0.00040419,0.00030324,-0.00016853,0.000
 51434,0.00026882,-0.00016709,-0.00036749,0.00033767,0.00113377,-0.0006
 3054,0.00080530,-0.00015018,0.00013348,-0.00048379,0.00101663,0.000218
 30,-0.00035094,-0.00026897,-0.00036140,0.00003130,0.00041895,-0.065008
 30,0.01900945,0.16220867,0.35722271,-0.00026535,0.00117417,0.00051225,
 0.00016335,-0.00016263,-0.00035268,-0.00030168,0.00004389,-0.00008177,
 0.00022212,-0.00016981,-0.00023610,-0.00012553,-0.00029706,0.00117068,
 0.00231786,0.00209690,0.00504844,-0.00004862,-0.00028721,-0.00051432,0
 .00007169,-0.00002754,-0.00001707,0.00004354,-0.00000840,-0.00012064,-
 0.00015577,-0.00010648,0.00004721,0.00487634,-0.00107121,-0.00099074,0
 .00700643,0.00388382,-0.06287764,-0.00474822,-0.00209962,0.00125878,-0
 .00053762,0.00020421,0.00001815,-0.02089899,-0.00105010,0.00887718,0.0
 0028082,-0.00001322,0.00008232,0.01980756,0.04260038,-0.04816112,-0.00
 042708,-0.00047673,-0.00005142,0.03301867,0.00456888,0.00752830,-0.000
 64879,0.00049709,-0.00055508,0.00005357,0.00005318,0.00015551,-0.00000
 545,0.00032089,-0.00030646,0.00020653,0.00001628,0.00034835,0.00021143
 ,-0.00051960,-0.00064896,0.00009603,-0.00054418,0.00005077,-0.00055081
 ,-0.00007949,0.00035288,-0.00018220,0.00034419,0.00039528,-0.00019429,
 0.01902258,0.01654948,-0.03928553,-0.06791319,0.07251843||-0.00001124,
 0.00000820,-0.00001170,0.00000226,0.00000766,-0.00001166,-0.00001741,0
 .00000005,-0.00000014,0.00000237,-0.00000750,0.00001213,-0.00001119,-0
 .00000875,0.00001048,0.00002426,-0.00000043,-0.00000277,-0.00000005,-0
 .00000904,-0.00001400,0.00000385,-0.00001218,-0.00001402,0.00000417,0.
 00001209,0.00001386,0.00000021,0.00000914,0.00001419,0.00005107,0.0000
 1930,0.00001965,0.00005246,-0.00001421,-0.00000442,-0.00007791,-0.0000
 0154,-0.00000742,0.00000566,-0.00000804,0.00003210,-0.00000349,0.00000
 381,-0.00002386,0.00001286,-0.00000012,-0.00000030,-0.00000529,0.00000
 240,0.00001155,-0.00001270,0.00002459,0.00001909,-0.00000264,-0.000016
 44,-0.00001293,0.00005185,0.00000578,0.00002414,-0.00001453,-0.0000038
 7,-0.00000958,-0.00001601,0.00001895,0.00000037,0.00000477,0.00001409,
 -0.00001900,0.00003972,-0.00000851,-0.00003244,-0.00001274,0.00000534,
 0.00001027,-0.00001831,-0.00001778,-0.00000138,0.00000469,-0.00001768,
 0.00001952,-0.00002901,-0.00003088,-0.00003879,-0.00002769,0.00002556,
 0.00001704|||@


 THE SOLUTION TO A PROBLEM CHANGES THE PROBLEM.

                                 -- JOHN PEERS
           PAUL DICKSON'S "THE OFFICIAL RULES"
 Job cpu time:       0 days  0 hours 11 minutes 49.0 seconds.
 File lengths (MBytes):  RWF=    124 Int=      0 D2E=      0 Chk=      4 Scr=      1
 Normal termination of Gaussian 09 at Wed Sep 13 14:41:13 2023.
