 Entering Gaussian System, Link 0=C:\G09W\g09.exe
 Input=C:\Users\123\Desktop\ML project\molecule_6.gjf
 Output=C:\Users\123\Desktop\ML project\molecule_6.log
 Initial command:
 C:/G09W\l1.exe ".\Gau-468.inp" "C:\Users\123\Desktop\ML project\molecule_6.log" /scrdir=".\"
 Entering Link 1 = C:/G09W\l1.exe PID=      4732.
  
 Copyright (c) 1988,1990,1992,1993,1995,1998,2003,2009,2013,
            Gaussian, Inc.  All Rights Reserved.
  
 This is part of the Gaussian(R) 09 program.  It is based on
 the Gaussian(R) 03 system (copyright 2003, Gaussian, Inc.),
 the Gaussian(R) 98 system (copyright 1998, Gaussian, Inc.),
 the Gaussian(R) 94 system (copyright 1995, Gaussian, Inc.),
 the Gaussian 92(TM) system (copyright 1992, Gaussian, Inc.),
 the Gaussian 90(TM) system (copyright 1990, Gaussian, Inc.),
 the Gaussian 88(TM) system (copyright 1988, Gaussian, Inc.),
 the Gaussian 86(TM) system (copyright 1986, Carnegie Mellon
 University), and the Gaussian 82(TM) system (copyright 1983,
 Carnegie Mellon University). Gaussian is a federally registered
 trademark of Gaussian, Inc.
  
 This software contains proprietary and confidential information,
 including trade secrets, belonging to Gaussian, Inc.
  
 This software is provided under written license and may be
 used, copied, transmitted, or stored only in accord with that
 written license.
  
 The following legend is applicable only to US Government
 contracts under FAR:
  
                    RESTRICTED RIGHTS LEGEND
  
 Use, reproduction and disclosure by the US Government is
 subject to restrictions as set forth in subparagraphs (a)
 and (c) of the Commercial Computer Software - Restricted
 Rights clause in FAR 52.227-19.
  
 Gaussian, Inc.
 340 Quinnipiac St., Bldg. 40, Wallingford CT 06492
  
  
 ---------------------------------------------------------------
 Warning -- This program may not be used in any manner that
 competes with the business of Gaussian, Inc. or will provide
 assistance to any competitor of Gaussian, Inc.  The licensee
 of this program is prohibited from giving any competitor of
 Gaussian, Inc. access to this program.  By using this program,
 the user acknowledges that Gaussian, Inc. is engaged in the
 business of creating and licensing software in the field of
 computational chemistry and represents and warrants to the
 licensee that it is not a competitor of Gaussian, Inc. and that
 it will not use this program in any manner prohibited above.
 ---------------------------------------------------------------
  

 Cite this work as:
 Gaussian 09, Revision D.01,
 M. J. Frisch, G. W. Trucks, H. B. Schlegel, G. E. Scuseria, 
 M. A. Robb, J. R. Cheeseman, G. Scalmani, V. Barone, B. Mennucci, 
 G. A. Petersson, H. Nakatsuji, M. Caricato, X. Li, H. P. Hratchian, 
 A. F. Izmaylov, J. Bloino, G. Zheng, J. L. Sonnenberg, M. Hada, 
 M. Ehara, K. Toyota, R. Fukuda, J. Hasegawa, M. Ishida, T. Nakajima, 
 Y. Honda, O. Kitao, H. Nakai, T. Vreven, J. A. Montgomery, Jr., 
 J. E. Peralta, F. Ogliaro, M. Bearpark, J. J. Heyd, E. Brothers, 
 K. N. Kudin, V. N. Staroverov, T. Keith, R. Kobayashi, J. Normand, 
 K. Raghavachari, A. Rendell, J. C. Burant, S. S. Iyengar, J. Tomasi, 
 M. Cossi, N. Rega, J. M. Millam, M. Klene, J. E. Knox, J. B. Cross, 
 V. Bakken, C. Adamo, J. Jaramillo, R. Gomperts, R. E. Stratmann, 
 O. Yazyev, A. J. Austin, R. Cammi, C. Pomelli, J. W. Ochterski, 
 R. L. Martin, K. Morokuma, V. G. Zakrzewski, G. A. Voth, 
 P. Salvador, J. J. Dannenberg, S. Dapprich, A. D. Daniels, 
 O. Farkas, J. B. Foresman, J. V. Ortiz, J. Cioslowski, 
 and D. J. Fox, Gaussian, Inc., Wallingford CT, 2013.
 
 ******************************************
 Gaussian 09:  EM64W-G09RevD.01 13-Apr-2013
                24-Aug-2023 
 ******************************************
 %nprocshared=2
 Will use up to    2 processors via shared memory.
 %mem=4GB
 %chk=C:\Users\123\Desktop\ML project\molecule_6.chk
 --------------------------------------------------------------
 # opt freq b3lyp/gen geom=connectivity empiricaldispersion=gd3
 --------------------------------------------------------------
 1/14=-1,18=20,19=15,26=3,38=1,57=2/1,3;
 2/9=110,12=2,17=6,18=5,40=1/2;
 3/5=7,11=2,16=1,25=1,30=1,71=1,74=-5,124=31/1,2,3;
 4//1;
 5/5=2,38=5/2;
 6/7=2,8=2,9=2,10=2,28=1/1;
 7//1,2,3,16;
 1/14=-1,18=20,19=15,26=3/3(2);
 2/9=110/2;
 99//99;
 2/9=110/2;
 3/5=7,6=1,11=2,16=1,25=1,30=1,71=1,74=-5,82=7,124=31/1,2,3;
 4/5=5,16=3,69=1/1;
 5/5=2,38=5/2;
 7//1,2,3,16;
 1/14=-1,18=20,19=15,26=3/3(-5);
 2/9=110/2;
 6/7=2,8=2,9=2,10=2,19=2,28=1/1;
 99/9=1/99;
 -------------------
 Title Card Required
 -------------------
 Symbolic Z-matrix:
 Charge =  0 Multiplicity = 1
 C                    -6.63043  -2.07881  -1.82696 
 C                    -5.29299  -1.8781   -2.19423 
 C                    -4.56088  -0.82629  -1.62709 
 C                    -5.16622   0.0248   -0.69267 
 C                    -6.50366  -0.17591  -0.3254 
 C                    -7.23576  -1.22772  -0.89254 
 H                    -7.1894   -2.88189  -2.25998 
 H                    -4.8308   -2.52793  -2.90768 
 H                    -4.60724   0.82788  -0.25965 
 H                    -6.96585   0.47391   0.38805 
 C                    -3.09117  -0.60573  -2.03069 
 O                    -2.43377   0.33876  -1.52142 
 C                    -2.42597  -1.54099  -3.05752 
 H                    -1.67534  -1.00209  -3.59701 
 H                    -1.97525  -2.36699  -2.54811 
 H                    -3.16511  -1.90373  -3.74088 
 I                    -9.23992  -1.52849  -0.34218 
 

 GradGradGradGradGradGradGradGradGradGradGradGradGradGradGradGradGradGrad
 Berny optimization.
 Initialization pass.
                           ----------------------------
                           !    Initial Parameters    !
                           ! (Angstroms and Degrees)  !
 --------------------------                            --------------------------
 ! Name  Definition              Value          Derivative Info.                !
 --------------------------------------------------------------------------------
 ! R1    R(1,2)                  1.4014         estimate D2E/DX2                !
 ! R2    R(1,6)                  1.4014         estimate D2E/DX2                !
 ! R3    R(1,7)                  1.07           estimate D2E/DX2                !
 ! R4    R(2,3)                  1.4014         estimate D2E/DX2                !
 ! R5    R(2,8)                  1.07           estimate D2E/DX2                !
 ! R6    R(3,4)                  1.4014         estimate D2E/DX2                !
 ! R7    R(3,11)                 1.54           estimate D2E/DX2                !
 ! R8    R(4,5)                  1.4014         estimate D2E/DX2                !
 ! R9    R(4,9)                  1.07           estimate D2E/DX2                !
 ! R10   R(5,6)                  1.4014         estimate D2E/DX2                !
 ! R11   R(5,10)                 1.07           estimate D2E/DX2                !
 ! R12   R(6,17)                 2.1            estimate D2E/DX2                !
 ! R13   R(11,12)                1.2584         estimate D2E/DX2                !
 ! R14   R(11,13)                1.54           estimate D2E/DX2                !
 ! R15   R(13,14)                1.07           estimate D2E/DX2                !
 ! R16   R(13,15)                1.07           estimate D2E/DX2                !
 ! R17   R(13,16)                1.07           estimate D2E/DX2                !
 ! A1    A(2,1,6)              120.0            estimate D2E/DX2                !
 ! A2    A(2,1,7)              120.0            estimate D2E/DX2                !
 ! A3    A(6,1,7)              120.0            estimate D2E/DX2                !
 ! A4    A(1,2,3)              120.0            estimate D2E/DX2                !
 ! A5    A(1,2,8)              120.0            estimate D2E/DX2                !
 ! A6    A(3,2,8)              120.0            estimate D2E/DX2                !
 ! A7    A(2,3,4)              120.0            estimate D2E/DX2                !
 ! A8    A(2,3,11)             120.0            estimate D2E/DX2                !
 ! A9    A(4,3,11)             120.0            estimate D2E/DX2                !
 ! A10   A(3,4,5)              120.0            estimate D2E/DX2                !
 ! A11   A(3,4,9)              120.0            estimate D2E/DX2                !
 ! A12   A(5,4,9)              120.0            estimate D2E/DX2                !
 ! A13   A(4,5,6)              120.0            estimate D2E/DX2                !
 ! A14   A(4,5,10)             120.0            estimate D2E/DX2                !
 ! A15   A(6,5,10)             120.0            estimate D2E/DX2                !
 ! A16   A(1,6,5)              120.0            estimate D2E/DX2                !
 ! A17   A(1,6,17)             120.0            estimate D2E/DX2                !
 ! A18   A(5,6,17)             120.0            estimate D2E/DX2                !
 ! A19   A(3,11,12)            120.0            estimate D2E/DX2                !
 ! A20   A(3,11,13)            120.0            estimate D2E/DX2                !
 ! A21   A(12,11,13)           120.0            estimate D2E/DX2                !
 ! A22   A(11,13,14)           109.4712         estimate D2E/DX2                !
 ! A23   A(11,13,15)           109.4712         estimate D2E/DX2                !
 ! A24   A(11,13,16)           109.4712         estimate D2E/DX2                !
 ! A25   A(14,13,15)           109.4712         estimate D2E/DX2                !
 ! A26   A(14,13,16)           109.4712         estimate D2E/DX2                !
 ! A27   A(15,13,16)           109.4712         estimate D2E/DX2                !
 ! D1    D(6,1,2,3)              0.0            estimate D2E/DX2                !
 ! D2    D(6,1,2,8)            179.9999         estimate D2E/DX2                !
 ! D3    D(7,1,2,3)           -179.9998         estimate D2E/DX2                !
 ! D4    D(7,1,2,8)              0.0001         estimate D2E/DX2                !
 ! D5    D(2,1,6,5)              0.0            estimate D2E/DX2                !
 ! D6    D(2,1,6,17)          -180.0            estimate D2E/DX2                !
 ! D7    D(7,1,6,5)            179.9998         estimate D2E/DX2                !
 ! D8    D(7,1,6,17)            -0.0002         estimate D2E/DX2                !
 ! D9    D(1,2,3,4)              0.0001         estimate D2E/DX2                !
 ! D10   D(1,2,3,11)          -179.9999         estimate D2E/DX2                !
 ! D11   D(8,2,3,4)           -179.9999         estimate D2E/DX2                !
 ! D12   D(8,2,3,11)             0.0002         estimate D2E/DX2                !
 ! D13   D(2,3,4,5)             -0.0001         estimate D2E/DX2                !
 ! D14   D(2,3,4,9)            179.9999         estimate D2E/DX2                !
 ! D15   D(11,3,4,5)           179.9998         estimate D2E/DX2                !
 ! D16   D(11,3,4,9)            -0.0002         estimate D2E/DX2                !
 ! D17   D(2,3,11,12)          179.9999         estimate D2E/DX2                !
 ! D18   D(2,3,11,13)           -0.0001         estimate D2E/DX2                !
 ! D19   D(4,3,11,12)           -0.0001         estimate D2E/DX2                !
 ! D20   D(4,3,11,13)          179.9999         estimate D2E/DX2                !
 ! D21   D(3,4,5,6)              0.0001         estimate D2E/DX2                !
 ! D22   D(3,4,5,10)          -179.9999         estimate D2E/DX2                !
 ! D23   D(9,4,5,6)           -179.9999         estimate D2E/DX2                !
 ! D24   D(9,4,5,10)             0.0001         estimate D2E/DX2                !
 ! D25   D(4,5,6,1)             -0.0001         estimate D2E/DX2                !
 ! D26   D(4,5,6,17)           179.9999         estimate D2E/DX2                !
 ! D27   D(10,5,6,1)           179.9999         estimate D2E/DX2                !
 ! D28   D(10,5,6,17)           -0.0001         estimate D2E/DX2                !
 ! D29   D(3,11,13,14)         150.0            estimate D2E/DX2                !
 ! D30   D(3,11,13,15)         -90.0            estimate D2E/DX2                !
 ! D31   D(3,11,13,16)          30.0            estimate D2E/DX2                !
 ! D32   D(12,11,13,14)        -30.0            estimate D2E/DX2                !
 ! D33   D(12,11,13,15)         90.0            estimate D2E/DX2                !
 ! D34   D(12,11,13,16)       -150.0            estimate D2E/DX2                !
 --------------------------------------------------------------------------------
 Trust Radius=3.00D-01 FncErr=1.00D-07 GrdErr=1.00D-06
 Number of steps in this run=     88 maximum allowed number of steps=    102.
 GradGradGradGradGradGradGradGradGradGradGradGradGradGradGradGradGradGrad

                          Input orientation:                          
 ---------------------------------------------------------------------
 Center     Atomic      Atomic             Coordinates (Angstroms)
 Number     Number       Type             X           Y           Z
 ---------------------------------------------------------------------
      1          6           0       -6.630427   -2.078814   -1.826955
      2          6           0       -5.292987   -1.878100   -2.194230
      3          6           0       -4.560884   -0.826293   -1.627090
      4          6           0       -5.166219    0.024799   -0.692673
      5          6           0       -6.503660   -0.175915   -0.325400
      6          6           0       -7.235763   -1.227722   -0.892540
      7          1           0       -7.189403   -2.881894   -2.259977
      8          1           0       -4.830799   -2.527928   -2.907676
      9          1           0       -4.607242    0.827876   -0.259648
     10          1           0       -6.965847    0.473914    0.388046
     11          6           0       -3.091171   -0.605726   -2.030690
     12          8           0       -2.433772    0.338755   -1.521422
     13          6           0       -2.425966   -1.540992   -3.057520
     14          1           0       -1.675342   -1.002091   -3.597010
     15          1           0       -1.975255   -2.366986   -2.548114
     16          1           0       -3.165113   -1.903728   -3.740882
     17         53           0       -9.239918   -1.528493   -0.342178
 ---------------------------------------------------------------------
                    Distance matrix (angstroms):
                    1          2          3          4          5
     1  C    0.000000
     2  C    1.401400   0.000000
     3  C    2.427296   1.401400   0.000000
     4  C    2.802800   2.427296   1.401400   0.000000
     5  C    2.427296   2.802800   2.427296   1.401400   0.000000
     6  C    1.401400   2.427296   2.802800   2.427296   1.401400
     7  H    1.070000   2.146700   3.396345   3.872800   3.396345
     8  H    2.146700   1.070000   2.146700   3.396345   3.872800
     9  H    3.872800   3.396345   2.146700   1.070000   2.146700
    10  H    3.396345   3.872800   3.396345   2.146700   1.070000
    11  C    3.838989   2.548270   1.540000   2.548270   3.838989
    12  O    4.852825   3.679977   2.427572   2.872571   4.273095
    13  C    4.413732   3.013092   2.667358   3.943753   5.094654
    14  H    5.370781   3.977755   3.498263   4.655738   5.890556
    15  H    4.719507   3.372179   3.147618   4.398358   5.499791
    16  H    3.962596   2.630710   2.752664   4.124950   5.079050
    17  I    3.052354   4.373853   4.902800   4.373853   3.052354
                    6          7          8          9         10
     6  C    0.000000
     7  H    2.146700   0.000000
     8  H    3.396345   2.471400   0.000000
     9  H    3.396345   4.942800   4.280590   0.000000
    10  H    2.146700   4.280590   4.942800   2.471400   0.000000
    11  C    4.342800   4.693509   2.736837   2.736837   4.693509
    12  O    5.090036   5.790861   3.985638   2.560329   4.919761
    13  C    5.283883   5.012427   2.603790   4.265863   6.045022
    14  H    6.187354   5.977139   3.572152   4.804456   6.785920
    15  H    5.631323   5.247428   2.882590   4.729860   6.449633
    16  H    5.014003   4.398272   1.964273   4.654072   6.094818
    17  I    2.100000   3.116771   5.198171   5.198171   3.116771
                   11         12         13         14         15
    11  C    0.000000
    12  O    1.258400   0.000000
    13  C    1.540000   2.427572   0.000000
    14  H    2.148263   2.584792   1.070000   0.000000
    15  H    2.148263   2.930080   1.070000   1.747303   0.000000
    16  H    2.148263   3.238764   1.070000   1.747303   1.747303
    17  I    6.442800   7.155478   7.335065   8.251899   7.638361
                   16         17
    16  H    0.000000
    17  I    6.971029   0.000000
 Stoichiometry    C8H7IO
 Framework group  C1[X(C8H7IO)]
 Deg. of freedom    45
 Full point group                 C1      NOp   1
 Largest Abelian subgroup         C1      NOp   1
 Largest concise Abelian subgroup C1      NOp   1
                         Standard orientation:                         
 ---------------------------------------------------------------------
 Center     Atomic      Atomic             Coordinates (Angstroms)
 Number     Number       Type             X           Y           Z
 ---------------------------------------------------------------------
      1          6           0        0.238922   -1.171482    0.000000
      2          6           0        1.639841   -1.134735    0.000001
      3          6           0        2.308476    0.096869    0.000001
      4          6           0        1.576194    1.291726    0.000002
      5          6           0        0.175275    1.254980    0.000000
      6          6           0       -0.493360    0.023376    0.000000
      7          1           0       -0.271596   -2.111839    0.000003
      8          1           0        2.198955   -2.047035    0.000002
      9          1           0        2.086712    2.232083    0.000005
     10          1           0       -0.383839    2.167280   -0.000001
     11          6           0        3.847947    0.137250   -0.000001
     12          8           0        4.448354    1.243180   -0.000002
     13          6           0        4.652653   -1.175780    0.000000
     14          1           0        5.583913   -1.023366   -0.504404
     15          1           0        4.839025   -1.479879    1.008805
     16          1           0        4.094134   -1.936395   -0.504402
     17         53           0       -2.592638   -0.031689    0.000000
 ---------------------------------------------------------------------
 Rotational constants (GHZ):      3.6280883      0.2809191      0.2611456
 General basis read from cards:  (5D, 7F)
 Warning:  center  17 has no basis functions!
 There are   185 symmetry adapted cartesian basis functions of A   symmetry.
 There are   176 symmetry adapted basis functions of A   symmetry.
   176 basis functions,   316 primitive gaussians,   185 cartesian basis functions
    58 alpha electrons       58 beta electrons
       nuclear repulsion energy       808.2783808360 Hartrees.



 Warning!  I  atom   17 has 53 valence electrons but only   0 basis functions.
 This is less than a minimal basis set!



 NAtoms=   17 NActive=   17 NUniq=   17 SFac= 1.00D+00 NAtFMM=   60 NAOKFM=F Big=F
 Integral buffers will be    131072 words long.
 Raffenetti 2 integral format.
 Two-electron integral symmetry is turned on.
 Nuclear repulsion after empirical dispersion term =      808.2645289207 Hartrees.
 One-electron integrals computed using PRISM.
 NBasis=   176 RedAO= T EigKep=  3.62D-06  NBF=   176
 NBsUse=   176 1.00D-06 EigRej= -1.00D+00 NBFU=   176
 Defaulting to unpruned grid for atomic number  53.
 ExpMin= 4.38D-02 ExpMax= 5.48D+03 ExpMxC= 8.25D+02 IAcc=2 IRadAn=         4 AccDes= 0.00D+00
 Harris functional with IExCor=  402 and IRadAn=       4 diagonalized for initial guess.
 HarFok:  IExCor=  402 AccDes= 0.00D+00 IRadAn=         4 IDoV= 1 UseB2=F ITyADJ=14
 ICtDFT=  3500011 ScaDFX=  1.000000  1.000000  1.000000  1.000000
 Defaulting to unpruned grid for atomic number  53.
 Defaulting to unpruned grid for atomic number  53.
 FoFCou: FMM=F IPFlag=           0 FMFlag=      100000 FMFlg1=           0
         NFxFlg=           0 DoJE=T BraDBF=F KetDBF=T FulRan=T
         wScrn=  0.000000 ICntrl=     500 IOpCl=  0 I1Cent=   200000004 NGrid=           0
         NMat0=    1 NMatS0=      1 NMatT0=    0 NMatD0=    1 NMtDS0=    0 NMtDT0=    0
 Petite list used in FoFCou.
 Keep R1 ints in memory in canonical form, NReq=124654725.
 Requested convergence on RMS density matrix=1.00D-08 within 128 cycles.
 Requested convergence on MAX density matrix=1.00D-06.
 Requested convergence on             energy=1.00D-06.
 No special actions if energy rises.
 Defaulting to unpruned grid for atomic number  53.
 Defaulting to unpruned grid for atomic number  53.
 EnCoef did   100 forward-backward iterations
 EnCoef did     3 forward-backward iterations
 EnCoef did     1 forward-backward iterations
 EnCoef did     2 forward-backward iterations
 EnCoef did     2 forward-backward iterations
 EnCoef did     2 forward-backward iterations
 EnCoef did     1 forward-backward iterations
 >>>>>>>>>> Convergence criterion not met.
 SCF Done:  E(RB3LYP) =  -695.102201998     A.U. after  129 cycles
            NFock=128  Conv=0.22D-02     -V/T= 2.6452
 Convergence failure -- run terminated.
 Error termination via Lnk1e in C:/G09W\l502.exe at Thu Aug 24 16:16:17 2023.
 Job cpu time:       0 days  0 hours  8 minutes 22.0 seconds.
 File lengths (MBytes):  RWF=     14 Int=      0 D2E=      0 Chk=      1 Scr=      1
