 Entering Gaussian System, Link 0=C:\G09W\g09.exe
 Input=C:\Users\vivek\Downloads\14_09_23\molecule_34.gjf
 Output=C:\Users\vivek\Downloads\14_09_23\molecule_34.log
 Initial command:
 C:/G09W\l1.exe ".\Gau-2132.inp" "C:\Users\vivek\Downloads\14_09_23\molecule_34.log" /scrdir=".\"
 Entering Link 1 = C:/G09W\l1.exe PID=     23876.
  
 Copyright (c) 1988,1990,1992,1993,1995,1998,2003,2009,2013,
            Gaussian, Inc.  All Rights Reserved.
  
 This is part of the Gaussian(R) 09 program.  It is based on
 the Gaussian(R) 03 system (copyright 2003, Gaussian, Inc.),
 the Gaussian(R) 98 system (copyright 1998, Gaussian, Inc.),
 the Gaussian(R) 94 system (copyright 1995, Gaussian, Inc.),
 the Gaussian 92(TM) system (copyright 1992, Gaussian, Inc.),
 the Gaussian 90(TM) system (copyright 1990, Gaussian, Inc.),
 the Gaussian 88(TM) system (copyright 1988, Gaussian, Inc.),
 the Gaussian 86(TM) system (copyright 1986, Carnegie Mellon
 University), and the Gaussian 82(TM) system (copyright 1983,
 Carnegie Mellon University). Gaussian is a federally registered
 trademark of Gaussian, Inc.
  
 This software contains proprietary and confidential information,
 including trade secrets, belonging to Gaussian, Inc.
  
 This software is provided under written license and may be
 used, copied, transmitted, or stored only in accord with that
 written license.
  
 The following legend is applicable only to US Government
 contracts under FAR:
  
                    RESTRICTED RIGHTS LEGEND
  
 Use, reproduction and disclosure by the US Government is
 subject to restrictions as set forth in subparagraphs (a)
 and (c) of the Commercial Computer Software - Restricted
 Rights clause in FAR 52.227-19.
  
 Gaussian, Inc.
 340 Quinnipiac St., Bldg. 40, Wallingford CT 06492
  
  
 ---------------------------------------------------------------
 Warning -- This program may not be used in any manner that
 competes with the business of Gaussian, Inc. or will provide
 assistance to any competitor of Gaussian, Inc.  The licensee
 of this program is prohibited from giving any competitor of
 Gaussian, Inc. access to this program.  By using this program,
 the user acknowledges that Gaussian, Inc. is engaged in the
 business of creating and licensing software in the field of
 computational chemistry and represents and warrants to the
 licensee that it is not a competitor of Gaussian, Inc. and that
 it will not use this program in any manner prohibited above.
 ---------------------------------------------------------------
  

 Cite this work as:
 Gaussian 09, Revision D.01,
 M. J. Frisch, G. W. Trucks, H. B. Schlegel, G. E. Scuseria, 
 M. A. Robb, J. R. Cheeseman, G. Scalmani, V. Barone, B. Mennucci, 
 G. A. Petersson, H. Nakatsuji, M. Caricato, X. Li, H. P. Hratchian, 
 A. F. Izmaylov, J. Bloino, G. Zheng, J. L. Sonnenberg, M. Hada, 
 M. Ehara, K. Toyota, R. Fukuda, J. Hasegawa, M. Ishida, T. Nakajima, 
 Y. Honda, O. Kitao, H. Nakai, T. Vreven, J. A. Montgomery, Jr., 
 J. E. Peralta, F. Ogliaro, M. Bearpark, J. J. Heyd, E. Brothers, 
 K. N. Kudin, V. N. Staroverov, T. Keith, R. Kobayashi, J. Normand, 
 K. Raghavachari, A. Rendell, J. C. Burant, S. S. Iyengar, J. Tomasi, 
 M. Cossi, N. Rega, J. M. Millam, M. Klene, J. E. Knox, J. B. Cross, 
 V. Bakken, C. Adamo, J. Jaramillo, R. Gomperts, R. E. Stratmann, 
 O. Yazyev, A. J. Austin, R. Cammi, C. Pomelli, J. W. Ochterski, 
 R. L. Martin, K. Morokuma, V. G. Zakrzewski, G. A. Voth, 
 P. Salvador, J. J. Dannenberg, S. Dapprich, A. D. Daniels, 
 O. Farkas, J. B. Foresman, J. V. Ortiz, J. Cioslowski, 
 and D. J. Fox, Gaussian, Inc., Wallingford CT, 2013.
 
 ******************************************
 Gaussian 09:  EM64W-G09RevD.01 13-Apr-2013
                14-Sep-2023 
 ******************************************
 %nprocshared=8
 Will use up to    8 processors via shared memory.
 %mem=8GB
 %chk=C:\Users\vivek\Downloads\molecule_34.chk
 ---------------------------------------------------------------------
 # opt freq rb3lyp/6-31+g(d) geom=connectivity empiricaldispersion=gd3
 ---------------------------------------------------------------------
 1/14=-1,18=20,19=15,26=3,38=1,57=2/1,3;
 2/9=110,12=2,17=6,18=5,40=1/2;
 3/5=1,6=6,7=11,11=2,16=1,25=1,30=1,71=1,74=-5,116=1,124=31/1,2,3;
 4//1;
 5/5=2,38=5/2;
 6/7=2,8=2,9=2,10=2,28=1/1;
 7//1,2,3,16;
 1/14=-1,18=20,19=15,26=3/3(2);
 2/9=110/2;
 99//99;
 2/9=110/2;
 3/5=1,6=6,7=11,11=2,16=1,25=1,30=1,71=1,74=-5,116=1,124=31/1,2,3;
 4/5=5,16=3,69=1/1;
 5/5=2,38=5/2;
 7//1,2,3,16;
 1/14=-1,18=20,19=15,26=3/3(-5);
 2/9=110/2;
 6/7=2,8=2,9=2,10=2,19=2,28=1/1;
 99/9=1/99;
 -------------------
 Title Card Required
 -------------------
 Symbolic Z-matrix:
 Charge =  0 Multiplicity = 1
 C                    -2.02788  -0.24557  -0.1243 
 C                    -2.70407   0.95973   0.10792 
 C                    -0.62898  -0.25958  -0.20681 
 C                    -1.98136   2.15103   0.25763 
 C                    -0.58246   2.13703   0.17512 
 C                     0.09373   0.93172  -0.0571 
 H                    -0.03065   3.04661   0.28943 
 H                     1.16182   0.92102  -0.12009 
 O                     0.061    -1.48949  -0.44376 
 H                     0.92612  -1.45613  -0.02897 
 H                    -2.57969  -1.15516  -0.23861 
 H                    -3.77216   0.97043   0.17091 
 C                    -2.72442   3.47555   0.51281 
 N                    -3.27767   4.46171   0.70281 
 

 GradGradGradGradGradGradGradGradGradGradGradGradGradGradGradGradGradGrad
 Berny optimization.
 Initialization pass.
                           ----------------------------
                           !    Initial Parameters    !
                           ! (Angstroms and Degrees)  !
 --------------------------                            --------------------------
 ! Name  Definition              Value          Derivative Info.                !
 --------------------------------------------------------------------------------
 ! R1    R(1,2)                  1.4014         estimate D2E/DX2                !
 ! R2    R(1,3)                  1.4014         estimate D2E/DX2                !
 ! R3    R(1,11)                 1.07           estimate D2E/DX2                !
 ! R4    R(2,4)                  1.4014         estimate D2E/DX2                !
 ! R5    R(2,12)                 1.07           estimate D2E/DX2                !
 ! R6    R(3,6)                  1.4014         estimate D2E/DX2                !
 ! R7    R(3,9)                  1.43           estimate D2E/DX2                !
 ! R8    R(4,5)                  1.4014         estimate D2E/DX2                !
 ! R9    R(4,13)                 1.54           estimate D2E/DX2                !
 ! R10   R(5,6)                  1.4014         estimate D2E/DX2                !
 ! R11   R(5,7)                  1.07           estimate D2E/DX2                !
 ! R12   R(6,8)                  1.07           estimate D2E/DX2                !
 ! R13   R(9,10)                 0.96           estimate D2E/DX2                !
 ! R14   R(13,14)                1.1466         estimate D2E/DX2                !
 ! A1    A(2,1,3)              120.0            estimate D2E/DX2                !
 ! A2    A(2,1,11)             120.0            estimate D2E/DX2                !
 ! A3    A(3,1,11)             120.0            estimate D2E/DX2                !
 ! A4    A(1,2,4)              120.0            estimate D2E/DX2                !
 ! A5    A(1,2,12)             120.0            estimate D2E/DX2                !
 ! A6    A(4,2,12)             120.0            estimate D2E/DX2                !
 ! A7    A(1,3,6)              120.0            estimate D2E/DX2                !
 ! A8    A(1,3,9)              120.0            estimate D2E/DX2                !
 ! A9    A(6,3,9)              120.0            estimate D2E/DX2                !
 ! A10   A(2,4,5)              120.0            estimate D2E/DX2                !
 ! A11   A(2,4,13)             120.0            estimate D2E/DX2                !
 ! A12   A(5,4,13)             120.0            estimate D2E/DX2                !
 ! A13   A(4,5,6)              120.0            estimate D2E/DX2                !
 ! A14   A(4,5,7)              120.0            estimate D2E/DX2                !
 ! A15   A(6,5,7)              120.0            estimate D2E/DX2                !
 ! A16   A(3,6,5)              120.0            estimate D2E/DX2                !
 ! A17   A(3,6,8)              120.0            estimate D2E/DX2                !
 ! A18   A(5,6,8)              120.0            estimate D2E/DX2                !
 ! A19   A(3,9,10)             109.4712         estimate D2E/DX2                !
 ! A20   L(4,13,14,12,-1)      179.9999         estimate D2E/DX2                !
 ! A21   L(4,13,14,12,-2)      180.0            estimate D2E/DX2                !
 ! D1    D(3,1,2,4)              0.0            estimate D2E/DX2                !
 ! D2    D(3,1,2,12)          -180.0            estimate D2E/DX2                !
 ! D3    D(11,1,2,4)          -180.0            estimate D2E/DX2                !
 ! D4    D(11,1,2,12)            0.0001         estimate D2E/DX2                !
 ! D5    D(2,1,3,6)              0.0            estimate D2E/DX2                !
 ! D6    D(2,1,3,9)           -180.0            estimate D2E/DX2                !
 ! D7    D(11,1,3,6)          -180.0            estimate D2E/DX2                !
 ! D8    D(11,1,3,9)             0.0            estimate D2E/DX2                !
 ! D9    D(1,2,4,5)              0.0            estimate D2E/DX2                !
 ! D10   D(1,2,4,13)           180.0            estimate D2E/DX2                !
 ! D11   D(12,2,4,5)           179.9999         estimate D2E/DX2                !
 ! D12   D(12,2,4,13)           -0.0001         estimate D2E/DX2                !
 ! D13   D(1,3,6,5)              0.0            estimate D2E/DX2                !
 ! D14   D(1,3,6,8)            180.0            estimate D2E/DX2                !
 ! D15   D(9,3,6,5)            180.0            estimate D2E/DX2                !
 ! D16   D(9,3,6,8)              0.0            estimate D2E/DX2                !
 ! D17   D(1,3,9,10)          -150.0            estimate D2E/DX2                !
 ! D18   D(6,3,9,10)            30.0            estimate D2E/DX2                !
 ! D19   D(2,4,5,6)              0.0            estimate D2E/DX2                !
 ! D20   D(2,4,5,7)           -180.0            estimate D2E/DX2                !
 ! D21   D(13,4,5,6)          -180.0            estimate D2E/DX2                !
 ! D22   D(13,4,5,7)             0.0            estimate D2E/DX2                !
 ! D23   D(4,5,6,3)              0.0            estimate D2E/DX2                !
 ! D24   D(4,5,6,8)           -180.0            estimate D2E/DX2                !
 ! D25   D(7,5,6,3)           -180.0            estimate D2E/DX2                !
 ! D26   D(7,5,6,8)              0.0            estimate D2E/DX2                !
 --------------------------------------------------------------------------------
 Trust Radius=3.00D-01 FncErr=1.00D-07 GrdErr=1.00D-06
 Number of steps in this run=     71 maximum allowed number of steps=    100.
 GradGradGradGradGradGradGradGradGradGradGradGradGradGradGradGradGradGrad

                          Input orientation:                          
 ---------------------------------------------------------------------
 Center     Atomic      Atomic             Coordinates (Angstroms)
 Number     Number       Type             X           Y           Z
 ---------------------------------------------------------------------
      1          6           0       -2.027884   -0.245574   -0.124301
      2          6           0       -2.704071    0.959734    0.107916
      3          6           0       -0.628985   -0.259582   -0.206807
      4          6           0       -1.981359    2.151034    0.257627
      5          6           0       -0.582460    2.137026    0.175121
      6          6           0        0.093727    0.931718   -0.057096
      7          1           0       -0.030653    3.046610    0.289429
      8          1           0        1.161818    0.921022   -0.120091
      9          8           0        0.061002   -1.489489   -0.443764
     10          1           0        0.926123   -1.456125   -0.028971
     11          1           0       -2.579690   -1.155158   -0.238609
     12          1           0       -3.772161    0.970429    0.170913
     13          6           0       -2.724422    3.475549    0.512810
     14          7           0       -3.277668    4.461709    0.702805
 ---------------------------------------------------------------------
                    Distance matrix (angstroms):
                    1          2          3          4          5
     1  C    0.000000
     2  C    1.401400   0.000000
     3  C    1.401400   2.427296   0.000000
     4  C    2.427296   1.401400   2.802800   0.000000
     5  C    2.802800   2.427296   2.427296   1.401400   0.000000
     6  C    2.427296   2.802800   1.401400   2.427296   1.401400
     7  H    3.872800   3.396345   3.396345   2.146700   1.070000
     8  H    3.396345   3.872800   2.146700   3.396345   2.146700
     9  O    2.452106   3.734792   1.430000   4.232800   3.734792
    10  H    3.193850   4.362731   1.970203   4.641895   3.902334
    11  H    1.070000   2.146700   2.146700   3.396345   3.872800
    12  H    2.146700   1.070000   3.396345   2.146700   3.396345
    13  C    3.838989   2.548270   4.342800   1.540000   2.548270
    14  N    4.940100   3.598157   5.489400   2.686600   3.598159
                    6          7          8          9         10
     6  C    0.000000
     7  H    2.146700   0.000000
     8  H    1.070000   2.471400   0.000000
     9  O    2.452106   4.595886   2.669667   0.000000
    10  H    2.528926   4.614263   2.390541   0.960000   0.000000
    11  H    3.396345   4.942800   4.280590   2.669667   3.524947
    12  H    3.872800   4.280590   4.942800   4.595886   5.291691
    13  C    3.838989   2.736837   4.693509   5.772800   6.159660
    14  N    4.940101   3.566019   5.737827   6.919400   7.295760
                   11         12         13         14
    11  H    0.000000
    12  H    2.471400   0.000000
    13  C    4.693509   2.736837   0.000000
    14  N    5.737825   3.566016   1.146600   0.000000
 Stoichiometry    C7H5NO
 Framework group  C1[X(C7H5NO)]
 Deg. of freedom    36
 Full point group                 C1      NOp   1
 Largest Abelian subgroup         C1      NOp   1
 Largest concise Abelian subgroup C1      NOp   1
                         Standard orientation:                         
 ---------------------------------------------------------------------
 Center     Atomic      Atomic             Coordinates (Angstroms)
 Number     Number       Type             X           Y           Z
 ---------------------------------------------------------------------
      1          6           0       -1.015606    1.238853   -0.005524
      2          6           0        0.385666    1.221677    0.002349
      3          6           0       -1.731076    0.033907   -0.016947
      4          6           0        1.071470   -0.000446   -0.001203
      5          6           0        0.356001   -1.205392   -0.012625
      6          6           0       -1.045272   -1.188216   -0.020497
      7          1           0        0.879627   -2.138509   -0.015336
      8          1           0       -1.591549   -2.108219   -0.029218
      9          8           0       -3.160946    0.051433   -0.024980
     10          1           0       -3.493073   -0.731168    0.420920
     11          1           0       -1.539233    2.171970   -0.002813
     12          1           0        0.931943    2.141680    0.011071
     13          6           0        2.611330   -0.019320    0.007447
     14          7           0        3.757826   -0.033371    0.013888
 ---------------------------------------------------------------------
 Rotational constants (GHZ):      5.6175380      0.9414105      0.8068002
 Standard basis: 6-31+G(d) (6D, 7F)
 There are   181 symmetry adapted cartesian basis functions of A   symmetry.
 There are   181 symmetry adapted basis functions of A   symmetry.
   181 basis functions,   308 primitive gaussians,   181 cartesian basis functions
    31 alpha electrons       31 beta electrons
       nuclear repulsion energy       370.0108822624 Hartrees.
 NAtoms=   14 NActive=   14 NUniq=   14 SFac= 1.00D+00 NAtFMM=   60 NAOKFM=F Big=F
 Integral buffers will be    131072 words long.
 Raffenetti 2 integral format.
 Two-electron integral symmetry is turned on.
 Nuclear repulsion after empirical dispersion term =      370.0025336461 Hartrees.
 One-electron integrals computed using PRISM.
 NBasis=   181 RedAO= T EigKep=  4.19D-06  NBF=   181
 NBsUse=   181 1.00D-06 EigRej= -1.00D+00 NBFU=   181
 ExpMin= 4.38D-02 ExpMax= 5.48D+03 ExpMxC= 8.25D+02 IAcc=2 IRadAn=         4 AccDes= 0.00D+00
 Harris functional with IExCor=  402 and IRadAn=       4 diagonalized for initial guess.
 HarFok:  IExCor=  402 AccDes= 0.00D+00 IRadAn=         4 IDoV= 1 UseB2=F ITyADJ=14
 ICtDFT=  3500011 ScaDFX=  1.000000  1.000000  1.000000  1.000000
 FoFCou: FMM=F IPFlag=           0 FMFlag=      100000 FMFlg1=           0
         NFxFlg=           0 DoJE=T BraDBF=F KetDBF=T FulRan=T
         wScrn=  0.000000 ICntrl=     500 IOpCl=  0 I1Cent=   200000004 NGrid=           0
         NMat0=    1 NMatS0=      1 NMatT0=    0 NMatD0=    1 NMtDS0=    0 NMtDT0=    0
 Petite list used in FoFCou.
 Keep R1 ints in memory in canonical form, NReq=138788980.
 Requested convergence on RMS density matrix=1.00D-08 within 128 cycles.
 Requested convergence on MAX density matrix=1.00D-06.
 Requested convergence on             energy=1.00D-06.
 No special actions if energy rises.
 SCF Done:  E(RB3LYP) =  -399.724073780     A.U. after   15 cycles
            NFock= 15  Conv=0.34D-08     -V/T= 2.0100

 **********************************************************************

            Population analysis using the SCF density.

 **********************************************************************

 Orbital symmetries:
       Occupied  (A) (A) (A) (A) (A) (A) (A) (A) (A) (A) (A) (A)
                 (A) (A) (A) (A) (A) (A) (A) (A) (A) (A) (A) (A)
                 (A) (A) (A) (A) (A) (A) (A)
       Virtual   (A) (A) (A) (A) (A) (A) (A) (A) (A) (A) (A) (A)
                 (A) (A) (A) (A) (A) (A) (A) (A) (A) (A) (A) (A)
                 (A) (A) (A) (A) (A) (A) (A) (A) (A) (A) (A) (A)
                 (A) (A) (A) (A) (A) (A) (A) (A) (A) (A) (A) (A)
                 (A) (A) (A) (A) (A) (A) (A) (A) (A) (A) (A) (A)
                 (A) (A) (A) (A) (A) (A) (A) (A) (A) (A) (A) (A)
                 (A) (A) (A) (A) (A) (A) (A) (A) (A) (A) (A) (A)
                 (A) (A) (A) (A) (A) (A) (A) (A) (A) (A) (A) (A)
                 (A) (A) (A) (A) (A) (A) (A) (A) (A) (A) (A) (A)
                 (A) (A) (A) (A) (A) (A) (A) (A) (A) (A) (A) (A)
                 (A) (A) (A) (A) (A) (A) (A) (A) (A) (A) (A) (A)
                 (A) (A) (A) (A) (A) (A) (A) (A) (A) (A) (A) (A)
                 (A) (A) (A) (A) (A) (A)
 The electronic state is 1-A.
 Alpha  occ. eigenvalues --  -19.20938 -14.34752 -10.29168 -10.26196 -10.24407
 Alpha  occ. eigenvalues --  -10.23697 -10.23592 -10.22965 -10.22674  -1.07144
 Alpha  occ. eigenvalues --   -0.92255  -0.89057  -0.78811  -0.78696  -0.66094
 Alpha  occ. eigenvalues --   -0.65082  -0.57972  -0.56324  -0.50572  -0.48463
 Alpha  occ. eigenvalues --   -0.46387  -0.45049  -0.42721  -0.40891  -0.39399
 Alpha  occ. eigenvalues --   -0.37273  -0.36871  -0.35000  -0.34372  -0.29054
 Alpha  occ. eigenvalues --   -0.26564
 Alpha virt. eigenvalues --   -0.05507  -0.04813  -0.01718  -0.00052   0.01545
 Alpha virt. eigenvalues --    0.02232   0.03023   0.03807   0.04672   0.05630
 Alpha virt. eigenvalues --    0.06454   0.06869   0.07400   0.07932   0.08067
 Alpha virt. eigenvalues --    0.08927   0.11597   0.11907   0.12671   0.13036
 Alpha virt. eigenvalues --    0.13267   0.13624   0.14019   0.14206   0.15770
 Alpha virt. eigenvalues --    0.16098   0.16782   0.18640   0.18887   0.20223
 Alpha virt. eigenvalues --    0.20730   0.20927   0.21757   0.22682   0.24101
 Alpha virt. eigenvalues --    0.24230   0.24562   0.25368   0.25721   0.26734
 Alpha virt. eigenvalues --    0.27104   0.27799   0.28595   0.29503   0.30151
 Alpha virt. eigenvalues --    0.30861   0.31747   0.33735   0.34443   0.35098
 Alpha virt. eigenvalues --    0.35969   0.39186   0.54891   0.57930   0.62765
 Alpha virt. eigenvalues --    0.63352   0.64164   0.67397   0.68891   0.70194
 Alpha virt. eigenvalues --    0.71492   0.71847   0.72364   0.73465   0.75808
 Alpha virt. eigenvalues --    0.76292   0.77009   0.80903   0.85755   0.86879
 Alpha virt. eigenvalues --    0.88478   0.89470   0.91910   0.96541   0.98166
 Alpha virt. eigenvalues --    0.99673   1.00367   1.01177   1.05579   1.05974
 Alpha virt. eigenvalues --    1.06739   1.07363   1.11637   1.15078   1.16845
 Alpha virt. eigenvalues --    1.17790   1.21186   1.22076   1.23566   1.25887
 Alpha virt. eigenvalues --    1.28534   1.32847   1.35939   1.40398   1.41218
 Alpha virt. eigenvalues --    1.42214   1.42569   1.45620   1.46891   1.51712
 Alpha virt. eigenvalues --    1.54385   1.59057   1.71832   1.75197   1.75771
 Alpha virt. eigenvalues --    1.76646   1.78562   1.83876   1.86425   1.91847
 Alpha virt. eigenvalues --    1.94178   1.95633   1.95762   1.97600   1.98100
 Alpha virt. eigenvalues --    2.05103   2.07822   2.09629   2.10864   2.14617
 Alpha virt. eigenvalues --    2.17428   2.22745   2.25874   2.26375   2.39834
 Alpha virt. eigenvalues --    2.47286   2.48884   2.52175   2.59895   2.61378
 Alpha virt. eigenvalues --    2.62782   2.70258   2.72859   2.74123   2.77854
 Alpha virt. eigenvalues --    2.90394   2.97824   3.06718   3.09871   3.22083
 Alpha virt. eigenvalues --    3.42393   4.12704   4.18267   4.20912   4.21350
 Alpha virt. eigenvalues --    4.29567   4.35058   4.36220   4.59742   4.77554
          Condensed to atoms (all electrons):
               1          2          3          4          5          6
     1  C    8.843018  -1.234674  -1.964484   0.895087  -0.181071  -0.764402
     2  C   -1.234674   8.342920   1.228199  -0.762362  -1.291521  -0.040275
     3  C   -1.964484   1.228199   7.955428  -1.228071   0.318641  -0.250692
     4  C    0.895087  -0.762362  -1.228071   7.800495  -0.469181   0.208098
     5  C   -0.181071  -1.291521   0.318641  -0.469181   8.132541  -0.434359
     6  C   -0.764402  -0.040275  -0.250692   0.208098  -0.434359   7.100841
     7  H   -0.009343   0.043216   0.002770   0.060088   0.240799  -0.022045
     8  H    0.020371  -0.021249  -0.060481   0.018171  -0.010006   0.345508
     9  O   -0.235281   0.086236   0.266987  -0.034146   0.055089  -0.113488
    10  H    0.133164  -0.019535  -0.029984   0.015169  -0.007397  -0.087054
    11  H    0.316993  -0.049259   0.018214  -0.000755  -0.020860   0.034695
    12  H   -0.030872   0.232258  -0.017718   0.084594   0.050764  -0.010452
    13  C    0.018232   0.059324  -0.218078  -1.700840   0.231772  -0.184103
    14  N   -0.002233  -0.046363   0.003470   0.250932  -0.036497   0.002475
               7          8          9         10         11         12
     1  C   -0.009343   0.020371  -0.235281   0.133164   0.316993  -0.030872
     2  C    0.043216  -0.021249   0.086236  -0.019535  -0.049259   0.232258
     3  C    0.002770  -0.060481   0.266987  -0.029984   0.018214  -0.017718
     4  C    0.060088   0.018171  -0.034146   0.015169  -0.000755   0.084594
     5  C    0.240799  -0.010006   0.055089  -0.007397  -0.020860   0.050764
     6  C   -0.022045   0.345508  -0.113488  -0.087054   0.034695  -0.010452
     7  H    0.506973  -0.004663  -0.000482  -0.000007   0.000014  -0.000156
     8  H   -0.004663   0.530122  -0.008800   0.004484  -0.000153   0.000015
     9  O   -0.000482  -0.008800   8.484162   0.164814  -0.003539  -0.000497
    10  H   -0.000007   0.004484   0.164814   0.358829  -0.000057   0.000003
    11  H    0.000014  -0.000153  -0.003539  -0.000057   0.504497  -0.004706
    12  H   -0.000156   0.000015  -0.000497   0.000003  -0.004706   0.505669
    13  C   -0.025501   0.001123  -0.000616   0.001446  -0.000735  -0.018544
    14  N    0.000650  -0.000007  -0.000051  -0.000001  -0.000006   0.000510
              13         14
     1  C    0.018232  -0.002233
     2  C    0.059324  -0.046363
     3  C   -0.218078   0.003470
     4  C   -1.700840   0.250932
     5  C    0.231772  -0.036497
     6  C   -0.184103   0.002475
     7  H   -0.025501   0.000650
     8  H    0.001123  -0.000007
     9  O   -0.000616  -0.000051
    10  H    0.001446  -0.000001
    11  H   -0.000735  -0.000006
    12  H   -0.018544   0.000510
    13  C    7.991796   0.089512
    14  N    0.089512   7.250234
 Mulliken charges:
               1
     1  C    0.195497
     2  C   -0.526915
     3  C   -0.024202
     4  C    0.862723
     5  C   -0.578714
     6  C    0.215251
     7  H    0.207686
     8  H    0.185567
     9  O   -0.660390
    10  H    0.466126
    11  H    0.205654
    12  H    0.209130
    13  C   -0.244787
    14  N   -0.512626
 Sum of Mulliken charges =   0.00000
 Mulliken charges with hydrogens summed into heavy atoms:
               1
     1  C    0.401152
     2  C   -0.317786
     3  C   -0.024202
     4  C    0.862723
     5  C   -0.371028
     6  C    0.400819
     9  O   -0.194264
    13  C   -0.244787
    14  N   -0.512626
 Electronic spatial extent (au):  <R**2>=           1311.0613
 Charge=              0.0000 electrons
 Dipole moment (field-independent basis, Debye):
    X=             -4.3287    Y=             -1.1773    Z=              0.7228  Tot=              4.5438
 Quadrupole moment (field-independent basis, Debye-Ang):
   XX=            -69.9681   YY=            -43.6496   ZZ=            -54.4461
   XY=              5.4082   XZ=             -3.0467   YZ=             -0.7413
 Traceless Quadrupole moment (field-independent basis, Debye-Ang):
   XX=            -13.9469   YY=             12.3717   ZZ=              1.5752
   XY=              5.4082   XZ=             -3.0467   YZ=             -0.7413
 Octapole moment (field-independent basis, Debye-Ang**2):
  XXX=           -109.2105  YYY=             -0.0057  ZZZ=              0.4878  XYY=             -9.9619
  XXY=            -18.7172  XXZ=             10.8049  XZZ=             -4.9725  YZZ=             -0.4024
  YYZ=              0.3619  XYZ=              2.8764
 Hexadecapole moment (field-independent basis, Debye-Ang**3):
 XXXX=          -1751.1366 YYYY=           -275.7086 ZZZZ=            -62.8804 XXXY=             78.4663
 XXXZ=            -43.6190 YYYX=              3.9868 YYYZ=             -0.3679 ZZZX=             -2.2034
 ZZZY=             -0.6588 XXYY=           -257.9849 XXZZ=           -244.6200 YYZZ=            -68.6837
 XXYZ=            -10.0577 YYXZ=             -1.8087 ZZXY=              1.8302
 N-N= 3.700025336461D+02 E-N=-1.668469825923D+03  KE= 3.957553711307D+02
 Calling FoFJK, ICntrl=      2127 FMM=F ISym2X=0 I1Cent= 0 IOpClX= 0 NMat=1 NMatS=1 NMatT=0.
 ***** Axes restored to original set *****
 -------------------------------------------------------------------
 Center     Atomic                   Forces (Hartrees/Bohr)
 Number     Number              X              Y              Z
 -------------------------------------------------------------------
      1        6           0.005907065    0.008182699   -0.000846029
      2        6           0.013722029   -0.003282505   -0.002521472
      3        6           0.019436866   -0.019978787   -0.000517303
      4        6          -0.022833775    0.041218766    0.007836399
      5        6          -0.002978831   -0.011647477   -0.001183794
      6        6          -0.016365295    0.004161374    0.002041084
      7        1           0.005951963    0.009301162    0.001103506
      8        1           0.012024276    0.000526743   -0.001199015
      9        8          -0.035398122    0.026000456    0.001588762
     10        1           0.009485979    0.002930632    0.002889402
     11        1          -0.004467309   -0.010123678   -0.000939827
     12        1          -0.010893632   -0.000502274    0.000717290
     13        6           0.045795667   -0.081347436   -0.015641280
     14        7          -0.019386882    0.034560325    0.006672277
 -------------------------------------------------------------------
 Cartesian Forces:  Max     0.081347436 RMS     0.020075469

 GradGradGradGradGradGradGradGradGradGradGradGradGradGradGradGradGradGrad
 Berny optimization.
 FormGI is forming the generalized inverse of G from B-inverse, IUseBI=4.
 Internal  Forces:  Max     0.054469046 RMS     0.010803731
 Search for a local minimum.
 Step number   1 out of a maximum of   71
 All quantities printed in internal units (Hartrees-Bohrs-Radians)
 Mixed Optimization -- RFO/linear search
 Second derivative matrix not updated -- first step.
 ITU=  0
     Eigenvalues ---    0.01295   0.01929   0.02070   0.02070   0.02070
     Eigenvalues ---    0.02070   0.02070   0.02070   0.02070   0.02070
     Eigenvalues ---    0.05044   0.05044   0.16000   0.16000   0.16000
     Eigenvalues ---    0.16000   0.16000   0.22000   0.22981   0.24000
     Eigenvalues ---    0.25000   0.25000   0.28519   0.37230   0.37230
     Eigenvalues ---    0.37230   0.37230   0.40989   0.41268   0.41640
     Eigenvalues ---    0.45389   0.45389   0.45389   0.45389   0.55473
     Eigenvalues ---    1.36980
 RFO step:  Lambda=-1.77347574D-02 EMin= 1.29493776D-02
 Linear search not attempted -- first point.
 Iteration  1 RMS(Cart)=  0.04485945 RMS(Int)=  0.00072956
 Iteration  2 RMS(Cart)=  0.00062696 RMS(Int)=  0.00014227
 Iteration  3 RMS(Cart)=  0.00000119 RMS(Int)=  0.00014227
 Iteration  4 RMS(Cart)=  0.00000000 RMS(Int)=  0.00014227
 Variable       Old X    -DE/DX   Delta X   Delta X   Delta X     New X
                                 (Linear)    (Quad)   (Total)
    R1        2.64826  -0.00752   0.00000  -0.01610  -0.01610   2.63216
    R2        2.64826  -0.00674   0.00000  -0.01461  -0.01459   2.63367
    R3        2.02201   0.01101   0.00000   0.02823   0.02823   2.05024
    R4        2.64826  -0.00039   0.00000  -0.00066  -0.00069   2.64758
    R5        2.02201   0.01091   0.00000   0.02798   0.02798   2.04998
    R6        2.64826  -0.00125   0.00000  -0.00283  -0.00280   2.64546
    R7        2.70231  -0.03813   0.00000  -0.08916  -0.08916   2.61315
    R8        2.64826  -0.00148   0.00000  -0.00282  -0.00284   2.64542
    R9        2.91018  -0.05447   0.00000  -0.17981  -0.17981   2.73037
   R10        2.64826  -0.00756   0.00000  -0.01589  -0.01588   2.63238
   R11        2.02201   0.01109   0.00000   0.02844   0.02844   2.05045
   R12        2.02201   0.01207   0.00000   0.03094   0.03094   2.05295
   R13        1.81414   0.00990   0.00000   0.01729   0.01729   1.83143
   R14        2.16676   0.04018   0.00000   0.02896   0.02896   2.19572
    A1        2.09440  -0.00279   0.00000  -0.01195  -0.01192   2.08247
    A2        2.09440   0.00280   0.00000   0.01387   0.01386   2.10825
    A3        2.09440  -0.00001   0.00000  -0.00192  -0.00193   2.09246
    A4        2.09440  -0.00124   0.00000  -0.00440  -0.00443   2.08997
    A5        2.09440   0.00002   0.00000  -0.00116  -0.00116   2.09324
    A6        2.09440   0.00122   0.00000   0.00556   0.00557   2.09996
    A7        2.09440   0.00558   0.00000   0.02059   0.02052   2.11492
    A8        2.09440  -0.01247   0.00000  -0.04647  -0.04660   2.04779
    A9        2.09440   0.00690   0.00000   0.02588   0.02571   2.12011
   A10        2.09440   0.00342   0.00000   0.01432   0.01428   2.10867
   A11        2.09440  -0.00150   0.00000  -0.00637  -0.00635   2.08805
   A12        2.09440  -0.00192   0.00000  -0.00795  -0.00793   2.08646
   A13        2.09440  -0.00310   0.00000  -0.01135  -0.01136   2.08303
   A14        2.09440   0.00183   0.00000   0.00723   0.00722   2.10162
   A15        2.09440   0.00127   0.00000   0.00412   0.00411   2.09851
   A16        2.09440  -0.00187   0.00000  -0.00720  -0.00716   2.08724
   A17        2.09440   0.00150   0.00000   0.00679   0.00677   2.10116
   A18        2.09440   0.00037   0.00000   0.00041   0.00038   2.09478
   A19        1.91063  -0.00331   0.00000  -0.01864  -0.01864   1.89199
   A20        3.14159   0.00001   0.00000   0.00009   0.00009   3.14168
   A21        3.14159  -0.00002   0.00000  -0.00031  -0.00031   3.14128
    D1        0.00000  -0.00018   0.00000  -0.00452  -0.00462  -0.00462
    D2       -3.14159   0.00008   0.00000   0.00221   0.00221  -3.13938
    D3       -3.14159  -0.00015   0.00000  -0.00383  -0.00401   3.13759
    D4        0.00000   0.00011   0.00000   0.00290   0.00282   0.00282
    D5        0.00000  -0.00017   0.00000  -0.00482  -0.00479  -0.00479
    D6       -3.14159   0.00092   0.00000   0.02452   0.02405  -3.11754
    D7       -3.14159  -0.00020   0.00000  -0.00551  -0.00540   3.13620
    D8        0.00000   0.00089   0.00000   0.02383   0.02344   0.02344
    D9        0.00000   0.00024   0.00000   0.00643   0.00649   0.00649
   D10        3.14159   0.00017   0.00000   0.00443   0.00451  -3.13708
   D11        3.14159  -0.00002   0.00000  -0.00030  -0.00036   3.14123
   D12        0.00000  -0.00009   0.00000  -0.00231  -0.00234  -0.00234
   D13        0.00000   0.00045   0.00000   0.01225   0.01239   0.01239
   D14        3.14159   0.00063   0.00000   0.01691   0.01717  -3.12443
   D15        3.14159  -0.00063   0.00000  -0.01709  -0.01765   3.12394
   D16        0.00000  -0.00045   0.00000  -0.01243  -0.01288  -0.01288
   D17       -2.61799  -0.00257   0.00000  -0.08059  -0.08039  -2.69838
   D18        0.52360  -0.00148   0.00000  -0.05125  -0.05145   0.47215
   D19        0.00000   0.00004   0.00000   0.00100   0.00109   0.00109
   D20       -3.14159  -0.00026   0.00000  -0.00687  -0.00687   3.13472
   D21       -3.14159   0.00011   0.00000   0.00300   0.00307  -3.13852
   D22        0.00000  -0.00019   0.00000  -0.00487  -0.00489  -0.00489
   D23        0.00000  -0.00039   0.00000  -0.01034  -0.01038  -0.01038
   D24       -3.14159  -0.00057   0.00000  -0.01500  -0.01514   3.12645
   D25       -3.14159  -0.00009   0.00000  -0.00247  -0.00243   3.13916
   D26        0.00000  -0.00027   0.00000  -0.00713  -0.00719  -0.00719
         Item               Value     Threshold  Converged?
 Maximum Force            0.054469     0.000450     NO 
 RMS     Force            0.010804     0.000300     NO 
 Maximum Displacement     0.163646     0.001800     NO 
 RMS     Displacement     0.045010     0.001200     NO 
 Predicted change in Energy=-9.416311D-03
 GradGradGradGradGradGradGradGradGradGradGradGradGradGradGradGradGradGrad

                          Input orientation:                          
 ---------------------------------------------------------------------
 Center     Atomic      Atomic             Coordinates (Angstroms)
 Number     Number       Type             X           Y           Z
 ---------------------------------------------------------------------
      1          6           0       -2.028588   -0.240215   -0.113486
      2          6           0       -2.702049    0.959236    0.105321
      3          6           0       -0.636639   -0.238456   -0.182881
      4          6           0       -1.974792    2.146974    0.257907
      5          6           0       -0.576763    2.146222    0.185617
      6          6           0        0.094464    0.947086   -0.042333
      7          1           0       -0.020401    3.070927    0.298400
      8          1           0        1.178382    0.936121   -0.114498
      9          8           0       -0.011805   -1.446933   -0.430575
     10          1           0        0.885824   -1.407376   -0.067326
     11          1           0       -2.574560   -1.170462   -0.230294
     12          1           0       -3.785265    0.969094    0.163161
     13          6           0       -2.675534    3.388951    0.490368
     14          7           0       -3.238955    4.387737    0.677601
 ---------------------------------------------------------------------
                    Distance matrix (angstroms):
                    1          2          3          4          5
     1  C    0.000000
     2  C    1.392878   0.000000
     3  C    1.393679   2.404879   0.000000
     4  C    2.416505   1.401037   2.770419   0.000000
     5  C    2.809330   2.435615   2.413724   1.399897   0.000000
     6  C    2.433535   2.800434   1.399920   2.410746   1.392994
     7  H    3.894370   3.418735   3.400499   2.162169   1.085052
     8  H    3.415907   3.886720   2.163009   3.398140   2.152893
     9  O    2.371524   3.648869   1.382818   4.152528   3.689123
    10  H    3.139776   4.301568   1.922920   4.574091   3.851130
    11  H    1.084938   2.159747   2.150912   3.406383   3.894171
    12  H    2.150552   1.084804   3.389951   2.161987   3.417692
    13  C    3.735509   2.460179   4.215263   1.444848   2.458067
    14  N    4.848582   3.517157   5.377187   2.606774   3.514783
                    6          7          8          9         10
     6  C    0.000000
     7  H    2.154064   0.000000
     8  H    1.086373   2.482934   0.000000
     9  O    2.427623   4.576301   2.682423   0.000000
    10  H    2.484022   4.583688   2.362158   0.969150   0.000000
    11  H    3.412188   4.979219   4.305308   2.585394   3.472312
    12  H    3.885229   4.313953   4.971516   4.519813   5.245932
    13  C    3.730867   2.680993   4.608135   5.597264   5.999921
    14  N    4.844384   3.498123   5.661620   6.759136   7.152066
                   11         12         13         14
    11  H    0.000000
    12  H    2.489641   0.000000
    13  C    4.617120   2.682215   0.000000
    14  N    5.670914   3.500032   1.161926   0.000000
 Stoichiometry    C7H5NO
 Framework group  C1[X(C7H5NO)]
 Deg. of freedom    36
 Full point group                 C1      NOp   1
 Largest Abelian subgroup         C1      NOp   1
 Largest concise Abelian subgroup C1      NOp   1
                         Standard orientation:                         
 ---------------------------------------------------------------------
 Center     Atomic      Atomic             Coordinates (Angstroms)
 Number     Number       Type             X           Y           Z
 ---------------------------------------------------------------------
      1          6           0       -1.010480    1.228820    0.000734
      2          6           0        0.382366    1.219451   -0.000197
      3          6           0       -1.701041    0.018265   -0.003873
      4          6           0        1.069305   -0.001622   -0.000114
      5          6           0        0.373160   -1.216138   -0.006909
      6          6           0       -1.019763   -1.204645   -0.015151
      7          1           0        0.911839   -2.158009   -0.013229
      8          1           0       -1.570941   -2.140608   -0.034717
      9          8           0       -3.082383    0.075454   -0.032291
     10          1           0       -3.430485   -0.738836    0.361419
     11          1           0       -1.559631    2.164507    0.004420
     12          1           0        0.929995    2.155865    0.005435
     13          6           0        2.514129   -0.008574    0.004584
     14          7           0        3.676033   -0.014270    0.008652
 ---------------------------------------------------------------------
 Rotational constants (GHZ):      5.5766549      0.9868027      0.8388582
 Standard basis: 6-31+G(d) (6D, 7F)
 There are   181 symmetry adapted cartesian basis functions of A   symmetry.
 There are   181 symmetry adapted basis functions of A   symmetry.
   181 basis functions,   308 primitive gaussians,   181 cartesian basis functions
    31 alpha electrons       31 beta electrons
       nuclear repulsion energy       374.5134166229 Hartrees.
 NAtoms=   14 NActive=   14 NUniq=   14 SFac= 1.00D+00 NAtFMM=   60 NAOKFM=F Big=F
 Integral buffers will be    131072 words long.
 Raffenetti 2 integral format.
 Two-electron integral symmetry is turned on.
 Nuclear repulsion after empirical dispersion term =      374.5050249309 Hartrees.
 One-electron integrals computed using PRISM.
 NBasis=   181 RedAO= T EigKep=  4.11D-06  NBF=   181
 NBsUse=   181 1.00D-06 EigRej= -1.00D+00 NBFU=   181
 Initial guess from the checkpoint file:  "C:\Users\vivek\Downloads\molecule_34.chk"
 B after Tr=     0.000000    0.000000    0.000000
         Rot=    0.999999   -0.000031    0.000038   -0.001335 Ang=  -0.15 deg.
 ExpMin= 4.38D-02 ExpMax= 5.48D+03 ExpMxC= 8.25D+02 IAcc=2 IRadAn=         4 AccDes= 0.00D+00
 Harris functional with IExCor=  402 and IRadAn=       4 diagonalized for initial guess.
 HarFok:  IExCor=  402 AccDes= 0.00D+00 IRadAn=         4 IDoV= 1 UseB2=F ITyADJ=14
 ICtDFT=  3500011 ScaDFX=  1.000000  1.000000  1.000000  1.000000
 FoFCou: FMM=F IPFlag=           0 FMFlag=      100000 FMFlg1=           0
         NFxFlg=           0 DoJE=T BraDBF=F KetDBF=T FulRan=T
         wScrn=  0.000000 ICntrl=     500 IOpCl=  0 I1Cent=   200000004 NGrid=           0
         NMat0=    1 NMatS0=      1 NMatT0=    0 NMatD0=    1 NMtDS0=    0 NMtDT0=    0
 Petite list used in FoFCou.
 Keep R1 ints in memory in canonical form, NReq=138788980.
 Requested convergence on RMS density matrix=1.00D-08 within 128 cycles.
 Requested convergence on MAX density matrix=1.00D-06.
 Requested convergence on             energy=1.00D-06.
 No special actions if energy rises.
 SCF Done:  E(RB3LYP) =  -399.734396517     A.U. after   13 cycles
            NFock= 13  Conv=0.47D-08     -V/T= 2.0096
 Calling FoFJK, ICntrl=      2127 FMM=F ISym2X=0 I1Cent= 0 IOpClX= 0 NMat=1 NMatS=1 NMatT=0.
 ***** Axes restored to original set *****
 -------------------------------------------------------------------
 Center     Atomic                   Forces (Hartrees/Bohr)
 Number     Number              X              Y              Z
 -------------------------------------------------------------------
      1        6          -0.005469697    0.002940150   -0.000779101
      2        6           0.001593119   -0.006151233   -0.001175080
      3        6           0.008377820   -0.010474853   -0.003242400
      4        6          -0.008529728    0.014831028    0.002600173
      5        6           0.003918688   -0.004673251   -0.000733357
      6        6          -0.001247026    0.002848804    0.001639646
      7        1          -0.000464611    0.000383767    0.000103138
      8        1           0.000674644   -0.000552089   -0.000284801
      9        8          -0.005523403    0.007753337    0.005565251
     10        1           0.002771877   -0.001706307   -0.002967222
     11        1           0.001187733   -0.000722058    0.000050478
     12        1          -0.000283908    0.000891747    0.000194177
     13        6           0.005415261   -0.009714870   -0.001794264
     14        7          -0.002420769    0.004345828    0.000823362
 -------------------------------------------------------------------
 Cartesian Forces:  Max     0.014831028 RMS     0.004675982

 GradGradGradGradGradGradGradGradGradGradGradGradGradGradGradGradGradGrad
 Berny optimization.
 Using GEDIIS/GDIIS optimizer.
 FormGI is forming the generalized inverse of G from B-inverse, IUseBI=4.
 Internal  Forces:  Max     0.006993219 RMS     0.002141946
 Search for a local minimum.
 Step number   2 out of a maximum of   71
 All quantities printed in internal units (Hartrees-Bohrs-Radians)
 Mixed Optimization -- RFO/linear search
 Update second derivatives using D2CorX and points    1    2
 DE= -1.03D-02 DEPred=-9.42D-03 R= 1.10D+00
 TightC=F SS=  1.41D+00  RLast= 2.49D-01 DXNew= 5.0454D-01 7.4645D-01
 Trust test= 1.10D+00 RLast= 2.49D-01 DXMaxT set to 5.05D-01
 ITU=  1  0
 Use linear search instead of GDIIS.
     Eigenvalues ---    0.01265   0.01942   0.02070   0.02070   0.02070
     Eigenvalues ---    0.02070   0.02070   0.02070   0.02070   0.02072
     Eigenvalues ---    0.05044   0.05044   0.15844   0.15999   0.16000
     Eigenvalues ---    0.16000   0.16075   0.21995   0.22724   0.23326
     Eigenvalues ---    0.25000   0.25144   0.28879   0.37199   0.37230
     Eigenvalues ---    0.37230   0.37438   0.39360   0.41335   0.41570
     Eigenvalues ---    0.45303   0.45389   0.45389   0.47218   0.55415
     Eigenvalues ---    1.35487
 RFO step:  Lambda=-1.57229323D-03 EMin= 1.26471889D-02
 Quartic linear search produced a step of  0.10527.
 Iteration  1 RMS(Cart)=  0.03188062 RMS(Int)=  0.00286086
 Iteration  2 RMS(Cart)=  0.00278708 RMS(Int)=  0.00002173
 Iteration  3 RMS(Cart)=  0.00001589 RMS(Int)=  0.00001936
 Iteration  4 RMS(Cart)=  0.00000000 RMS(Int)=  0.00001936
 Variable       Old X    -DE/DX   Delta X   Delta X   Delta X     New X
                                 (Linear)    (Quad)   (Total)
    R1        2.63216  -0.00007  -0.00170   0.00061  -0.00109   2.63107
    R2        2.63367   0.00399  -0.00154   0.01021   0.00867   2.64234
    R3        2.05024   0.00002   0.00297  -0.00128   0.00169   2.05192
    R4        2.64758   0.00406  -0.00007   0.01003   0.00996   2.65754
    R5        2.04998   0.00030   0.00294  -0.00043   0.00252   2.05250
    R6        2.64546   0.00113  -0.00029   0.00270   0.00240   2.64786
    R7        2.61315  -0.00699  -0.00939  -0.01470  -0.02409   2.58906
    R8        2.64542   0.00450  -0.00030   0.01112   0.01083   2.65625
    R9        2.73037  -0.00622  -0.01893  -0.01442  -0.03335   2.69702
   R10        2.63238   0.00037  -0.00167   0.00152  -0.00015   2.63223
   R11        2.05045   0.00010   0.00299  -0.00105   0.00195   2.05240
   R12        2.05295   0.00070   0.00326   0.00060   0.00386   2.05681
   R13        1.83143   0.00139   0.00182   0.00204   0.00386   1.83529
   R14        2.19572   0.00504   0.00305   0.00309   0.00614   2.20186
    A1        2.08247   0.00152  -0.00126   0.00751   0.00625   2.08872
    A2        2.10825   0.00065   0.00146   0.00528   0.00674   2.11499
    A3        2.09246  -0.00217  -0.00020  -0.01279  -0.01299   2.07947
    A4        2.08997   0.00163  -0.00047   0.00814   0.00768   2.09764
    A5        2.09324   0.00012  -0.00012   0.00252   0.00239   2.09563
    A6        2.09996  -0.00174   0.00059  -0.01066  -0.01007   2.08989
    A7        2.11492  -0.00229   0.00216  -0.01230  -0.01017   2.10475
    A8        2.04779  -0.00049  -0.00491   0.00106  -0.00385   2.04394
    A9        2.12011   0.00278   0.00271   0.01129   0.01399   2.13410
   A10        2.10867  -0.00433   0.00150  -0.01993  -0.01841   2.09026
   A11        2.08805   0.00216  -0.00067   0.00989   0.00921   2.09726
   A12        2.08646   0.00217  -0.00083   0.01004   0.00920   2.09566
   A13        2.08303   0.00259  -0.00120   0.01291   0.01173   2.09476
   A14        2.10162  -0.00191   0.00076  -0.01079  -0.01004   2.09158
   A15        2.09851  -0.00067   0.00043  -0.00213  -0.00170   2.09680
   A16        2.08724   0.00089  -0.00075   0.00367   0.00291   2.09015
   A17        2.10116  -0.00104   0.00071  -0.00610  -0.00539   2.09577
   A18        2.09478   0.00015   0.00004   0.00243   0.00247   2.09725
   A19        1.89199   0.00548  -0.00196   0.03874   0.03678   1.92877
   A20        3.14168   0.00006   0.00001   0.00129   0.00130   3.14298
   A21        3.14128  -0.00002  -0.00003  -0.00029  -0.00032   3.14096
    D1       -0.00462  -0.00002  -0.00049   0.00081   0.00032  -0.00430
    D2       -3.13938   0.00004   0.00023   0.00111   0.00136  -3.13803
    D3        3.13759  -0.00010  -0.00042  -0.00310  -0.00355   3.13403
    D4        0.00282  -0.00004   0.00030  -0.00279  -0.00252   0.00030
    D5       -0.00479  -0.00002  -0.00050   0.00047  -0.00003  -0.00482
    D6       -3.11754   0.00010   0.00253  -0.00163   0.00084  -3.11670
    D7        3.13620   0.00006  -0.00057   0.00434   0.00378   3.13997
    D8        0.02344   0.00018   0.00247   0.00224   0.00464   0.02809
    D9        0.00649   0.00000   0.00068  -0.00245  -0.00175   0.00474
   D10       -3.13708   0.00005   0.00047   0.00075   0.00123  -3.13585
   D11        3.14123  -0.00006  -0.00004  -0.00270  -0.00274   3.13850
   D12       -0.00234  -0.00001  -0.00025   0.00050   0.00025  -0.00209
   D13        0.01239   0.00008   0.00130  -0.00021   0.00110   0.01349
   D14       -3.12443   0.00011   0.00181  -0.00017   0.00165  -3.12278
   D15        3.12394  -0.00011  -0.00186   0.00179  -0.00014   3.12380
   D16       -0.01288  -0.00007  -0.00136   0.00183   0.00041  -0.01246
   D17       -2.69838  -0.00264  -0.00846  -0.15754  -0.16599  -2.86436
   D18        0.47215  -0.00243  -0.00542  -0.15924  -0.16467   0.30747
   D19        0.00109   0.00006   0.00012   0.00274   0.00286   0.00395
   D20        3.13472  -0.00001  -0.00072   0.00209   0.00135   3.13608
   D21       -3.13852   0.00001   0.00032  -0.00046  -0.00012  -3.13864
   D22       -0.00489  -0.00006  -0.00051  -0.00111  -0.00163  -0.00652
   D23       -0.01038  -0.00011  -0.00109  -0.00147  -0.00258  -0.01297
   D24        3.12645  -0.00015  -0.00159  -0.00153  -0.00316   3.12330
   D25        3.13916  -0.00003  -0.00026  -0.00078  -0.00103   3.13812
   D26       -0.00719  -0.00007  -0.00076  -0.00084  -0.00161  -0.00880
         Item               Value     Threshold  Converged?
 Maximum Force            0.006993     0.000450     NO 
 RMS     Force            0.002142     0.000300     NO 
 Maximum Displacement     0.202454     0.001800     NO 
 RMS     Displacement     0.032150     0.001200     NO 
 Predicted change in Energy=-1.074705D-03
 GradGradGradGradGradGradGradGradGradGradGradGradGradGradGradGradGradGrad

                          Input orientation:                          
 ---------------------------------------------------------------------
 Center     Atomic      Atomic             Coordinates (Angstroms)
 Number     Number       Type             X           Y           Z
 ---------------------------------------------------------------------
      1          6           0       -2.030719   -0.238541   -0.101473
      2          6           0       -2.704820    0.962111    0.104743
      3          6           0       -0.633755   -0.246707   -0.161180
      4          6           0       -1.984527    2.160258    0.257484
      5          6           0       -0.580370    2.143019    0.195567
      6          6           0        0.092971    0.943074   -0.021113
      7          1           0       -0.023083    3.068391    0.308231
      8          1           0        1.179339    0.929643   -0.086474
      9          8           0       -0.025932   -1.451906   -0.396005
     10          1           0        0.918519   -1.405590   -0.174460
     11          1           0       -2.570331   -1.173997   -0.214484
     12          1           0       -3.789687    0.975392    0.155532
     13          6           0       -2.675718    3.389677    0.475849
     14          7           0       -3.238570    4.394078    0.654767
 ---------------------------------------------------------------------
                    Distance matrix (angstroms):
                    1          2          3          4          5
     1  C    0.000000
     2  C    1.392300   0.000000
     3  C    1.398264   2.412730   0.000000
     4  C    2.425947   1.406310   2.791656   0.000000
     5  C    2.804206   2.432300   2.416797   1.405627   0.000000
     6  C    2.431611   2.800685   1.401188   2.423871   1.392914
     7  H    3.890278   3.416070   3.403402   2.162069   1.086083
     8  H    3.416043   3.888998   2.162565   3.412149   2.156015
     9  O    2.361816   3.640696   1.370071   4.160633   3.685220
    10  H    3.172592   4.337343   1.937199   4.618389   3.869911
    11  H    1.085832   2.164012   2.147798   3.418066   3.889818
    12  H    2.152591   1.086136   3.399079   2.161690   3.415358
    13  C    3.730052   2.455940   4.218851   1.427200   2.454220
    14  N    4.846850   3.516506   5.384024   2.592376   3.513426
                    6          7          8          9         10
     6  C    0.000000
     7  H    2.153813   0.000000
     8  H    1.088415   2.485126   0.000000
     9  O    2.427058   4.574827   2.687055   0.000000
    10  H    2.494246   4.597403   2.351400   0.971193   0.000000
    11  H    3.407720   4.975898   4.301362   2.565960   3.496758
    12  H    3.886809   4.311759   4.975125   4.512407   5.286319
    13  C    3.728066   2.677273   4.607541   5.587702   6.027937
    14  N    4.844111   3.495267   5.663008   6.752828   7.183673
                   11         12         13         14
    11  H    0.000000
    12  H    2.498722   0.000000
    13  C    4.616793   2.678115   0.000000
    14  N    5.674997   3.498625   1.165176   0.000000
 Stoichiometry    C7H5NO
 Framework group  C1[X(C7H5NO)]
 Deg. of freedom    36
 Full point group                 C1      NOp   1
 Largest Abelian subgroup         C1      NOp   1
 Largest concise Abelian subgroup C1      NOp   1
                         Standard orientation:                         
 ---------------------------------------------------------------------
 Center     Atomic      Atomic             Coordinates (Angstroms)
 Number     Number       Type             X           Y           Z
 ---------------------------------------------------------------------
      1          6           0       -1.009959    1.226197    0.002676
      2          6           0        0.382315    1.218670   -0.001362
      3          6           0       -1.708767    0.015078    0.001846
      4          6           0        1.082843   -0.000743   -0.001028
      5          6           0        0.372392   -1.213609   -0.002385
      6          6           0       -1.020482   -1.205364   -0.008821
      7          1           0        0.912157   -2.156055   -0.007326
      8          1           0       -1.572856   -2.143018   -0.027101
      9          8           0       -3.076868    0.083685   -0.024395
     10          1           0       -3.465281   -0.770518    0.225983
     11          1           0       -1.567081    2.158184    0.009508
     12          1           0        0.931629    2.155649    0.002608
     13          6           0        2.510022   -0.007908    0.001920
     14          7           0        3.675171   -0.015378    0.004917
 ---------------------------------------------------------------------
 Rotational constants (GHZ):      5.5891539      0.9868669      0.8389396
 Standard basis: 6-31+G(d) (6D, 7F)
 There are   181 symmetry adapted cartesian basis functions of A   symmetry.
 There are   181 symmetry adapted basis functions of A   symmetry.
   181 basis functions,   308 primitive gaussians,   181 cartesian basis functions
    31 alpha electrons       31 beta electrons
       nuclear repulsion energy       374.5844424755 Hartrees.
 NAtoms=   14 NActive=   14 NUniq=   14 SFac= 1.00D+00 NAtFMM=   60 NAOKFM=F Big=F
 Integral buffers will be    131072 words long.
 Raffenetti 2 integral format.
 Two-electron integral symmetry is turned on.
 Nuclear repulsion after empirical dispersion term =      374.5760613581 Hartrees.
 One-electron integrals computed using PRISM.
 NBasis=   181 RedAO= T EigKep=  4.11D-06  NBF=   181
 NBsUse=   181 1.00D-06 EigRej= -1.00D+00 NBFU=   181
 Initial guess from the checkpoint file:  "C:\Users\vivek\Downloads\molecule_34.chk"
 B after Tr=     0.000000    0.000000    0.000000
         Rot=    1.000000   -0.000205    0.000043    0.000107 Ang=  -0.03 deg.
 ExpMin= 4.38D-02 ExpMax= 5.48D+03 ExpMxC= 8.25D+02 IAcc=2 IRadAn=         4 AccDes= 0.00D+00
 Harris functional with IExCor=  402 and IRadAn=       4 diagonalized for initial guess.
 HarFok:  IExCor=  402 AccDes= 0.00D+00 IRadAn=         4 IDoV= 1 UseB2=F ITyADJ=14
 ICtDFT=  3500011 ScaDFX=  1.000000  1.000000  1.000000  1.000000
 FoFCou: FMM=F IPFlag=           0 FMFlag=      100000 FMFlg1=           0
         NFxFlg=           0 DoJE=T BraDBF=F KetDBF=T FulRan=T
         wScrn=  0.000000 ICntrl=     500 IOpCl=  0 I1Cent=   200000004 NGrid=           0
         NMat0=    1 NMatS0=      1 NMatT0=    0 NMatD0=    1 NMtDS0=    0 NMtDT0=    0
 Petite list used in FoFCou.
 Keep R1 ints in memory in canonical form, NReq=138788980.
 Requested convergence on RMS density matrix=1.00D-08 within 128 cycles.
 Requested convergence on MAX density matrix=1.00D-06.
 Requested convergence on             energy=1.00D-06.
 No special actions if energy rises.
 SCF Done:  E(RB3LYP) =  -399.735677448     A.U. after   13 cycles
            NFock= 13  Conv=0.23D-08     -V/T= 2.0097
 Calling FoFJK, ICntrl=      2127 FMM=F ISym2X=0 I1Cent= 0 IOpClX= 0 NMat=1 NMatS=1 NMatT=0.
 ***** Axes restored to original set *****
 -------------------------------------------------------------------
 Center     Atomic                   Forces (Hartrees/Bohr)
 Number     Number              X              Y              Z
 -------------------------------------------------------------------
      1        6          -0.003108730    0.001592911   -0.000200520
      2        6           0.001065574   -0.003388546   -0.000351018
      3        6           0.003815042   -0.002962400   -0.002006049
      4        6           0.001187248   -0.000735773   -0.000092565
      5        6           0.001068384   -0.001676474   -0.000501750
      6        6          -0.000287585    0.001574636    0.001243757
      7        1          -0.000244763   -0.000309872   -0.000019229
      8        1          -0.000472539    0.000166629    0.000179436
      9        8          -0.001416769    0.001070058    0.003396358
     10        1          -0.000500784    0.000671430   -0.002176531
     11        1           0.000365912    0.000331339   -0.000026471
     12        1           0.000443336    0.000054900   -0.000074800
     13        6          -0.002646895    0.004989427    0.000883574
     14        7           0.000732570   -0.001378267   -0.000254193
 -------------------------------------------------------------------
 Cartesian Forces:  Max     0.004989427 RMS     0.001681886

 GradGradGradGradGradGradGradGradGradGradGradGradGradGradGradGradGradGrad
 Berny optimization.
 Using GEDIIS/GDIIS optimizer.
 FormGI is forming the generalized inverse of G from B-inverse, IUseBI=4.
 Internal  Forces:  Max     0.004134133 RMS     0.000917573
 Search for a local minimum.
 Step number   3 out of a maximum of   71
 All quantities printed in internal units (Hartrees-Bohrs-Radians)
 Mixed Optimization -- En-DIIS/RFO-DIIS
 Update second derivatives using D2CorX and points    1    2    3
 DE= -1.28D-03 DEPred=-1.07D-03 R= 1.19D+00
 TightC=F SS=  1.41D+00  RLast= 2.44D-01 DXNew= 8.4853D-01 7.3317D-01
 Trust test= 1.19D+00 RLast= 2.44D-01 DXMaxT set to 7.33D-01
 ITU=  1  1  0
 Use linear search instead of GDIIS.
     Eigenvalues ---    0.00812   0.01953   0.02070   0.02070   0.02070
     Eigenvalues ---    0.02070   0.02070   0.02070   0.02071   0.02083
     Eigenvalues ---    0.05044   0.05045   0.15939   0.15999   0.16000
     Eigenvalues ---    0.16003   0.16810   0.22034   0.22329   0.23246
     Eigenvalues ---    0.25000   0.25291   0.35002   0.37207   0.37230
     Eigenvalues ---    0.37232   0.37613   0.38996   0.41298   0.41717
     Eigenvalues ---    0.45327   0.45389   0.45881   0.46875   0.56009
     Eigenvalues ---    1.38403
 RFO step:  Lambda=-5.93385197D-04 EMin= 8.12474239D-03
 Quartic linear search produced a step of  0.44065.
 Iteration  1 RMS(Cart)=  0.03570559 RMS(Int)=  0.00394165
 Iteration  2 RMS(Cart)=  0.00385019 RMS(Int)=  0.00003462
 Iteration  3 RMS(Cart)=  0.00003607 RMS(Int)=  0.00001853
 Iteration  4 RMS(Cart)=  0.00000000 RMS(Int)=  0.00001853
 Variable       Old X    -DE/DX   Delta X   Delta X   Delta X     New X
                                 (Linear)    (Quad)   (Total)
    R1        2.63107  -0.00192  -0.00048  -0.00637  -0.00685   2.62422
    R2        2.64234   0.00149   0.00382   0.00209   0.00591   2.64824
    R3        2.05192  -0.00046   0.00074  -0.00054   0.00021   2.05213
    R4        2.65754   0.00144   0.00439   0.00239   0.00678   2.66433
    R5        2.05250  -0.00045   0.00111  -0.00064   0.00047   2.05297
    R6        2.64786   0.00060   0.00106   0.00122   0.00227   2.65013
    R7        2.58906  -0.00259  -0.01061  -0.00872  -0.01933   2.56973
    R8        2.65625   0.00048   0.00477  -0.00076   0.00402   2.66027
    R9        2.69702   0.00413  -0.01470   0.01670   0.00201   2.69903
   R10        2.63223  -0.00102  -0.00007  -0.00385  -0.00392   2.62831
   R11        2.05240  -0.00039   0.00086  -0.00031   0.00055   2.05295
   R12        2.05681  -0.00048   0.00170  -0.00087   0.00083   2.05763
   R13        1.83529  -0.00095   0.00170  -0.00211  -0.00041   1.83488
   R14        2.20186  -0.00158   0.00271  -0.00111   0.00160   2.20346
    A1        2.08872   0.00024   0.00275  -0.00051   0.00224   2.09095
    A2        2.11499   0.00004   0.00297   0.00010   0.00308   2.11807
    A3        2.07947  -0.00028  -0.00573   0.00041  -0.00532   2.07416
    A4        2.09764   0.00077   0.00338   0.00273   0.00612   2.10376
    A5        2.09563  -0.00033   0.00105  -0.00226  -0.00121   2.09442
    A6        2.08989  -0.00044  -0.00444  -0.00045  -0.00489   2.08500
    A7        2.10475  -0.00081  -0.00448  -0.00143  -0.00595   2.09880
    A8        2.04394  -0.00049  -0.00170  -0.00405  -0.00577   2.03817
    A9        2.13410   0.00130   0.00616   0.00586   0.01200   2.14610
   A10        2.09026  -0.00121  -0.00811  -0.00274  -0.01084   2.07943
   A11        2.09726   0.00071   0.00406   0.00194   0.00599   2.10325
   A12        2.09566   0.00051   0.00405   0.00080   0.00485   2.10051
   A13        2.09476   0.00071   0.00517   0.00126   0.00644   2.10120
   A14        2.09158  -0.00041  -0.00442  -0.00018  -0.00461   2.08697
   A15        2.09680  -0.00030  -0.00075  -0.00104  -0.00180   2.09501
   A16        2.09015   0.00031   0.00128   0.00077   0.00206   2.09221
   A17        2.09577   0.00003  -0.00237   0.00209  -0.00029   2.09549
   A18        2.09725  -0.00034   0.00109  -0.00286  -0.00177   2.09548
   A19        1.92877  -0.00021   0.01621  -0.00968   0.00652   1.93530
   A20        3.14298  -0.00008   0.00057  -0.00231  -0.00174   3.14124
   A21        3.14096   0.00002  -0.00014   0.00057   0.00043   3.14139
    D1       -0.00430   0.00001   0.00014   0.00073   0.00089  -0.00341
    D2       -3.13803  -0.00004   0.00060  -0.00308  -0.00248  -3.14051
    D3        3.13403   0.00002  -0.00157   0.00263   0.00108   3.13511
    D4        0.00030  -0.00003  -0.00111  -0.00119  -0.00229  -0.00199
    D5       -0.00482   0.00006  -0.00001   0.00428   0.00426  -0.00056
    D6       -3.11670  -0.00015   0.00037  -0.00967  -0.00922  -3.12592
    D7        3.13997   0.00005   0.00166   0.00242   0.00405  -3.13916
    D8        0.02809  -0.00016   0.00205  -0.01153  -0.00943   0.01866
    D9        0.00474  -0.00003  -0.00077  -0.00180  -0.00258   0.00216
   D10       -3.13585  -0.00003   0.00054  -0.00246  -0.00193  -3.13777
   D11        3.13850   0.00002  -0.00121   0.00199   0.00079   3.13929
   D12       -0.00209   0.00002   0.00011   0.00133   0.00144  -0.00065
   D13        0.01349  -0.00012   0.00048  -0.00819  -0.00770   0.00578
   D14       -3.12278  -0.00013   0.00073  -0.00951  -0.00879  -3.13157
   D15        3.12380   0.00008  -0.00006   0.00631   0.00631   3.13011
   D16       -0.01246   0.00006   0.00018   0.00500   0.00522  -0.00724
   D17       -2.86436  -0.00174  -0.07314  -0.12290  -0.19601  -3.06038
   D18        0.30747  -0.00192  -0.07256  -0.13696  -0.20955   0.09792
   D19        0.00395  -0.00002   0.00126  -0.00211  -0.00086   0.00310
   D20        3.13608   0.00005   0.00060   0.00296   0.00356   3.13964
   D21       -3.13864  -0.00002  -0.00005  -0.00145  -0.00151  -3.14015
   D22       -0.00652   0.00005  -0.00072   0.00362   0.00291  -0.00361
   D23       -0.01297   0.00009  -0.00114   0.00705   0.00593  -0.00704
   D24        3.12330   0.00011  -0.00139   0.00839   0.00702   3.13032
   D25        3.13812   0.00002  -0.00046   0.00196   0.00151   3.13963
   D26       -0.00880   0.00004  -0.00071   0.00330   0.00260  -0.00620
         Item               Value     Threshold  Converged?
 Maximum Force            0.004134     0.000450     NO 
 RMS     Force            0.000918     0.000300     NO 
 Maximum Displacement     0.236245     0.001800     NO 
 RMS     Displacement     0.036613     0.001200     NO 
 Predicted change in Energy=-5.056872D-04
 GradGradGradGradGradGradGradGradGradGradGradGradGradGradGradGradGradGrad

                          Input orientation:                          
 ---------------------------------------------------------------------
 Center     Atomic      Atomic             Coordinates (Angstroms)
 Number     Number       Type             X           Y           Z
 ---------------------------------------------------------------------
      1          6           0       -2.031362   -0.240346   -0.088174
      2          6           0       -2.702780    0.959569    0.106300
      3          6           0       -0.631006   -0.254440   -0.140092
      4          6           0       -1.986875    2.164893    0.256275
      5          6           0       -0.580356    2.137924    0.203807
      6          6           0        0.093354    0.937852    0.002861
      7          1           0       -0.021756    3.062817    0.316700
      8          1           0        1.180970    0.924677   -0.047323
      9          8           0       -0.037869   -1.459659   -0.351753
     10          1           0        0.928716   -1.383685   -0.299476
     11          1           0       -2.569123   -1.177222   -0.199284
     12          1           0       -3.788267    0.974080    0.148083
     13          6           0       -2.677912    3.397989    0.460910
     14          7           0       -3.242417    4.404456    0.628148
 ---------------------------------------------------------------------
                    Distance matrix (angstroms):
                    1          2          3          4          5
     1  C    0.000000
     2  C    1.388675   0.000000
     3  C    1.401389   2.413871   0.000000
     4  C    2.430185   1.409901   2.801545   0.000000
     5  C    2.801222   2.429550   2.417486   1.407755   0.000000
     6  C    2.431226   2.798131   1.402388   2.428415   1.390841
     7  H    3.887587   3.414061   3.403533   2.161391   1.086373
     8  H    3.417313   3.886944   2.163834   3.415486   2.153441
     9  O    2.351641   3.628254   1.359840   4.160012   3.680427
    10  H    3.180242   4.340882   1.932183   4.626222   3.864237
    11  H    1.085941   2.162665   2.147400   3.422905   3.886885
    12  H    2.148805   1.086387   3.400088   2.162118   3.412964
    13  C    3.735907   2.464196   4.229806   1.428263   2.460407
    14  N    4.853242   3.525731   5.395828   2.594286   3.521902
                    6          7          8          9         10
     6  C    0.000000
     7  H    2.151098   0.000000
     8  H    1.088853   2.480062   0.000000
     9  O    2.427144   4.571639   2.695051   0.000000
    10  H    2.485714   4.588513   2.335754   0.970975   0.000000
    11  H    3.406345   4.973254   4.301659   2.551522   3.505359
    12  H    3.884505   4.310204   4.973322   4.498712   5.292381
    13  C    3.733898   2.681101   4.611566   5.588111   6.037413
    14  N    4.851360   3.502806   5.668463   6.754049   7.194540
                   11         12         13         14
    11  H    0.000000
    12  H    2.497014   0.000000
    13  C    4.623878   2.684415   0.000000
    14  N    5.682702   3.506550   1.166023   0.000000
 Stoichiometry    C7H5NO
 Framework group  C1[X(C7H5NO)]
 Deg. of freedom    36
 Full point group                 C1      NOp   1
 Largest Abelian subgroup         C1      NOp   1
 Largest concise Abelian subgroup C1      NOp   1
                         Standard orientation:                         
 ---------------------------------------------------------------------
 Center     Atomic      Atomic             Coordinates (Angstroms)
 Number     Number       Type             X           Y           Z
 ---------------------------------------------------------------------
      1          6           0       -1.012230    1.224168    0.003203
      2          6           0        0.376421    1.217048   -0.000985
      3          6           0       -1.714972    0.011713    0.003530
      4          6           0        1.086541   -0.000962   -0.000780
      5          6           0        0.369627   -1.212492    0.001073
      6          6           0       -1.021201   -1.207038   -0.001034
      7          1           0        0.909702   -2.155106   -0.000605
      8          1           0       -1.570329   -2.147237   -0.010212
      9          8           0       -3.072454    0.090378   -0.011290
     10          1           0       -3.471129   -0.791790    0.063738
     11          1           0       -1.572536    2.154378    0.009109
     12          1           0        0.924460    2.155072   -0.000232
     13          6           0        2.514789   -0.007550   -0.000391
     14          7           0        3.680801   -0.012524    0.000119
 ---------------------------------------------------------------------
 Rotational constants (GHZ):      5.5955166      0.9854159      0.8378797
 Standard basis: 6-31+G(d) (6D, 7F)
 There are   181 symmetry adapted cartesian basis functions of A   symmetry.
 There are   181 symmetry adapted basis functions of A   symmetry.
   181 basis functions,   308 primitive gaussians,   181 cartesian basis functions
    31 alpha electrons       31 beta electrons
       nuclear repulsion energy       374.5774051830 Hartrees.
 NAtoms=   14 NActive=   14 NUniq=   14 SFac= 1.00D+00 NAtFMM=   60 NAOKFM=F Big=F
 Integral buffers will be    131072 words long.
 Raffenetti 2 integral format.
 Two-electron integral symmetry is turned on.
 Nuclear repulsion after empirical dispersion term =      374.5690416746 Hartrees.
 One-electron integrals computed using PRISM.
 NBasis=   181 RedAO= T EigKep=  4.09D-06  NBF=   181
 NBsUse=   181 1.00D-06 EigRej= -1.00D+00 NBFU=   181
 Initial guess from the checkpoint file:  "C:\Users\vivek\Downloads\molecule_34.chk"
 B after Tr=     0.000000    0.000000    0.000000
         Rot=    1.000000   -0.000073    0.000006   -0.000173 Ang=  -0.02 deg.
 ExpMin= 4.38D-02 ExpMax= 5.48D+03 ExpMxC= 8.25D+02 IAcc=2 IRadAn=         4 AccDes= 0.00D+00
 Harris functional with IExCor=  402 and IRadAn=       4 diagonalized for initial guess.
 HarFok:  IExCor=  402 AccDes= 0.00D+00 IRadAn=         4 IDoV= 1 UseB2=F ITyADJ=14
 ICtDFT=  3500011 ScaDFX=  1.000000  1.000000  1.000000  1.000000
 FoFCou: FMM=F IPFlag=           0 FMFlag=      100000 FMFlg1=           0
         NFxFlg=           0 DoJE=T BraDBF=F KetDBF=T FulRan=T
         wScrn=  0.000000 ICntrl=     500 IOpCl=  0 I1Cent=   200000004 NGrid=           0
         NMat0=    1 NMatS0=      1 NMatT0=    0 NMatD0=    1 NMtDS0=    0 NMtDT0=    0
 Petite list used in FoFCou.
 Keep R1 ints in memory in canonical form, NReq=138788980.
 Requested convergence on RMS density matrix=1.00D-08 within 128 cycles.
 Requested convergence on MAX density matrix=1.00D-06.
 Requested convergence on             energy=1.00D-06.
 No special actions if energy rises.
 SCF Done:  E(RB3LYP) =  -399.736214503     A.U. after   12 cycles
            NFock= 12  Conv=0.92D-08     -V/T= 2.0097
 Calling FoFJK, ICntrl=      2127 FMM=F ISym2X=0 I1Cent= 0 IOpClX= 0 NMat=1 NMatS=1 NMatT=0.
 ***** Axes restored to original set *****
 -------------------------------------------------------------------
 Center     Atomic                   Forces (Hartrees/Bohr)
 Number     Number              X              Y              Z
 -------------------------------------------------------------------
      1        6          -0.000275370   -0.000025382    0.000082895
      2        6          -0.000809113    0.000982701    0.000494435
      3        6          -0.001232797    0.002780068   -0.000723288
      4        6           0.002816154   -0.003830490   -0.000547517
      5        6          -0.001453783    0.001705003    0.000130043
      6        6           0.000660397   -0.001057766    0.000166020
      7        1          -0.000081809   -0.000474565   -0.000067357
      8        1          -0.000560725    0.000181052    0.000220376
      9        8           0.002351939   -0.003072253    0.000802517
     10        1          -0.000667407    0.000343316   -0.000646242
     11        1          -0.000013960    0.000582220   -0.000129429
     12        1           0.000452349   -0.000112527   -0.000077363
     13        6          -0.002832863    0.004869854    0.000775090
     14        7           0.001646990   -0.002871230   -0.000480178
 -------------------------------------------------------------------
 Cartesian Forces:  Max     0.004869854 RMS     0.001562798

 GradGradGradGradGradGradGradGradGradGradGradGradGradGradGradGradGradGrad
 Berny optimization.
 Using GEDIIS/GDIIS optimizer.
 FormGI is forming the generalized inverse of G from B-inverse, IUseBI=4.
 Internal  Forces:  Max     0.003344558 RMS     0.000762170
 Search for a local minimum.
 Step number   4 out of a maximum of   71
 All quantities printed in internal units (Hartrees-Bohrs-Radians)
 Mixed Optimization -- En-DIIS/RFO-DIIS
 Swapping is turned off.
 Update second derivatives using D2CorX and points    2    3    4
 DE= -5.37D-04 DEPred=-5.06D-04 R= 1.06D+00
 TightC=F SS=  1.41D+00  RLast= 2.90D-01 DXNew= 1.2330D+00 8.6973D-01
 Trust test= 1.06D+00 RLast= 2.90D-01 DXMaxT set to 8.70D-01
 ITU=  1  1  1  0
     Eigenvalues ---    0.00682   0.01959   0.02070   0.02070   0.02070
     Eigenvalues ---    0.02070   0.02070   0.02070   0.02072   0.02096
     Eigenvalues ---    0.05044   0.05046   0.15975   0.16000   0.16002
     Eigenvalues ---    0.16025   0.17009   0.22033   0.23084   0.24544
     Eigenvalues ---    0.25001   0.25260   0.34793   0.37229   0.37230
     Eigenvalues ---    0.37238   0.38620   0.41006   0.41295   0.43180
     Eigenvalues ---    0.45341   0.45460   0.45838   0.47230   0.56034
     Eigenvalues ---    1.40167
 En-DIIS/RFO-DIIS IScMMF=        0 using points:     4    3
 RFO step:  Lambda=-5.23546290D-05.
 DidBck=F Rises=F RFO-DIIS coefs:    1.18422   -0.18422
 Iteration  1 RMS(Cart)=  0.01229905 RMS(Int)=  0.00051992
 Iteration  2 RMS(Cart)=  0.00054207 RMS(Int)=  0.00000938
 Iteration  3 RMS(Cart)=  0.00000075 RMS(Int)=  0.00000937
 Variable       Old X    -DE/DX   Delta X   Delta X   Delta X     New X
                                 (Linear)    (Quad)   (Total)
    R1        2.62422  -0.00009  -0.00126   0.00058  -0.00068   2.62353
    R2        2.64824   0.00048   0.00109   0.00107   0.00216   2.65040
    R3        2.05213  -0.00048   0.00004  -0.00096  -0.00093   2.05121
    R4        2.66433  -0.00088   0.00125  -0.00234  -0.00110   2.66323
    R5        2.05297  -0.00046   0.00009  -0.00085  -0.00076   2.05221
    R6        2.65013  -0.00026   0.00042  -0.00069  -0.00027   2.64986
    R7        2.56973   0.00313  -0.00356   0.00809   0.00453   2.57425
    R8        2.66027  -0.00147   0.00074  -0.00331  -0.00257   2.65770
    R9        2.69903   0.00234   0.00037   0.00311   0.00348   2.70250
   R10        2.62831   0.00048  -0.00072   0.00159   0.00087   2.62918
   R11        2.05295  -0.00045   0.00010  -0.00090  -0.00080   2.05215
   R12        2.05763  -0.00057   0.00015  -0.00108  -0.00093   2.05671
   R13        1.83488  -0.00067  -0.00008  -0.00070  -0.00078   1.83410
   R14        2.20346  -0.00334   0.00029  -0.00207  -0.00177   2.20169
    A1        2.09095   0.00002   0.00041   0.00054   0.00096   2.09191
    A2        2.11807  -0.00030   0.00057  -0.00183  -0.00127   2.11680
    A3        2.07416   0.00028  -0.00098   0.00130   0.00032   2.07447
    A4        2.10376  -0.00032   0.00113  -0.00205  -0.00093   2.10283
    A5        2.09442   0.00005  -0.00022   0.00050   0.00027   2.09470
    A6        2.08500   0.00028  -0.00090   0.00157   0.00066   2.08566
    A7        2.09880  -0.00030  -0.00110  -0.00061  -0.00173   2.09707
    A8        2.03817   0.00084  -0.00106   0.00347   0.00236   2.04053
    A9        2.14610  -0.00053   0.00221  -0.00268  -0.00051   2.14559
   A10        2.07943   0.00085  -0.00200   0.00351   0.00151   2.08094
   A11        2.10325  -0.00047   0.00110  -0.00203  -0.00092   2.10232
   A12        2.10051  -0.00038   0.00089  -0.00148  -0.00059   2.09992
   A13        2.10120  -0.00027   0.00119  -0.00158  -0.00039   2.10080
   A14        2.08697   0.00032  -0.00085   0.00189   0.00104   2.08801
   A15        2.09501  -0.00004  -0.00033  -0.00030  -0.00064   2.09437
   A16        2.09221   0.00002   0.00038   0.00022   0.00061   2.09281
   A17        2.09549   0.00020  -0.00005   0.00087   0.00081   2.09630
   A18        2.09548  -0.00021  -0.00033  -0.00108  -0.00141   2.09407
   A19        1.93530  -0.00050   0.00120  -0.00112   0.00008   1.93538
   A20        3.14124   0.00007  -0.00032   0.00198   0.00166   3.14291
   A21        3.14139   0.00000   0.00008  -0.00006   0.00002   3.14140
    D1       -0.00341   0.00006   0.00016   0.00250   0.00266  -0.00075
    D2       -3.14051  -0.00003  -0.00046  -0.00087  -0.00133   3.14135
    D3        3.13511   0.00009   0.00020   0.00362   0.00382   3.13894
    D4       -0.00199   0.00000  -0.00042   0.00026  -0.00016  -0.00215
    D5       -0.00056   0.00002   0.00078   0.00065   0.00143   0.00087
    D6       -3.12592  -0.00026  -0.00170  -0.01148  -0.01317  -3.13910
    D7       -3.13916   0.00000   0.00075  -0.00044   0.00030  -3.13886
    D8        0.01866  -0.00028  -0.00174  -0.01257  -0.01430   0.00436
    D9        0.00216  -0.00005  -0.00047  -0.00210  -0.00257  -0.00041
   D10       -3.13777  -0.00007  -0.00035  -0.00279  -0.00314  -3.14092
   D11        3.13929   0.00003   0.00015   0.00125   0.00139   3.14068
   D12       -0.00065   0.00002   0.00027   0.00056   0.00082   0.00017
   D13        0.00578  -0.00011  -0.00142  -0.00420  -0.00561   0.00017
   D14       -3.13157  -0.00017  -0.00162  -0.00678  -0.00839  -3.13996
   D15        3.13011   0.00020   0.00116   0.00877   0.00993   3.14004
   D16       -0.00724   0.00014   0.00096   0.00619   0.00715  -0.00009
   D17       -3.06038  -0.00043  -0.03611  -0.03140  -0.06749  -3.12787
   D18        0.09792  -0.00072  -0.03860  -0.04391  -0.08253   0.01539
   D19        0.00310  -0.00004  -0.00016  -0.00148  -0.00163   0.00146
   D20        3.13964   0.00005   0.00066   0.00190   0.00256  -3.14099
   D21       -3.14015  -0.00002  -0.00028  -0.00079  -0.00107  -3.14122
   D22       -0.00361   0.00006   0.00054   0.00259   0.00313  -0.00048
   D23       -0.00704   0.00012   0.00109   0.00460   0.00569  -0.00135
   D24        3.13032   0.00018   0.00129   0.00718   0.00848   3.13879
   D25        3.13963   0.00003   0.00028   0.00119   0.00148   3.14111
   D26       -0.00620   0.00009   0.00048   0.00378   0.00426  -0.00194
         Item               Value     Threshold  Converged?
 Maximum Force            0.003345     0.000450     NO 
 RMS     Force            0.000762     0.000300     NO 
 Maximum Displacement     0.077295     0.001800     NO 
 RMS     Displacement     0.012265     0.001200     NO 
 Predicted change in Energy=-7.438195D-05
 GradGradGradGradGradGradGradGradGradGradGradGradGradGradGradGradGradGrad

                          Input orientation:                          
 ---------------------------------------------------------------------
 Center     Atomic      Atomic             Coordinates (Angstroms)
[...]
         Item               Value     Threshold  Converged?
 Maximum Force            0.000044     0.000450     YES
 RMS     Force            0.000010     0.000300     YES
 Maximum Displacement     0.001500     0.001800     YES
 RMS     Displacement     0.000254     0.001200     YES
 Predicted change in Energy=-3.635200D-08
 Optimization completed.
    -- Stationary point found.
                           ----------------------------
                           !   Optimized Parameters   !
                           ! (Angstroms and Degrees)  !
 --------------------------                            --------------------------
 ! Name  Definition              Value          Derivative Info.                !
 --------------------------------------------------------------------------------
 ! R1    R(1,2)                  1.3888         -DE/DX =    0.0                 !
 ! R2    R(1,3)                  1.4016         -DE/DX =    0.0                 !
 ! R3    R(1,11)                 1.0852         -DE/DX =    0.0                 !
 ! R4    R(2,4)                  1.4086         -DE/DX =    0.0                 !
 ! R5    R(2,12)                 1.0856         -DE/DX =    0.0                 !
 ! R6    R(3,6)                  1.4017         -DE/DX =    0.0                 !
 ! R7    R(3,9)                  1.3641         -DE/DX =    0.0                 !
 ! R8    R(4,5)                  1.4053         -DE/DX =    0.0                 !
 ! R9    R(4,13)                 1.4323         -DE/DX =    0.0                 !
 ! R10   R(5,6)                  1.392          -DE/DX =    0.0                 !
 ! R11   R(5,7)                  1.0856         -DE/DX =    0.0                 !
 ! R12   R(6,8)                  1.088          -DE/DX =    0.0                 !
 ! R13   R(9,10)                 0.9703         -DE/DX =    0.0                 !
 ! R14   R(13,14)                1.1644         -DE/DX =    0.0                 !
 ! A1    A(2,1,3)              119.7924         -DE/DX =    0.0                 !
 ! A2    A(2,1,11)             121.229          -DE/DX =    0.0                 !
 ! A3    A(3,1,11)             118.9785         -DE/DX =    0.0                 !
 ! A4    A(1,2,4)              120.4058         -DE/DX =    0.0                 !
 ! A5    A(1,2,12)             119.999          -DE/DX =    0.0                 !
 ! A6    A(4,2,12)             119.5951         -DE/DX =    0.0                 !
 ! A7    A(1,3,6)              120.2736         -DE/DX =    0.0                 !
 ! A8    A(1,3,9)              116.9206         -DE/DX =    0.0                 !
 ! A9    A(6,3,9)              122.8058         -DE/DX =    0.0                 !
 ! A10   A(2,4,5)              119.4017         -DE/DX =    0.0                 !
 ! A11   A(2,4,13)             120.3546         -DE/DX =    0.0                 !
 ! A12   A(5,4,13)             120.2437         -DE/DX =    0.0                 !
 ! A13   A(4,5,6)              120.254          -DE/DX =    0.0                 !
 ! A14   A(4,5,7)              119.7572         -DE/DX =    0.0                 !
 ! A15   A(6,5,7)              119.9888         -DE/DX =    0.0                 !
 ! A16   A(3,6,5)              119.8724         -DE/DX =    0.0                 !
 ! A17   A(3,6,8)              120.1811         -DE/DX =    0.0                 !
 ! A18   A(5,6,8)              119.9464         -DE/DX =    0.0                 !
 ! A19   A(3,9,10)             110.5694         -DE/DX =    0.0                 !
 ! A20   L(4,13,14,12,-1)      180.0403         -DE/DX =    0.0                 !
 ! A21   L(4,13,14,12,-2)      179.9984         -DE/DX =    0.0                 !
 ! D1    D(3,1,2,4)              0.0002         -DE/DX =    0.0                 !
 ! D2    D(3,1,2,12)           179.9933         -DE/DX =    0.0                 !
 ! D3    D(11,1,2,4)          -179.9974         -DE/DX =    0.0                 !
 ! D4    D(11,1,2,12)           -0.0044         -DE/DX =    0.0                 !
 ! D5    D(2,1,3,6)              0.0131         -DE/DX =    0.0                 !
 ! D6    D(2,1,3,9)           -180.0225         -DE/DX =    0.0                 !
 ! D7    D(11,1,3,6)          -179.9891         -DE/DX =    0.0                 !
 ! D8    D(11,1,3,9)            -0.0248         -DE/DX =    0.0                 !
 ! D9    D(1,2,4,5)             -0.0129         -DE/DX =    0.0                 !
 ! D10   D(1,2,4,13)           179.9984         -DE/DX =    0.0                 !
 ! D11   D(12,2,4,5)          -180.006          -DE/DX =    0.0                 !
 ! D12   D(12,2,4,13)            0.0053         -DE/DX =    0.0                 !
 ! D13   D(1,3,6,5)             -0.0137         -DE/DX =    0.0                 !
 ! D14   D(1,3,6,8)            179.9858         -DE/DX =    0.0                 !
 ! D15   D(9,3,6,5)            180.0242         -DE/DX =    0.0                 !
 ! D16   D(9,3,6,8)              0.0236         -DE/DX =    0.0                 !
 ! D17   D(1,3,9,10)          -179.9326         -DE/DX =    0.0                 !
 ! D18   D(6,3,9,10)             0.0307         -DE/DX =    0.0                 !
 ! D19   D(2,4,5,6)              0.0124         -DE/DX =    0.0                 !
 ! D20   D(2,4,5,7)           -179.9901         -DE/DX =    0.0                 !
 ! D21   D(13,4,5,6)          -179.999          -DE/DX =    0.0                 !
 ! D22   D(13,4,5,7)            -0.0015         -DE/DX =    0.0                 !
 ! D23   D(4,5,6,3)              0.0008         -DE/DX =    0.0                 !
 ! D24   D(4,5,6,8)           -179.9987         -DE/DX =    0.0                 !
 ! D25   D(7,5,6,3)           -179.9967         -DE/DX =    0.0                 !
 ! D26   D(7,5,6,8)              0.0038         -DE/DX =    0.0                 !
 --------------------------------------------------------------------------------
 GradGradGradGradGradGradGradGradGradGradGradGradGradGradGradGradGradGrad

 1|1|UNPC-ASUS|Freq|RB3LYP|6-31+G(d)|C7H5N1O1|VIVEK|14-Sep-2023|0||#N G
 eom=AllCheck Guess=TCheck SCRF=Check GenChk RB3LYP/6-31+G(d) Freq||Tit
 le Card Required||0,1|C,-2.0328131937,-0.2409688391,-0.0848281588|C,-2
 .7037156475,0.9594367046,0.1093432807|C,-0.6321719093,-0.2557169831,-0
 .1352076906|C,-1.9851998076,2.162130036,0.2559441558|C,-0.581017066,2.
 1375919885,0.2043219227|C,0.0927125869,0.9351906149,0.0097803143|H,-0.
 0214767191,3.061085663,0.3167862425|H,1.1799132102,0.9219719834,-0.029
 3421707|O,-0.0338205394,-1.4663251527,-0.3278485754|H,0.9315070868,-1.
 3703612408,-0.3464108315|H,-2.5729205492,-1.1752672172,-0.199378349|H,
 -3.7885076982,0.9747504096,0.1488052356|C,-2.6782291348,3.3995052681,0
 .4561115616|N,-3.240942279,4.4058804848,0.6189052626||Version=EM64W-G0
 9RevD.01|State=1-A|HF=-399.7363188|RMSD=5.582e-009|RMSF=1.894e-005|Zer
 oPoint=0.1031893|Thermal=0.1104788|Dipole=1.4537952,-1.4457637,-0.2553
 603|DipoleDeriv=-0.2746691,0.4382249,0.0662682,0.1145448,-0.126491,0.0
 010796,0.0201002,-0.0099037,-0.1638698,0.0907016,0.0219239,-0.0026579,
 -0.059894,0.3183698,0.0583387,-0.0142063,0.0555514,-0.0681001,0.569339
 2,-0.6786226,-0.1117587,-0.6773342,1.3717606,0.2001602,-0.1113019,0.19
 98637,0.1613279,-0.1201533,0.0882916,0.0171472,0.1104279,-0.2353125,-0
 .0391498,0.0202217,-0.0382887,0.0065494,0.2381136,-0.1333793,-0.029709
 9,-0.0988487,0.1486417,0.0351672,-0.0248283,0.0363284,-0.068042,0.0787
 867,-0.1141894,-0.0251869,0.2522552,-0.5031258,-0.0543991,0.0269849,-0
 .0419294,-0.1885749,0.0496491,-0.051055,-0.0042427,-0.0539534,-0.00940
 89,-0.0192024,-0.0046277,-0.0193018,0.1356929,-0.1032777,0.0420816,0.0
 14771,0.0416267,0.0489064,-0.0162491,0.0146918,-0.016262,0.1501011,-0.
 5775457,0.7132548,0.1085311,0.7061022,-1.3744952,-0.1658035,0.1074454,
 -0.1659151,-0.4070746,0.2327457,-0.1192743,-0.0131386,-0.1429673,0.303
 5512,-0.0015799,-0.0166241,-0.0022005,0.3485467,0.0528137,-0.0477668,-
 0.0033888,-0.0411658,-0.0187134,-0.0228866,-0.0024545,-0.022661,0.1487
 149,-0.0406528,0.0006751,0.0062174,0.0077398,0.082962,-0.0079827,0.007
 1783,-0.0077824,0.1358002,0.1840608,-0.3032197,-0.0451064,-0.3063641,0
 .5468799,0.0701042,-0.0455221,0.0699457,0.1402391,-0.3799119,0.1430552
 ,0.0222551,0.1478311,-0.5535246,-0.0375968,0.0229424,-0.0374446,-0.331
 311|Polar=98.9658033,-22.8453531,123.070213,-5.0218844,11.5549233,49.3
 099439|PG=C01 [X(C7H5N1O1)]|NImag=0||0.68186816,0.01758670,0.74716609,
 -0.01675220,0.08842168,0.13553470,-0.18352029,0.12591656,0.02235082,0.
 74477734,0.06636106,-0.30298990,-0.03752487,-0.01937273,0.65865879,0.0
 1386292,-0.03957420,-0.06184605,-0.02376389,0.07541361,0.14568951,-0.3
 1348591,-0.05394245,0.00086311,-0.02168572,0.08225662,0.01243307,0.709
 64113,0.01463219,-0.12234303,-0.00860149,0.03354808,0.03067585,0.00334
 400,0.00610713,0.67265481,0.01061939,-0.00623849,-0.06678858,0.0054884
 0,0.00167521,-0.00088151,-0.01816063,0.07374323,0.16459509,0.05491119,
 -0.01903032,-0.00439159,-0.17477805,-0.06430703,-0.00520065,-0.0535416
 3,-0.03300220,-0.00296053,0.64947927,0.02406184,-0.05561748,-0.0096243
 0,-0.11285318,-0.24399985,-0.02237294,-0.03258024,-0.00938921,0.000187
 10,-0.01344024,0.65306055,0.00175171,-0.00814890,0.00492373,-0.0121176
 8,-0.02404062,-0.06270130,-0.00290151,0.00020150,-0.00274120,-0.019850
 39,0.07539568,0.13860066,-0.04519486,0.02689090,0.00534542,-0.03054518
 ,-0.06952134,-0.00861861,0.07048078,0.02462335,0.00102918,-0.31302380,
 0.01670192,0.01107490,0.67474270,0.02222335,-0.01509356,-0.00274175,-0
 .02669491,0.02874609,0.00401427,-0.02559723,-0.05923966,-0.00728805,-0
 .03184337,-0.11349049,-0.00662447,0.02982668,0.72532496,0.00467401,-0.
 00289694,-0.00181176,-0.00251220,0.00548987,0.00784984,-0.00612704,-0.
 00901828,-0.00298247,0.00415339,-0.00829230,-0.06067081,-0.01437942,0.
 08364464,0.14384065,-0.02142859,-0.02552302,-0.00271277,-0.00177506,0.
 00148941,0.00020468,-0.19500401,-0.12456135,-0.01319992,-0.02460051,0.
 02767501,0.00499889,-0.18023941,0.12474726,0.02211254,0.73738976,-0.06
 170392,0.03137205,0.00580734,-0.00495487,-0.05796881,-0.00779759,-0.05
 143062,-0.24359470,-0.02416205,0.07257210,0.02049213,-0.00043470,0.064
 43713,-0.29382324,-0.03641546,-0.01735235,0.66661026,-0.00786644,0.004
 56410,0.00643526,-0.00071456,-0.00802907,-0.00314294,-0.00278016,-0.02
 166279,-0.06476320,0.01139810,0.00111046,0.00582776,0.01351346,-0.0384
 8160,-0.05987838,-0.02375566,0.07907372,0.12820345,-0.00032592,0.00078
 786,0.00009314,-0.00566198,0.00187891,0.00065902,-0.00145014,0.0029321
 3,0.00073033,-0.01136228,-0.02731441,-0.00338364,-0.13604602,-0.124718
 22,-0.01438833,0.01197287,0.01474763,0.00182375,0.14159334,0.00066934,
 0.00015738,0.00012581,0.00072692,0.00119327,-0.00067608,0.00385571,-0.
 00171943,-0.00147135,0.00281423,0.00458454,0.00005944,-0.12626715,-0.2
 6578956,-0.02827099,-0.01505491,-0.01747801,-0.00252049,0.13337017,0.2
 7868524,0.00007473,0.00012331,-0.00087243,0.00049452,-0.00071598,0.005
 64020,0.00086571,-0.00143871,0.00744601,0.00091282,0.00109180,0.003614
 12,-0.01461042,-0.02832142,-0.04064123,-0.00242563,-0.00354578,0.00339
 685,0.01502774,0.03153907,0.02935119,0.00063816,-0.00327806,-0.0003229
 9,0.00061571,-0.00030886,-0.00008469,-0.01464841,0.00559120,0.00143215
 ,0.00152414,0.00249670,0.00053376,-0.01153163,-0.00139335,0.00027071,-
 0.33489170,0.00066002,0.01046808,0.00084360,0.00029462,-0.00013135,0.3
 5602477,-0.00222857,-0.00459984,-0.00127403,0.00012537,-0.00140509,-0.
 00012358,-0.02681725,0.00339500,0.00085076,0.00182010,-0.00408552,-0.0
 0160337,0.02919028,0.00415025,-0.00071683,0.00034283,-0.05897646,-0.00
 386282,-0.00010929,0.00057694,0.00068776,-0.00224959,0.05869916,-0.000
 17081,-0.00123880,0.00469935,-0.00002250,-0.00010839,-0.00058210,-0.00
 319524,-0.00025925,0.00394751,0.00043718,-0.00162588,0.00647466,0.0046
 3142,0.00032943,0.00205506,0.01042753,-0.00387026,-0.03288133,-0.00018
 903,0.00067348,-0.00411658,-0.01175134,0.00526558,0.02345825,-0.034718
 30,0.05592397,0.00936059,-0.00438044,-0.01189921,-0.00137941,-0.145048
 51,0.10151256,0.01798498,0.00332198,0.00671757,0.00078665,-0.00650392,
 -0.00088427,0.00035651,0.01333622,-0.01168139,-0.00180207,0.00047815,-
 0.00063782,-0.00011670,0.00293390,-0.00095522,-0.00035986,0.65368923,0
 .02001440,-0.00591235,-0.00241238,-0.00459230,0.00229333,-0.00020332,0
 .04889635,-0.26767159,-0.03396837,0.00554875,-0.00572615,-0.00077314,-
 0.00978889,0.00350136,-0.00025158,0.02491031,-0.05363901,-0.00981621,0
 .00102758,-0.00149306,-0.00021038,-0.00016403,0.00324942,0.00099119,-0
 .05399167,0.37417868,0.00426074,-0.00364824,0.00561397,-0.00033906,0.0
 0004724,0.00488225,0.01046911,-0.03570187,-0.04643268,0.00061894,-0.00
 081583,-0.00176562,-0.00091003,-0.00055981,0.00758661,0.00340715,-0.00
 857458,0.00801482,0.00012056,-0.00015198,-0.00029810,-0.00024972,0.001
 01983,-0.00353242,-0.02870207,0.05137953,0.03475588,0.00231834,0.00343
 526,0.00051187,-0.00118147,-0.00041193,0.00004105,-0.02310461,-0.00338
 515,0.00017744,0.00079440,-0.00072460,-0.00012514,-0.00148313,0.000192
 54,0.00005585,0.00535808,-0.00444870,-0.00084676,0.00012213,-0.0002333
 7,-0.00003604,-0.00011768,0.00089341,0.00014926,-0.48509354,-0.0312197
 4,0.01161332,0.50204034,0.00184343,-0.00658971,-0.00143876,0.00139525,
 0.00151527,-0.00007850,0.04650523,0.00068398,-0.00095245,-0.00072128,-
 0.00016173,-0.00002077,0.00028952,-0.00035735,0.00004023,0.00219363,0.
 00169177,0.00029577,-0.00007008,0.00015738,0.00001766,-0.00185517,-0.0
 0133180,-0.00020598,-0.08511321,-0.05126022,-0.00385030,0.03541813,0.0
 5603103,0.00029138,-0.00149744,0.00286174,0.00030090,-0.00001760,0.001
 70717,0.00728832,0.00070795,-0.00372219,-0.00012473,-0.00001927,0.0001
 6192,0.00006698,0.00004333,-0.00071417,0.00010045,0.00052448,-0.000852
 86,-0.00001219,0.00002280,0.00005443,-0.00023975,-0.00029993,0.0005372
 6,0.00392156,-0.00564423,-0.00519298,-0.01156142,0.00610025,0.00620570
 ,-0.13246845,-0.12326975,-0.01418913,0.01262162,0.01493131,0.00177366,
 -0.01109848,-0.02986549,-0.00370019,-0.00085553,0.00319590,0.00072978,
 -0.00091244,0.00103296,0.00015565,-0.00552837,0.00170426,0.00060050,0.
 00009687,-0.00007501,-0.00004050,-0.00071108,-0.00141322,-0.00017568,0
 .00180985,-0.00009755,-0.00018620,0.00046189,0.00018629,-0.00001129,0.
 13539593,-0.12506340,-0.26827093,-0.02900866,-0.01466248,-0.01777177,-
 0.00236490,0.00189898,0.00287889,-0.00037654,0.00359653,-0.00165992,-0
 .00137193,0.00058998,0.00025440,0.00011064,0.00075581,0.00097832,-0.00
 057846,-0.00007962,-0.00002240,0.00010883,0.00016933,0.00029373,0.0000
 2932,0.00002917,0.00079500,0.00057087,-0.00007352,0.00001685,0.0000953
 5,0.13307310,0.28284126,-0.01445445,-0.02907082,-0.03813398,-0.0024415
 7,-0.00338540,0.00197123,0.00083374,0.00072110,0.00513034,0.00078680,-
 0.00135692,0.00687816,0.00009175,0.00009568,-0.00065280,0.00046476,-0.
 00061347,0.00475357,-0.00004103,0.00010881,-0.00075023,0.00005023,0.00
 008397,0.00005704,-0.00016761,0.00057382,-0.00313027,-0.00004816,0.000
 08676,-0.00062102,0.01513208,0.03227534,0.02827965,-0.00970402,-0.0015
 9012,0.00025155,-0.34510502,0.00273072,0.01094731,0.00130302,0.0019388
 0,0.00050781,-0.01080428,0.00244773,0.00083860,0.00043539,-0.00297726,
 -0.00024923,0.00070072,0.00011349,-0.00003187,-0.00055247,0.00015959,0
 .00005752,-0.00006514,0.00001464,-0.00002261,-0.00079457,0.00000852,0.
 00003007,-0.00003020,0.00012215,0.00000715,0.00078638,0.00029048,-0.00
 013969,0.36336725,0.02830221,0.00403220,-0.00099776,0.00416958,-0.0596
 6443,-0.00323583,0.00122557,-0.00424891,-0.00179470,-0.02764308,0.0038
 9875,0.00101340,-0.00194278,-0.00477967,-0.00139965,0.00022215,-0.0008
 6608,-0.00003168,-0.00146268,0.00025090,0.00001981,0.00001669,0.000115
 34,0.00012732,0.00162940,0.00022599,-0.00003107,0.00028520,-0.00039222
 ,-0.00001777,-0.00020546,0.00062168,0.00073453,-0.00350179,0.06009370,
 0.00451545,0.00003066,0.00403958,0.01114771,-0.00318461,-0.03878802,0.
 00040361,-0.00182122,0.00778303,-0.00344770,-0.00002286,0.00356674,-0.
 00010162,-0.00136287,0.00532252,-0.00001755,-0.00002703,-0.00070065,-0
 .00017318,-0.00003576,0.00046344,-0.00002209,0.00012748,-0.00076288,0.
 00026336,0.00002325,0.00005020,0.00003025,-0.00001250,-0.00034053,-0.0
 0021108,0.00071791,-0.00437707,-0.01210490,0.00501697,0.02686228,0.001
 94791,-0.00589496,-0.00068206,0.01566737,0.00026966,-0.00053454,-0.003
 91565,0.00141293,0.00031171,-0.12979182,0.08410491,0.01465958,-0.02493
 056,0.03938058,0.00644098,-0.00597585,-0.00434643,-0.00018414,0.000321
 78,0.00059208,-0.00005659,-0.00059371,0.00148580,0.00026533,0.00198928
 ,-0.00208481,-0.00039161,-0.00028322,-0.00014487,-0.00001295,0.0006762
 6,-0.00078833,-0.00010367,0.00013199,-0.00154653,-0.00034788,0.4518875
 2,-0.00922091,0.00022992,-0.00057953,0.01456793,-0.04841499,-0.0072656
 1,0.00082214,-0.00555054,-0.00072050,0.08396983,-0.23283356,-0.0286553
 7,0.02514235,-0.00907573,-0.00203747,-0.00083153,0.00841946,0.00027068
 ,-0.00165597,0.00071908,0.00069836,-0.00016508,0.00033229,-0.00008474,
 -0.00226947,0.00427818,0.00079581,0.00065675,-0.00014827,-0.00003373,0
 .00074715,-0.00084517,-0.00027800,0.00067934,0.00088656,0.00061216,-0.
 60040856,1.18910567,-0.00115757,-0.00069214,0.00645920,0.00150364,-0.0
 0677379,-0.00196355,0.00022801,-0.00074080,-0.00080414,0.01464184,-0.0
 2866361,-0.05660174,0.00441100,-0.00252578,-0.00134355,0.00031708,0.00
 039084,0.00677062,-0.00037674,0.00062117,-0.00367733,0.00002997,-0.000
 14150,0.00094427,-0.00041696,0.00078855,-0.00063080,0.00010038,-0.0000
 0536,-0.00007876,0.00011524,-0.00022504,0.00088797,-0.00003062,0.00068
 828,-0.00346900,-0.09820190,0.17806143,0.11339870,-0.00083743,0.001987
 44,0.00027423,-0.00504884,-0.00409659,-0.00033992,0.00155816,-0.001484
 18,-0.00026011,0.00872691,0.01951108,0.00300450,0.00475211,-0.00329475
 ,-0.00056341,0.00068586,0.00168364,0.00017777,-0.00002993,-0.00021441,
 -0.00001583,-0.00002092,-0.00009929,-0.00002365,-0.00101933,0.00153309
 ,0.00025879,0.00019867,-0.00004904,-0.00001440,-0.00027445,0.00026398,
 0.00003682,0.00033096,0.00045153,0.00006563,-0.30713131,0.48796602,0.0
 7883663,0.29810954,0.00252228,-0.00154085,-0.00015132,0.00268076,0.009
 13225,0.00092067,-0.00119994,0.00346853,0.00051620,0.01966598,-0.01507
 205,-0.00499674,-0.01017195,-0.00032781,0.00001413,0.00098674,-0.00321
 768,-0.00033160,0.00066599,0.00017771,-0.00005435,0.00018558,-0.000413
 41,-0.00002302,0.00161960,-0.00281959,-0.00047961,-0.00038427,0.000145
 01,0.00003582,0.00005550,-0.00010994,0.00002458,-0.00043630,-0.0001737
 8,-0.00006158,0.48796853,-0.90710290,-0.14078225,-0.50415852,0.9178545
 2,0.00035116,-0.00013378,-0.00111472,0.00062547,0.00115440,0.00216527,
 -0.00022010,0.00052664,0.00021399,0.00302652,-0.00499114,0.01443291,-0
 .00154398,-0.00022160,0.00204049,0.00007844,-0.00035547,-0.00118298,0.
 00010959,-0.00002394,0.00038966,0.00001703,-0.00001333,-0.00029811,0.0
 0027104,-0.00047672,0.00007913,-0.00006190,0.00002394,-0.00000572,0.00
 000715,0.00001727,-0.00029260,-0.00006109,-0.00009186,0.00035038,0.078
 83773,-0.14078349,-0.05989190,-0.08143705,0.14536907,0.04311419||-0.00
 001036,0.00002332,0.00002582,-0.00000172,-0.00002368,0.00002107,-0.000
 00029,0.00000575,-0.00007265,0.00001880,0.00000308,-0.00001854,0.00000
 096,-0.00000479,0.00001364,0.00000324,0.00000408,0.00001174,0.00000055
 ,-0.00000427,-0.00000084,-0.00000643,-0.00000495,0.00000032,0.00001337
 ,-0.00001004,0.00001535,-0.00001417,0.00000734,0.00001175,0.00000192,-
 0.00000043,-0.00000417,0.00000490,-0.00000117,-0.00000411,-0.00004147,
 0.00003874,0.00000475,0.00003071,-0.00003299,-0.00000412|||@


 EVANS BOLDLY PUT 50 ATM. OF ETHYLENE IN A CELL WITH 25 ATM. OF OXYGEN.
 THE APPARATUS SUBSEQUENTLY BLEW UP, BUT LUCKILY NOT BEFORE HE
 OBTAINED THE SPECTRA SHOWN IN FIGURE 8.
 A.J.MERER AND R.S.MULLIKEN, CHEM.REV. 69, 645 (1969)
 Job cpu time:       0 days  0 hours  4 minutes 27.0 seconds.
 File lengths (MBytes):  RWF=     54 Int=      0 D2E=      0 Chk=      3 Scr=      1
 Normal termination of Gaussian 09 at Thu Sep 14 13:24:31 2023.
