 Entering Gaussian System, Link 0=g16
 Input=/home/ubuntu/products/K3PO4.gjf
 Output=/home/ubuntu/products/K3PO4.log
 Initial command:
 /home/ubuntu/g16/l1.exe "/home/ubuntu/Scratch/Gau-76826.inp" -scrdir="/home/ubuntu/Scratch/"
 Entering Link 1 = /home/ubuntu/g16/l1.exe PID=     76831.
  
 Copyright (c) 1988-2017, Gaussian, Inc.  All Rights Reserved.
  
 This is part of the Gaussian(R) 16 program.  It is based on
 the Gaussian(R) 09 system (copyright 2009, Gaussian, Inc.),
 the Gaussian(R) 03 system (copyright 2003, Gaussian, Inc.),
 the Gaussian(R) 98 system (copyright 1998, Gaussian, Inc.),
 the Gaussian(R) 94 system (copyright 1995, Gaussian, Inc.),
 the Gaussian 92(TM) system (copyright 1992, Gaussian, Inc.),
 the Gaussian 90(TM) system (copyright 1990, Gaussian, Inc.),
 the Gaussian 88(TM) system (copyright 1988, Gaussian, Inc.),
 the Gaussian 86(TM) system (copyright 1986, Carnegie Mellon
 University), and the Gaussian 82(TM) system (copyright 1983,
 Carnegie Mellon University). Gaussian is a federally registered
 trademark of Gaussian, Inc.
  
 This software contains proprietary and confidential information,
 including trade secrets, belonging to Gaussian, Inc.
  
 This software is provided under written license and may be
 used, copied, transmitted, or stored only in accord with that
 written license.
  
 The following legend is applicable only to US Government
 contracts under FAR:
  
                    RESTRICTED RIGHTS LEGEND
  
 Use, reproduction and disclosure by the US Government is
 subject to restrictions as set forth in subparagraphs (a)
 and (c) of the Commercial Computer Software - Restricted
 Rights clause in FAR 52.227-19.
  
 Gaussian, Inc.
 340 Quinnipiac St., Bldg. 40, Wallingford CT 06492
  
  
 ---------------------------------------------------------------
 Warning -- This program may not be used in any manner that
 competes with the business of Gaussian, Inc. or will provide
 assistance to any competitor of Gaussian, Inc.  The licensee
 of this program is prohibited from giving any competitor of
 Gaussian, Inc. access to this program.  By using this program,
 the user acknowledges that Gaussian, Inc. is engaged in the
 business of creating and licensing software in the field of
 computational chemistry and represents and warrants to the
 licensee that it is not a competitor of Gaussian, Inc. and that
 it will not use this program in any manner prohibited above.
 ---------------------------------------------------------------
  

 Cite this work as:
 Gaussian 16, Revision B.01,
 M. J. Frisch, G. W. Trucks, H. B. Schlegel, G. E. Scuseria, 
 M. A. Robb, J. R. Cheeseman, G. Scalmani, V. Barone, 
 G. A. Petersson, H. Nakatsuji, X. Li, M. Caricato, A. V. Marenich, 
 J. Bloino, B. G. Janesko, R. Gomperts, B. Mennucci, H. P. Hratchian, 
 J. V. Ortiz, A. F. Izmaylov, J. L. Sonnenberg, D. Williams-Young, 
 F. Ding, F. Lipparini, F. Egidi, J. Goings, B. Peng, A. Petrone, 
 T. Henderson, D. Ranasinghe, V. G. Zakrzewski, J. Gao, N. Rega, 
 G. Zheng, W. Liang, M. Hada, M. Ehara, K. Toyota, R. Fukuda, 
 J. Hasegawa, M. Ishida, T. Nakajima, Y. Honda, O. Kitao, H. Nakai, 
 T. Vreven, K. Throssell, J. A. Montgomery, Jr., J. E. Peralta, 
 F. Ogliaro, M. J. Bearpark, J. J. Heyd, E. N. Brothers, K. N. Kudin, 
 V. N. Staroverov, T. A. Keith, R. Kobayashi, J. Normand, 
 K. Raghavachari, A. P. Rendell, J. C. Burant, S. S. Iyengar, 
 J. Tomasi, M. Cossi, J. M. Millam, M. Klene, C. Adamo, R. Cammi, 
 J. W. Ochterski, R. L. Martin, K. Morokuma, O. Farkas, 
 J. B. Foresman, and D. J. Fox, Gaussian, Inc., Wallingford CT, 2016.
 
 ******************************************
 Gaussian 16:  EM64L-G16RevB.01 20-Dec-2017
                18-Sep-2023 
 ******************************************
 %nprocshared=30
 Will use up to   30 processors via shared memory.
 %mem=30GB
 %chk=K3PO4.chk
 ----------------------------------------------------------------------
 # opt freq b3lyp/gen nosymm empiricaldispersion=gd3 pseudo=read scf=ma
 xcycle=1000 volume
 ----------------------------------------------------------------------
 1/18=20,19=15,26=3,38=1/1,3;
 2/9=110,12=2,15=1,17=6,18=5,40=1/2;
 3/5=7,11=2,16=1,17=8,25=1,30=1,71=1,74=-5,124=31/1,2,3;
 4//1;
 5/5=2,7=1000,38=5/2;
 6/7=2,8=2,9=2,10=2,28=1,44=1/1,4;
 7/30=1/1,2,3,16;
 1/18=20,19=15,26=3/3(2);
 2/9=110,15=1/2;
 99//99;
 2/9=110,15=1/2;
 3/5=7,6=1,11=2,16=1,17=8,25=1,30=1,71=1,74=-5,82=7,124=31/1,2,3;
 4/5=5,16=3,69=1/1;
 5/5=2,7=1000,38=5/2;
 7/30=1/1,2,3,16;
 1/18=20,19=15,26=3/3(-5);
 2/9=110,15=1/2;
 6/7=2,8=2,9=2,10=2,19=2,28=1,44=1/1,4;
 99/9=1/99;
 -------------------
 Title Card Required
 -------------------
 Symbolic Z-matrix:
 Charge =  0 Multiplicity = 1
 O                     4.11084  -1.89395  -3.97012 
 P                     3.40138  -2.67117  -2.78757 
 O                     4.43711  -3.61053  -2.04506 
 O                     2.77321  -1.64163  -1.7633 
 O                     2.20042  -3.5342   -3.35341 
 K                     1.50548  -0.9035   -4.23994 
 K                     2.13026  -4.18335  -0.56802 
 K                     6.48584  -2.9649   -3.57823 
 

 GradGradGradGradGradGradGradGradGradGradGradGradGradGradGradGradGradGrad
 Berny optimization.
 Initialization pass.
                           ----------------------------
                           !    Initial Parameters    !
                           ! (Angstroms and Degrees)  !
 --------------------------                            --------------------------
 ! Name  Definition              Value          Derivative Info.                !
 --------------------------------------------------------------------------------
 ! R1    R(1,2)                  1.583          estimate D2E/DX2                !
 ! R2    R(1,6)                  2.8003         estimate D2E/DX2                !
 ! R3    R(1,8)                  2.6346         estimate D2E/DX2                !
 ! R4    R(2,3)                  1.5832         estimate D2E/DX2                !
 ! R5    R(2,4)                  1.5823         estimate D2E/DX2                !
 ! R6    R(2,5)                  1.5834         estimate D2E/DX2                !
 ! R7    R(2,6)                  2.9713         estimate D2E/DX2                !
 ! R8    R(2,7)                  2.9713         estimate D2E/DX2                !
 ! R9    R(2,8)                  3.1977         estimate D2E/DX2                !
 ! R10   R(3,7)                  2.7985         estimate D2E/DX2                !
 ! R11   R(3,8)                  2.6391         estimate D2E/DX2                !
 ! R12   R(4,6)                  2.8785         estimate D2E/DX2                !
 ! R13   R(4,7)                  2.8814         estimate D2E/DX2                !
 ! R14   R(5,6)                  2.8617         estimate D2E/DX2                !
 ! R15   R(5,7)                  2.8609         estimate D2E/DX2                !
 ! A1    A(1,2,3)              110.3944         estimate D2E/DX2                !
 ! A2    A(1,2,4)              110.0015         estimate D2E/DX2                !
 ! A3    A(1,2,5)              109.9117         estimate D2E/DX2                !
 ! A4    A(3,2,4)              110.0098         estimate D2E/DX2                !
 ! A5    A(3,2,5)              109.9004         estimate D2E/DX2                !
 ! A6    A(4,2,5)              106.5501         estimate D2E/DX2                !
 ! A7    A(4,2,8)              127.068          estimate D2E/DX2                !
 ! A8    A(5,2,8)              126.3818         estimate D2E/DX2                !
 ! A9    A(6,2,7)              113.2617         estimate D2E/DX2                !
 ! A10   A(6,2,8)              123.3167         estimate D2E/DX2                !
 ! A11   A(7,2,8)              123.4079         estimate D2E/DX2                !
 ! A12   A(6,4,7)              119.002          estimate D2E/DX2                !
 ! A13   A(6,5,7)              120.281          estimate D2E/DX2                !
 ! A14   A(1,6,4)               54.313          estimate D2E/DX2                !
 ! A15   A(1,6,5)               54.4843         estimate D2E/DX2                !
 ! A16   A(4,6,5)               52.467          estimate D2E/DX2                !
 ! A17   A(3,7,4)               54.3063         estimate D2E/DX2                !
 ! A18   A(3,7,5)               54.5116         estimate D2E/DX2                !
 ! A19   A(4,7,5)               52.4461         estimate D2E/DX2                !
 ! A20   A(1,8,3)               59.0726         estimate D2E/DX2                !
 ! A21   L(6,1,8,2,-1)         175.4888         estimate D2E/DX2                !
 ! A22   L(1,2,7,3,-1)         178.5285         estimate D2E/DX2                !
 ! A23   L(3,2,6,1,-1)         178.6            estimate D2E/DX2                !
 ! A24   L(7,3,8,2,-1)         175.3728         estimate D2E/DX2                !
 ! A25   L(6,1,8,2,-2)         179.2399         estimate D2E/DX2                !
 ! A26   L(1,2,7,3,-2)         180.5419         estimate D2E/DX2                !
 ! A27   L(3,2,6,1,-2)         179.5335         estimate D2E/DX2                !
 ! A28   L(7,3,8,2,-2)         180.8348         estimate D2E/DX2                !
 ! D1    D(2,1,6,3)             -0.2937         estimate D2E/DX2                !
 ! D2    D(2,1,6,8)             -9.5339         estimate D2E/DX2                !
 ! D3    D(1,2,3,4)            121.5844         estimate D2E/DX2                !
 ! D4    D(1,2,3,5)           -121.4            estimate D2E/DX2                !
 ! D5    D(1,2,3,7)           -179.4581         estimate D2E/DX2                !
 ! D6    D(1,2,3,8)             -0.293          estimate D2E/DX2                !
 ! D7    D(1,2,4,5)            119.0953         estimate D2E/DX2                !
 ! D8    D(1,2,4,6)             57.1603         estimate D2E/DX2                !
 ! D9    D(1,2,4,7)           -178.9535         estimate D2E/DX2                !
 ! D10   D(1,2,4,8)            -60.8039         estimate D2E/DX2                !
 ! D11   D(1,2,5,6)            -56.8034         estimate D2E/DX2                !
 ! D12   D(1,2,5,7)            178.3881         estimate D2E/DX2                !
 ! D13   D(1,2,5,8)             60.7463         estimate D2E/DX2                !
 ! D14   D(1,2,6,7)            179.4396         estimate D2E/DX2                !
 ! D15   D(1,2,7,8)             18.2327         estimate D2E/DX2                !
 ! D16   D(4,6,8,3)             33.764          estimate D2E/DX2                !
 ! D17   D(5,6,8,3)            -33.88           estimate D2E/DX2                !
 ! D18   D(4,7,8,1)            -33.791          estimate D2E/DX2                !
 ! D19   D(5,7,8,1)             33.8643         estimate D2E/DX2                !
 ! D20   D(7,4,6,1)           -101.2407         estimate D2E/DX2                !
 ! D21   D(7,4,6,5)            -31.7378         estimate D2E/DX2                !
 ! D22   D(6,4,7,3)            101.3114         estimate D2E/DX2                !
 ! D23   D(6,4,7,5)             31.758          estimate D2E/DX2                !
 ! D24   D(7,5,6,1)            101.6284         estimate D2E/DX2                !
 ! D25   D(7,5,6,4)             32.4507         estimate D2E/DX2                !
 ! D26   D(6,5,7,3)           -101.5877         estimate D2E/DX2                !
 ! D27   D(6,5,7,4)            -32.4243         estimate D2E/DX2                !
 --------------------------------------------------------------------------------
 Trust Radius=3.00D-01 FncErr=1.00D-07 GrdErr=1.00D-06 EigMax=2.50D+02 EigMin=1.00D-04
 Number of steps in this run=     80 maximum allowed number of steps=    100.
 GradGradGradGradGradGradGradGradGradGradGradGradGradGradGradGradGradGrad

                          Input orientation:                          
 ---------------------------------------------------------------------
 Center     Atomic      Atomic             Coordinates (Angstroms)
 Number     Number       Type             X           Y           Z
 ---------------------------------------------------------------------
      1          8           0        4.110837   -1.893954   -3.970116
      2         15           0        3.401380   -2.671170   -2.787572
      3          8           0        4.437107   -3.610534   -2.045058
      4          8           0        2.773212   -1.641632   -1.763300
      5          8           0        2.200420   -3.534204   -3.353414
      6         19           0        1.505476   -0.903500   -4.239937
      7         19           0        2.130256   -4.183354   -0.568018
      8         19           0        6.485837   -2.964899   -3.578234
 ---------------------------------------------------------------------
                    Distance matrix (angstroms):
                    1          2          3          4          5
     1  O    0.000000
     2  P    1.582973   0.000000
     3  O    2.599798   1.583181   0.000000
     4  O    2.592864   1.582301   2.593166   0.000000
     5  O    2.592380   1.583449   2.592372   2.537397   0.000000
     6  K    2.800305   2.971275   4.554118   2.878493   2.861726
     7  K    4.553935   2.971343   2.798452   2.881396   2.860900
     8  K    2.634600   3.197702   2.639085   4.339194   4.328909
                    6          7          8
     6  K    0.000000
     7  K    4.962941   0.000000
     8  K    5.430581   5.432966   0.000000
 Symmetry turned off by external request.
 Stoichiometry    K3O4P
 Framework group  C1[X(K3O4P)]
 Deg. of freedom    18
 Full point group                 C1      NOp   1
 Rotational constants (GHZ):           0.8632780           0.7090891           0.4228719
 General basis read from cards:  (5D, 7F)
 ======================================================================================================
                                       Pseudopotential Parameters
 ======================================================================================================
  Center     Atomic      Valence      Angular      Power
  Number     Number     Electrons     Momentum     of R      Exponent        Coefficient   SO-Coeffient
 ======================================================================================================
    1          8
                                   No pseudopotential on this center.
    2         15
                                   No pseudopotential on this center.
    3          8
                                   No pseudopotential on this center.
    4          8
                                   No pseudopotential on this center.
    5          8
                                   No pseudopotential on this center.
    6         19            9
                                      G and up 
                                                     2        1.0000000        0.00000000    0.00000000
                                      S - G
                                                     2        6.8438070       92.25263900    0.00000000
                                      P - G
                                                     2        4.2178570       23.49803500    0.00000000
                                      D - G
                                                     2        6.4975370       -7.31542000    0.00000000
                                      F - G
                                                     2        6.1236130       -3.85832000    0.00000000
    7         19            9
                                      G and up 
                                                     2        1.0000000        0.00000000    0.00000000
                                      S - G
                                                     2        6.8438070       92.25263900    0.00000000
                                      P - G
                                                     2        4.2178570       23.49803500    0.00000000
                                      D - G
                                                     2        6.4975370       -7.31542000    0.00000000
                                      F - G
                                                     2        6.1236130       -3.85832000    0.00000000
    8         19            9
                                      G and up 
                                                     2        1.0000000        0.00000000    0.00000000
                                      S - G
                                                     2        6.8438070       92.25263900    0.00000000
                                      P - G
                                                     2        4.2178570       23.49803500    0.00000000
                                      D - G
                                                     2        6.4975370       -7.31542000    0.00000000
                                      F - G
                                                     2        6.1236130       -3.85832000    0.00000000
 ======================================================================================================
   145 basis functions,   259 primitive gaussians,   150 cartesian basis functions
    37 alpha electrons       37 beta electrons
       nuclear repulsion energy       477.4563075431 Hartrees.
 NAtoms=    8 NActive=    8 NUniq=    8 SFac= 1.00D+00 NAtFMM=   60 NAOKFM=F Big=F
 Integral buffers will be    131072 words long.
 Raffenetti 2 integral format.
 Two-electron integral symmetry is turned off.
 Nuclear repulsion after empirical dispersion term =      477.4429705293 Hartrees.
 One-electron integrals computed using PRISM.
   1 Symmetry operations used in ECPInt.
 ECPInt:  NShTT=    1431 NPrTT=    5688 LenC2=    1419 LenP2D=    4548.
 LDataN:  DoStor=T MaxTD1= 6 Len=  172
 NBasis=   145 RedAO= T EigKep=  6.66D-04  NBF=   145
 NBsUse=   145 1.00D-06 EigRej= -1.00D+00 NBFU=   145
 ExpMin= 1.65D-02 ExpMax= 1.94D+04 ExpMxC= 2.91D+03 IAcc=3 IRadAn=         5 AccDes= 0.00D+00
 Harris functional with IExCor=  402 and IRadAn=       5 diagonalized for initial guess.
 HarFok:  IExCor=  402 AccDes= 0.00D+00 IRadAn=         5 IDoV= 1 UseB2=F ITyADJ=14
 ICtDFT=  3500011 ScaDFX=  1.000000  1.000000  1.000000  1.000000
 FoFCou: FMM=F IPFlag=           0 FMFlag=      100000 FMFlg1=           0
         NFxFlg=           0 DoJE=T BraDBF=F KetDBF=T FulRan=T
         wScrn=  0.000000 ICntrl=       500 IOpCl=  0 I1Cent=   200000004 NGrid=           0
         NMat0=    1 NMatS0=      1 NMatT0=    0 NMatD0=    1 NMtDS0=    0 NMtDT0=    0
 Symmetry not used in FoFCou.
 Keep R1 ints in memory in canonical form, NReq=85319695.
 Requested convergence on RMS density matrix=1.00D-08 within1000 cycles.
 Requested convergence on MAX density matrix=1.00D-06.
 Requested convergence on             energy=1.00D-06.
 No special actions if energy rises.
 SCF Done:  E(RB3LYP) =  -727.509081173     A.U. after   15 cycles
            NFock= 15  Conv=0.41D-08     -V/T= 2.0838

 **********************************************************************

            Population analysis using the SCF Density.

 **********************************************************************

 Alpha  occ. eigenvalues --  -77.05235 -18.97780 -18.97775 -18.96494 -18.96445
 Alpha  occ. eigenvalues --   -6.50603  -4.66944  -4.66909  -4.66863  -1.35468
 Alpha  occ. eigenvalues --   -1.34904  -1.34900  -0.87890  -0.79076  -0.78555
 Alpha  occ. eigenvalues --   -0.77213  -0.69881  -0.69458  -0.69105  -0.69039
 Alpha  occ. eigenvalues --   -0.69027  -0.68957  -0.68825  -0.68716  -0.68572
 Alpha  occ. eigenvalues --   -0.37155  -0.28429  -0.27675  -0.27040  -0.19887
 Alpha  occ. eigenvalues --   -0.19058  -0.18215  -0.17659  -0.17137  -0.13520
 Alpha  occ. eigenvalues --   -0.12224  -0.11175
 Alpha virt. eigenvalues --   -0.02889  -0.02291  -0.01895   0.02401   0.02406
 Alpha virt. eigenvalues --    0.02491   0.03535   0.03906   0.04068   0.04159
 Alpha virt. eigenvalues --    0.05679   0.06088   0.06573   0.06790   0.06952
 Alpha virt. eigenvalues --    0.13353   0.14618   0.14753   0.14772   0.21651
 Alpha virt. eigenvalues --    0.23610   0.25509   0.27595   0.27849   0.28281
 Alpha virt. eigenvalues --    0.29248   0.29299   0.29695   0.31077   0.32375
 Alpha virt. eigenvalues --    0.33136   0.34584   0.34676   0.35158   0.35525
 Alpha virt. eigenvalues --    0.35809   0.36707   0.37469   0.37762   0.37832
 Alpha virt. eigenvalues --    0.40102   0.42120   0.42694   0.42721   0.44295
 Alpha virt. eigenvalues --    0.45219   0.45532   0.46568   0.67193   0.68228
 Alpha virt. eigenvalues --    0.69020   0.81089   0.81344   0.83925   0.97367
 Alpha virt. eigenvalues --    1.00544   1.03438   1.19682   1.19783   1.20564
 Alpha virt. eigenvalues --    1.30215   1.31847   1.32551   1.33825   1.36157
 Alpha virt. eigenvalues --    1.38036   1.40321   1.41949   1.45222   1.46343
 Alpha virt. eigenvalues --    1.48006   1.49340   1.49598   1.51156   1.51583
 Alpha virt. eigenvalues --    1.52409   1.55075   1.57643   1.61248   1.65975
 Alpha virt. eigenvalues --    1.66074   1.83192   1.86145   1.90183   1.92307
 Alpha virt. eigenvalues --    1.92410   1.93417   1.95786   1.97599   1.97782
 Alpha virt. eigenvalues --    1.97973   1.98235   2.02606   2.05093   2.06208
 Alpha virt. eigenvalues --    2.18015   2.28990   2.36021   2.37262   2.38103
 Alpha virt. eigenvalues --    2.41518   2.78311   2.95866   2.97970   2.98615
 Alpha virt. eigenvalues --   20.28995  20.30127  20.30185
          Condensed to atoms (all electrons):
               1          2          3          4          5          6
     1  O    9.670434   0.109996  -0.295372  -0.141815  -0.140599  -0.025908
     2  P    0.109996  12.973201   0.111266   0.180897   0.172203  -0.044049
     3  O   -0.295372   0.111266   9.667840  -0.141425  -0.141066   0.001986
     4  O   -0.141815   0.180897  -0.141425   9.329922  -0.189612   0.001999
     5  O   -0.140599   0.172203  -0.141066  -0.189612   9.345163   0.000500
     6  K   -0.025908  -0.044049   0.001986   0.001999   0.000500   8.144645
     7  K    0.001917  -0.044011  -0.026025   0.002122   0.000401  -0.005097
     8  K   -0.052013   0.015700  -0.050991  -0.002467  -0.002410  -0.003716
               7          8
     1  O    0.001917  -0.052013
     2  P   -0.044011   0.015700
     3  O   -0.026025  -0.050991
     4  O    0.002122  -0.002467
     5  O    0.000401  -0.002410
     6  K   -0.005097  -0.003716
     7  K    8.144657  -0.003694
     8  K   -0.003694   8.146710
 Mulliken charges:
               1
     1  O   -1.126639
     2  P    1.524798
     3  O   -1.126212
     4  O   -1.039620
     5  O   -1.044579
     6  K    0.929640
     7  K    0.929730
     8  K    0.952882
 Sum of Mulliken charges =   0.00000
 Mulliken charges with hydrogens summed into heavy atoms:
               1
     1  O   -1.126639
     2  P    1.524798
     3  O   -1.126212
     4  O   -1.039620
     5  O   -1.044579
     6  K    0.929640
     7  K    0.929730
     8  K    0.952882
 Electronic spatial extent (au):  <R**2>=           8242.5573
 Charge=              0.0000 electrons
 Dipole moment (field-independent basis, Debye):
    X=              0.3527    Y=             -0.1916    Z=             -0.2459  Tot=              0.4707
 Quadrupole moment (field-independent basis, Debye-Ang):
   XX=            -16.5549   YY=            -57.7739   ZZ=            -48.0496
   XY=            -11.7098   XZ=            -12.6570   YZ=            -23.4889
 Traceless Quadrupole moment (field-independent basis, Debye-Ang):
   XX=             24.2379   YY=            -16.9811   ZZ=             -7.2568
   XY=            -11.7098   XZ=            -12.6570   YZ=            -23.4889
 Octapole moment (field-independent basis, Debye-Ang**2):
  XXX=            -80.4800  YYY=            476.7186  ZZZ=            442.5584  XYY=           -175.7359
  XXY=            -14.2279  XXZ=            -70.7816  XZZ=           -138.6759  YZZ=            240.2858
  YYZ=            290.2428  XYZ=             37.4139
 Hexadecapole moment (field-independent basis, Debye-Ang**3):
 XXXX=           -441.2180 YYYY=          -3069.6531 ZZZZ=          -3191.2909 XXXY=            -33.1864
 XXXZ=           -591.6100 YYYX=           1721.1588 YYYZ=          -1766.8603 ZZZX=           1595.4305
 ZZZY=          -1496.5644 XXYY=           -926.1626 XXZZ=           -497.3683 YYZZ=          -1516.9121
 XXYZ=            453.6826 YYXZ=            575.1214 ZZXY=            380.4624
 N-N= 4.774429705293D+02 E-N=-2.661235143833D+03  KE= 6.712366063299D+02
 Evaluate density.
 Using the total density.
 Monte-Carlo method of calculating molar volume:
 based on  0.001 e/bohr**3 density envelope.
 Number of points per bohr**3 =   20 CutOff= 1.00D-04
 Using the SCF density.
 There are       845 points.  Will hold       845 in memory.
 LenV=  4026379800 MDV=  4026531840.
 Box volume =75629.300 fraction occupied=0.021
 Integrated density= 1.0648089922990101D+02 error= 3.2480899229901013D+01
 Molar volume = 1611.038 bohr**3/mol (143.767 cm**3/mol)
 Recommended a0 for SCRF calculation =  4.74 angstrom (  8.95 bohr)
   1 Symmetry operations used in ECPInt.
 ECPInt:  NShTT=    1431 NPrTT=    5688 LenC2=    1419 LenP2D=    4548.
 LDataN:  DoStor=T MaxTD1= 7 Len=  274
 Calling FoFJK, ICntrl=      2127 FMM=F ISym2X=0 I1Cent= 0 IOpClX= 0 NMat=1 NMatS=1 NMatT=0.
 -------------------------------------------------------------------
 Center     Atomic                   Forces (Hartrees/Bohr)
 Number     Number              X              Y              Z
 -------------------------------------------------------------------
      1        8           0.003540570    0.001618989   -0.003499291
      2       15          -0.003597631    0.000529862    0.001271706
      3        8           0.004360752   -0.002476426    0.001095062
      4        8          -0.002946526   -0.000630291   -0.000063580
      5        8          -0.002561671    0.000818099    0.001149564
      6       19           0.007088394   -0.006300374    0.005153434
      7       19           0.004859475    0.005421104   -0.007956624
      8       19          -0.010743363    0.001019037    0.002849730
 -------------------------------------------------------------------
 Cartesian Forces:  Max     0.010743363 RMS     0.004299297

 GradGradGradGradGradGradGradGradGradGradGradGradGradGradGradGradGradGrad
 Berny optimization.
 FormGI is forming the generalized inverse of G from B-inverse, IUseBI=4.
 Internal  Forces:  Max     0.003868915 RMS     0.001459134
 Search for a local minimum.
 Step number   1 out of a maximum of   80
 All quantities printed in internal units (Hartrees-Bohrs-Radians)
 Mixed Optimization -- RFO/linear search
 Second derivative matrix not updated -- first step.
 ITU=  0
     Eigenvalues ---    0.00255   0.00376   0.03005   0.03325   0.03357
     Eigenvalues ---    0.03514   0.03617   0.04778   0.05558   0.06208
     Eigenvalues ---    0.06939   0.08445   0.09886   0.14378   0.39590
     Eigenvalues ---    0.42170   0.45332   0.46038
 RFO step:  Lambda=-3.10322062D-03 EMin= 2.55001780D-03
 Linear search not attempted -- first point.
 Iteration  1 RMS(Cart)=  0.01927014 RMS(Int)=  0.00033853
 Iteration  2 RMS(Cart)=  0.00009989 RMS(Int)=  0.00012670
 Iteration  3 RMS(Cart)=  0.00000012 RMS(Int)=  0.00012670
 Variable       Old X    -DE/DX   Delta X   Delta X   Delta X     New X
                                 (Linear)    (Quad)   (Total)
    R1        2.99139   0.00350   0.00000   0.00476   0.00456   2.99595
    R2        5.29181  -0.00230   0.00000  -0.07446  -0.07428   5.21753
    R3        4.97867  -0.00374   0.00000  -0.09425  -0.09408   4.88459
    R4        2.99178   0.00340   0.00000   0.00456   0.00433   2.99611
    R5        2.99012   0.00037   0.00000  -0.00102  -0.00123   2.98889
    R6        2.99228   0.00067   0.00000  -0.00031  -0.00060   2.99168
    R7        5.61490  -0.00326   0.00000  -0.08435  -0.08443   5.53046
    R8        5.61502  -0.00336   0.00000  -0.08514  -0.08521   5.52981
    R9        6.04278  -0.00370   0.00000  -0.10642  -0.10657   5.93621
   R10        5.28831  -0.00216   0.00000  -0.07185  -0.07171   5.21660
   R11        4.98715  -0.00387   0.00000  -0.09719  -0.09705   4.89010
   R12        5.43956  -0.00250   0.00000  -0.07056  -0.07058   5.36899
   R13        5.44505  -0.00256   0.00000  -0.07268  -0.07266   5.37239
   R14        5.40788  -0.00267   0.00000  -0.07353  -0.07340   5.33447
   R15        5.40632  -0.00267   0.00000  -0.07322  -0.07311   5.33321
    A1        1.92675  -0.00018   0.00000  -0.00182  -0.00186   1.92489
    A2        1.91989   0.00004   0.00000   0.00140   0.00144   1.92132
    A3        1.91832   0.00000   0.00000   0.00072   0.00072   1.91904
    A4        1.92003   0.00022   0.00000   0.00231   0.00227   1.92230
    A5        1.91812  -0.00005   0.00000   0.00084   0.00090   1.91902
    A6        1.85965  -0.00003   0.00000  -0.00346  -0.00348   1.85617
    A7        2.21776   0.00025   0.00000   0.00324   0.00311   2.22087
    A8        2.20578  -0.00022   0.00000   0.00022   0.00037   2.20615
    A9        1.97679   0.00018   0.00000   0.00303   0.00305   1.97984
   A10        2.15228  -0.00011   0.00000  -0.00161  -0.00161   2.15068
   A11        2.15387  -0.00008   0.00000  -0.00148  -0.00149   2.15238
   A12        2.07698  -0.00022   0.00000  -0.00317  -0.00330   2.07368
   A13        2.09930  -0.00013   0.00000  -0.00182  -0.00201   2.09729
   A14        0.94794   0.00114   0.00000   0.01499   0.01515   0.96310
   A15        0.95093   0.00120   0.00000   0.01527   0.01540   0.96633
   A16        0.91572   0.00063   0.00000   0.01160   0.01167   0.92739
   A17        0.94782   0.00118   0.00000   0.01526   0.01539   0.96321
   A18        0.95141   0.00115   0.00000   0.01502   0.01516   0.96657
   A19        0.91536   0.00063   0.00000   0.01176   0.01183   0.92719
   A20        1.03101   0.00210   0.00000   0.02282   0.02321   1.05422
   A21        3.06286  -0.00193   0.00000  -0.01924  -0.01955   3.04331
   A22        3.11591  -0.00014   0.00000  -0.00187  -0.00191   3.11400
   A23        3.11716  -0.00022   0.00000  -0.00300  -0.00302   3.11414
   A24        3.06083  -0.00193   0.00000  -0.01920  -0.01946   3.04137
   A25        3.12833  -0.00031   0.00000  -0.00211  -0.00189   3.12644
   A26        3.15105   0.00005   0.00000   0.00058   0.00058   3.15163
   A27        3.13345  -0.00022   0.00000  -0.00161  -0.00152   3.13193
   A28        3.15616   0.00015   0.00000   0.00108   0.00096   3.15712
    D1       -0.00513  -0.00014   0.00000  -0.00100  -0.00094  -0.00607
    D2       -0.16640   0.00012   0.00000   0.01374   0.01365  -0.15275
    D3        2.12205   0.00008   0.00000   0.00208   0.00208   2.12412
    D4       -2.11883   0.00015   0.00000  -0.00026  -0.00028  -2.11911
    D5       -3.13214   0.00005   0.00000   0.00058   0.00058  -3.13156
    D6       -0.00511  -0.00009   0.00000  -0.00050  -0.00038  -0.00549
    D7        2.07860   0.00001   0.00000  -0.00040  -0.00038   2.07822
    D8        0.99764  -0.00003   0.00000  -0.00198  -0.00200   0.99564
    D9       -3.12333   0.00009   0.00000   0.00133   0.00136  -3.12197
   D10       -1.06123   0.00005   0.00000  -0.00040  -0.00041  -1.06164
   D11       -0.99141   0.00006   0.00000   0.00229   0.00226  -0.98915
   D12        3.11346  -0.00015   0.00000  -0.00200  -0.00203   3.11143
   D13        1.06022  -0.00008   0.00000  -0.00004  -0.00006   1.06016
   D14        3.13181  -0.00006   0.00000  -0.00066  -0.00066   3.13115
   D15        0.31822  -0.00002   0.00000  -0.00439  -0.00438   0.31384
   D16        0.58929   0.00018   0.00000   0.00382   0.00387   0.59316
   D17       -0.59132  -0.00027   0.00000  -0.00428  -0.00425  -0.59557
   D18       -0.58977  -0.00008   0.00000  -0.00340  -0.00350  -0.59327
   D19        0.59104   0.00038   0.00000   0.00488   0.00478   0.59583
   D20       -1.76698   0.00027   0.00000   0.01217   0.01222  -1.75477
   D21       -0.55393   0.00095   0.00000   0.01893   0.01905  -0.53488
   D22        1.76822  -0.00036   0.00000  -0.01287  -0.01287   1.75535
   D23        0.55428  -0.00096   0.00000  -0.01906  -0.01917   0.53511
   D24        1.77375  -0.00036   0.00000  -0.01258  -0.01263   1.76112
   D25        0.56637  -0.00094   0.00000  -0.01890  -0.01908   0.54730
   D26       -1.77304   0.00027   0.00000   0.01199   0.01209  -1.76095
   D27       -0.56591   0.00093   0.00000   0.01872   0.01891  -0.54700
         Item               Value     Threshold  Converged?
 Maximum Force            0.003869     0.000450     NO 
 RMS     Force            0.001459     0.000300     NO 
 Maximum Displacement     0.103840     0.001800     NO 
 RMS     Displacement     0.019288     0.001200     NO 
 Predicted change in Energy=-1.674165D-03
 GradGradGradGradGradGradGradGradGradGradGradGradGradGradGradGradGradGrad

                          Input orientation:                          
 ---------------------------------------------------------------------
 Center     Atomic      Atomic             Coordinates (Angstroms)
 Number     Number       Type             X           Y           Z
 ---------------------------------------------------------------------
      1          8           0        4.112604   -1.892464   -3.970940
      2         15           0        3.401415   -2.670536   -2.786767
      3          8           0        4.440001   -3.611314   -2.045151
      4          8           0        2.770249   -1.642880   -1.763453
      5          8           0        2.199457   -3.532278   -3.351568
      6         19           0        1.537032   -0.929822   -4.221671
      7         19           0        2.152879   -4.162823   -0.601092
      8         19           0        6.430887   -2.961130   -3.565008
 ---------------------------------------------------------------------
                    Distance matrix (angstroms):
                    1          2          3          4          5
     1  O    0.000000
     2  P    1.585387   0.000000
     3  O    2.601980   1.585471   0.000000
     4  O    2.595613   1.581650   2.596566   0.000000
     5  O    2.594752   1.583131   2.594804   2.533325   0.000000
     6  K    2.760999   2.926595   4.511637   2.841147   2.822882
     7  K    4.511200   2.926250   2.760507   2.842945   2.822211
     8  K    2.584815   3.141307   2.587728   4.287617   4.275134
                    6          7          8
     6  K    0.000000
     7  K    4.892868   0.000000
     8  K    5.339217   5.341369   0.000000
 Symmetry turned off by external request.
 Stoichiometry    K3O4P
 Framework group  C1[X(K3O4P)]
 Deg. of freedom    18
 Full point group                 C1      NOp   1
 Rotational constants (GHZ):           0.8836950           0.7306274           0.4353341
 Basis read from rwf:  (5D, 7F)
 Pseudo-potential data read from rwf file.
   145 basis functions,   259 primitive gaussians,   150 cartesian basis functions
    37 alpha electrons       37 beta electrons
       nuclear repulsion energy       480.8888249384 Hartrees.
 NAtoms=    8 NActive=    8 NUniq=    8 SFac= 1.00D+00 NAtFMM=   60 NAOKFM=F Big=F
 Integral buffers will be    131072 words long.
 Raffenetti 2 integral format.
 Two-electron integral symmetry is turned off.
 Nuclear repulsion after empirical dispersion term =      480.8758946202 Hartrees.
 One-electron integrals computed using PRISM.
   1 Symmetry operations used in ECPInt.
 ECPInt:  NShTT=    1431 NPrTT=    5688 LenC2=    1419 LenP2D=    4557.
 LDataN:  DoStor=T MaxTD1= 6 Len=  172
 NBasis=   145 RedAO= T EigKep=  6.53D-04  NBF=   145
 NBsUse=   145 1.00D-06 EigRej= -1.00D+00 NBFU=   145
 Initial guess from the checkpoint file:  "K3PO4.chk"
 B after Tr=     0.000177    0.000444   -0.000556
         Rot=    1.000000    0.000041   -0.000006    0.000026 Ang=   0.01 deg.
 ExpMin= 1.65D-02 ExpMax= 1.94D+04 ExpMxC= 2.91D+03 IAcc=3 IRadAn=         5 AccDes= 0.00D+00
 Harris functional with IExCor=  402 and IRadAn=       5 diagonalized for initial guess.
 HarFok:  IExCor=  402 AccDes= 0.00D+00 IRadAn=         5 IDoV= 1 UseB2=F ITyADJ=14
 ICtDFT=  3500011 ScaDFX=  1.000000  1.000000  1.000000  1.000000
 FoFCou: FMM=F IPFlag=           0 FMFlag=      100000 FMFlg1=           0
         NFxFlg=           0 DoJE=T BraDBF=F KetDBF=T FulRan=T
         wScrn=  0.000000 ICntrl=       500 IOpCl=  0 I1Cent=   200000004 NGrid=           0
         NMat0=    1 NMatS0=      1 NMatT0=    0 NMatD0=    1 NMtDS0=    0 NMtDT0=    0
 Symmetry not used in FoFCou.
 Keep R1 ints in memory in canonical form, NReq=85319695.
 Requested convergence on RMS density matrix=1.00D-08 within1000 cycles.
 Requested convergence on MAX density matrix=1.00D-06.
 Requested convergence on             energy=1.00D-06.
 No special actions if energy rises.
 SCF Done:  E(RB3LYP) =  -727.511581727     A.U. after   10 cycles
            NFock= 10  Conv=0.42D-08     -V/T= 2.0838
   1 Symmetry operations used in ECPInt.
 ECPInt:  NShTT=    1431 NPrTT=    5688 LenC2=    1419 LenP2D=    4557.
 LDataN:  DoStor=T MaxTD1= 7 Len=  274
 Calling FoFJK, ICntrl=      2127 FMM=F ISym2X=0 I1Cent= 0 IOpClX= 0 NMat=1 NMatS=1 NMatT=0.
 -------------------------------------------------------------------
 Center     Atomic                   Forces (Hartrees/Bohr)
 Number     Number              X              Y              Z
 -------------------------------------------------------------------
      1        8           0.001129361    0.000857159   -0.001613576
      2       15          -0.001321335    0.000259709    0.000388169
      3        8           0.001515800   -0.001132547    0.000722971
      4        8          -0.001823726   -0.000761723   -0.000258277
      5        8          -0.001453040    0.000741345    0.000933132
      6       19           0.004607771   -0.003982442    0.003285664
      7       19           0.003180016    0.003458834   -0.005038875
      8       19          -0.005834848    0.000559663    0.001580792
 -------------------------------------------------------------------
 Cartesian Forces:  Max     0.005834848 RMS     0.002503300

 GradGradGradGradGradGradGradGradGradGradGradGradGradGradGradGradGradGrad
 Berny optimization.
 Using GEDIIS/GDIIS optimizer.
 FormGI is forming the generalized inverse of G from B-inverse, IUseBI=4.
 Internal  Forces:  Max     0.002212133 RMS     0.000828620
 Search for a local minimum.
 Step number   2 out of a maximum of   80
 All quantities printed in internal units (Hartrees-Bohrs-Radians)
 Mixed Optimization -- En-DIIS/RFO-DIIS
 Update second derivatives using D2CorX and points    1    2
 DE= -2.50D-03 DEPred=-1.67D-03 R= 1.49D+00
 TightC=F SS=  1.41D+00  RLast= 2.84D-01 DXNew= 5.0454D-01 8.5208D-01
 Trust test= 1.49D+00 RLast= 2.84D-01 DXMaxT set to 5.05D-01
 ITU=  1  0
 Use linear search instead of GDIIS.
     Eigenvalues ---    0.00259   0.00448   0.01480   0.03013   0.03354
     Eigenvalues ---    0.03535   0.03598   0.04731   0.05565   0.06234
     Eigenvalues ---    0.06927   0.08461   0.09927   0.14310   0.39463
     Eigenvalues ---    0.41990   0.44991   0.45923
 RFO step:  Lambda=-5.76163385D-05 EMin= 2.59371619D-03
 Quartic linear search produced a step of  1.24489.
 Iteration  1 RMS(Cart)=  0.02458548 RMS(Int)=  0.00058475
 Iteration  2 RMS(Cart)=  0.00017159 RMS(Int)=  0.00037332
 Iteration  3 RMS(Cart)=  0.00000048 RMS(Int)=  0.00037332
 Variable       Old X    -DE/DX   Delta X   Delta X   Delta X     New X
                                 (Linear)    (Quad)   (Total)
    R1        2.99595   0.00147   0.00568  -0.00227   0.00281   2.99876
    R2        5.21753  -0.00164  -0.09247  -0.01374  -0.10567   5.11186
    R3        4.88459  -0.00197  -0.11712   0.01211  -0.10453   4.78006
    R4        2.99611   0.00141   0.00539  -0.00237   0.00235   2.99845
    R5        2.98889   0.00004  -0.00153  -0.00122  -0.00342   2.98547
    R6        2.99168   0.00023  -0.00075  -0.00097  -0.00259   2.98909
    R7        5.53046  -0.00204  -0.10511  -0.00902  -0.11438   5.41609
    R8        5.52981  -0.00200  -0.10608  -0.00677  -0.11305   5.41677
    R9        5.93621  -0.00221  -0.13267   0.00641  -0.12667   5.80954
   R10        5.21660  -0.00162  -0.08927  -0.01498  -0.10380   5.11280
   R11        4.89010  -0.00199  -0.12082   0.01351  -0.10690   4.78319
   R12        5.36899  -0.00165  -0.08786  -0.00866  -0.09657   5.27242
   R13        5.37239  -0.00172  -0.09045  -0.00939  -0.09979   5.27260
   R14        5.33447  -0.00171  -0.09138  -0.00733  -0.09830   5.23617
   R15        5.33321  -0.00170  -0.09102  -0.00701  -0.09768   5.23552
    A1        1.92489   0.00003  -0.00231   0.00474   0.00234   1.92723
    A2        1.92132   0.00004   0.00179  -0.00014   0.00175   1.92307
    A3        1.91904   0.00002   0.00090  -0.00013   0.00076   1.91980
    A4        1.92230   0.00006   0.00282  -0.00205   0.00063   1.92293
    A5        1.91902  -0.00004   0.00112  -0.00077   0.00053   1.91955
    A6        1.85617  -0.00011  -0.00433  -0.00191  -0.00630   1.84987
    A7        2.22087   0.00016   0.00387   0.00093   0.00442   2.22528
    A8        2.20615  -0.00005   0.00046   0.00098   0.00188   2.20803
    A9        1.97984   0.00009   0.00379   0.00020   0.00402   1.98385
   A10        2.15068  -0.00004  -0.00200   0.00021  -0.00177   2.14891
   A11        2.15238  -0.00005  -0.00186  -0.00039  -0.00229   2.15009
   A12        2.07368  -0.00008  -0.00411   0.00108  -0.00341   2.07027
   A13        2.09729  -0.00006  -0.00251  -0.00006  -0.00318   2.09410
   A14        0.96310   0.00060   0.01887   0.00152   0.02091   0.98401
   A15        0.96633   0.00064   0.01917   0.00145   0.02104   0.98736
   A16        0.92739   0.00032   0.01453   0.00041   0.01514   0.94254
   A17        0.96321   0.00060   0.01916   0.00100   0.02057   0.98379
   A18        0.96657   0.00060   0.01887   0.00129   0.02062   0.98719
   A19        0.92719   0.00032   0.01472   0.00045   0.01539   0.94258
   A20        1.05422   0.00104   0.02889  -0.00203   0.02784   1.08206
   A21        3.04331  -0.00098  -0.02433   0.00012  -0.02506   3.01825
   A22        3.11400  -0.00003  -0.00237   0.00175  -0.00070   3.11330
   A23        3.11414  -0.00003  -0.00375   0.00281  -0.00098   3.11316
   A24        3.04137  -0.00094  -0.02423   0.00085  -0.02413   3.01723
   A25        3.12644  -0.00014  -0.00235   0.00030  -0.00137   3.12507
   A26        3.15163   0.00001   0.00072  -0.00046   0.00026   3.15189
   A27        3.13193  -0.00008  -0.00189   0.00105  -0.00053   3.13140
   A28        3.15712   0.00007   0.00119   0.00028   0.00111   3.15823
    D1       -0.00607  -0.00005  -0.00117   0.00069  -0.00029  -0.00636
    D2       -0.15275   0.00008   0.01699   0.00282   0.01949  -0.13326
    D3        2.12412   0.00011   0.00259   0.00159   0.00416   2.12829
    D4       -2.11911  -0.00002  -0.00035  -0.00241  -0.00283  -2.12194
    D5       -3.13156   0.00001   0.00072  -0.00046   0.00026  -3.13129
    D6       -0.00549  -0.00006  -0.00047  -0.00075  -0.00084  -0.00633
    D7        2.07822  -0.00002  -0.00048  -0.00135  -0.00181   2.07641
    D8        0.99564  -0.00008  -0.00249  -0.00248  -0.00502   0.99062
    D9       -3.12197   0.00002   0.00169  -0.00133   0.00042  -3.12155
   D10       -1.06164  -0.00005  -0.00051  -0.00259  -0.00313  -1.06477
   D11       -0.98915   0.00010   0.00281   0.00221   0.00490  -0.98425
   D12        3.11143  -0.00003  -0.00252   0.00184  -0.00075   3.11068
   D13        1.06016   0.00004  -0.00008   0.00257   0.00246   1.06262
   D14        3.13115  -0.00002  -0.00082   0.00053  -0.00030   3.13085
   D15        0.31384  -0.00001  -0.00545   0.00437  -0.00105   0.31279
   D16        0.59316   0.00006   0.00482  -0.00107   0.00389   0.59705
   D17       -0.59557  -0.00013  -0.00529  -0.00018  -0.00537  -0.60093
   D18       -0.59327  -0.00003  -0.00436   0.00055  -0.00413  -0.59740
   D19        0.59583   0.00018   0.00596  -0.00023   0.00543   0.60126
   D20       -1.75477   0.00015   0.01521   0.00062   0.01598  -1.73879
   D21       -0.53488   0.00053   0.02372   0.00153   0.02564  -0.50924
   D22        1.75535  -0.00021  -0.01602  -0.00062  -0.01664   1.73871
   D23        0.53511  -0.00053  -0.02387  -0.00159  -0.02582   0.50929
   D24        1.76112  -0.00023  -0.01572  -0.00117  -0.01697   1.74415
   D25        0.54730  -0.00054  -0.02375  -0.00222  -0.02649   0.52080
   D26       -1.76095   0.00021   0.01505   0.00173   0.01705  -1.74390
   D27       -0.54700   0.00054   0.02354   0.00216   0.02624  -0.52077
         Item               Value     Threshold  Converged?
 Maximum Force            0.002212     0.000450     NO 
 RMS     Force            0.000829     0.000300     NO 
 Maximum Displacement     0.122989     0.001800     NO 
 RMS     Displacement     0.024614     0.001200     NO 
 Predicted change in Energy=-1.393690D-03
 GradGradGradGradGradGradGradGradGradGradGradGradGradGradGradGradGradGrad

                          Input orientation:                          
 ---------------------------------------------------------------------
 Center     Atomic      Atomic             Coordinates (Angstroms)
 Number     Number       Type             X           Y           Z
 ---------------------------------------------------------------------
      1          8           0        4.111414   -1.890121   -3.972338
      2         15           0        3.401361   -2.669923   -2.786631
      3          8           0        4.439593   -3.611952   -2.043452
      4          8           0        2.765706   -1.646476   -1.764672
      5          8           0        2.197901   -3.529024   -3.348408
      6         19           0        1.579481   -0.964552   -4.196176
      7         19           0        2.183265   -4.134831   -0.644973
      8         19           0        6.365804   -2.956367   -3.548999
 ---------------------------------------------------------------------
                    Distance matrix (angstroms):
                    1          2          3          4          5
     1  O    0.000000
     2  P    1.586874   0.000000
     3  O    2.606340   1.586714   0.000000
     4  O    2.596937   1.579842   2.596674   0.000000
     5  O    2.595540   1.581760   2.595182   2.524799   0.000000
     6  K    2.705082   2.866069   4.452324   2.790046   2.770861
     7  K    4.452847   2.866429   2.705580   2.790139   2.770519
     8  K    2.529500   3.074277   2.531157   4.226150   4.211840
                    6          7          8
     6  K    0.000000
     7  K    4.798569   0.000000
     8  K    5.224467   5.226450   0.000000
 Symmetry turned off by external request.
 Stoichiometry    K3O4P
 Framework group  C1[X(K3O4P)]
 Deg. of freedom    18
 Full point group                 C1      NOp   1
 Rotational constants (GHZ):           0.9123567           0.7589248           0.4521077
 Basis read from rwf:  (5D, 7F)
 Pseudo-potential data read from rwf file.
   145 basis functions,   259 primitive gaussians,   150 cartesian basis functions
    37 alpha electrons       37 beta electrons
       nuclear repulsion energy       485.6644830302 Hartrees.
 NAtoms=    8 NActive=    8 NUniq=    8 SFac= 1.00D+00 NAtFMM=   60 NAOKFM=F Big=F
 Integral buffers will be    131072 words long.
 Raffenetti 2 integral format.
 Two-electron integral symmetry is turned off.
 Nuclear repulsion after empirical dispersion term =      485.6520521862 Hartrees.
 One-electron integrals computed using PRISM.
   1 Symmetry operations used in ECPInt.
 ECPInt:  NShTT=    1431 NPrTT=    5688 LenC2=    1419 LenP2D=    4561.
 LDataN:  DoStor=T MaxTD1= 6 Len=  172
 NBasis=   145 RedAO= T EigKep=  6.34D-04  NBF=   145
 NBsUse=   145 1.00D-06 EigRej= -1.00D+00 NBFU=   145
 Initial guess from the checkpoint file:  "K3PO4.chk"
 B after Tr=     0.002196    0.000628   -0.000573
         Rot=    1.000000    0.000036   -0.000019    0.000045 Ang=   0.01 deg.
 ExpMin= 1.65D-02 ExpMax= 1.94D+04 ExpMxC= 2.91D+03 IAcc=3 IRadAn=         5 AccDes= 0.00D+00
 Harris functional with IExCor=  402 and IRadAn=       5 diagonalized for initial guess.
 HarFok:  IExCor=  402 AccDes= 0.00D+00 IRadAn=         5 IDoV= 1 UseB2=F ITyADJ=14
 ICtDFT=  3500011 ScaDFX=  1.000000  1.000000  1.000000  1.000000
 FoFCou: FMM=F IPFlag=           0 FMFlag=      100000 FMFlg1=           0
         NFxFlg=           0 DoJE=T BraDBF=F KetDBF=T FulRan=T
         wScrn=  0.000000 ICntrl=       500 IOpCl=  0 I1Cent=   200000004 NGrid=           0
         NMat0=    1 NMatS0=      1 NMatT0=    0 NMatD0=    1 NMtDS0=    0 NMtDT0=    0
 Symmetry not used in FoFCou.
 Keep R1 ints in memory in canonical form, NReq=85319695.
 Requested convergence on RMS density matrix=1.00D-08 within1000 cycles.
 Requested convergence on MAX density matrix=1.00D-06.
 Requested convergence on             energy=1.00D-06.
 No special actions if energy rises.
 SCF Done:  E(RB3LYP) =  -727.512826124     A.U. after   10 cycles
            NFock= 10  Conv=0.51D-08     -V/T= 2.0836
   1 Symmetry operations used in ECPInt.
 ECPInt:  NShTT=    1431 NPrTT=    5688 LenC2=    1419 LenP2D=    4561.
 LDataN:  DoStor=T MaxTD1= 7 Len=  274
 Calling FoFJK, ICntrl=      2127 FMM=F ISym2X=0 I1Cent= 0 IOpClX= 0 NMat=1 NMatS=1 NMatT=0.
 -------------------------------------------------------------------
 Center     Atomic                   Forces (Hartrees/Bohr)
 Number     Number              X              Y              Z
 -------------------------------------------------------------------
      1        8          -0.001074279    0.000163372    0.000147543
      2       15           0.000708475   -0.000140269   -0.000190646
      3        8          -0.000888506   -0.000022011    0.000320873
      4        8          -0.000498669    0.000076952    0.000105149
      5        8          -0.000456966   -0.000064304   -0.000035531
      6       19           0.000558871   -0.000295570    0.000337896
      7       19           0.000460054    0.000395696   -0.000447364
      8       19           0.001191021   -0.000113868   -0.000237919
 -------------------------------------------------------------------
 Cartesian Forces:  Max     0.001191021 RMS     0.000487493

 GradGradGradGradGradGradGradGradGradGradGradGradGradGradGradGradGradGrad
 Berny optimization.
 Using GEDIIS/GDIIS optimizer.
 FormGI is forming the generalized inverse of G from B-inverse, IUseBI=4.
 Internal  Forces:  Max     0.000504789 RMS     0.000146275
 Search for a local minimum.
 Step number   3 out of a maximum of   80
 All quantities printed in internal units (Hartrees-Bohrs-Radians)
 Mixed Optimization -- En-DIIS/RFO-DIIS
 Swapping is turned off.
 Update second derivatives using D2CorX and points    2    3
 DE= -1.24D-03 DEPred=-1.39D-03 R= 8.93D-01
 TightC=F SS=  1.41D+00  RLast= 3.65D-01 DXNew= 8.4853D-01 1.0958D+00
 Trust test= 8.93D-01 RLast= 3.65D-01 DXMaxT set to 8.49D-01
 ITU=  1  1  0
     Eigenvalues ---    0.00262   0.00557   0.01710   0.03024   0.03372
     Eigenvalues ---    0.03568   0.03734   0.04686   0.05579   0.06257
     Eigenvalues ---    0.06913   0.08489   0.09973   0.14215   0.39285
     Eigenvalues ---    0.41742   0.44927   0.45774
 En-DIIS/RFO-DIIS/Sim-DIIS IScMMF=       -3 using points:     3    2
 RFO step:  Lambda=-2.87105914D-05.
 DidBck=F Rises=F RFO-DIIS coefs:    1.02450   -0.02450
 Iteration  1 RMS(Cart)=  0.00168683 RMS(Int)=  0.00001178
 Iteration  2 RMS(Cart)=  0.00000189 RMS(Int)=  0.00000602
 Iteration  3 RMS(Cart)=  0.00000000 RMS(Int)=  0.00000602
 Variable       Old X    -DE/DX   Delta X   Delta X   Delta X     New X
                                 (Linear)    (Quad)   (Total)
    R1        2.99876  -0.00034   0.00007  -0.00071  -0.00065   2.99810
    R2        5.11186  -0.00023  -0.00259  -0.00664  -0.00922   5.10264
    R3        4.78006   0.00050  -0.00256   0.01331   0.01076   4.79082
    R4        2.99845  -0.00025   0.00006  -0.00055  -0.00051   2.99795
    R5        2.98547   0.00026  -0.00008   0.00055   0.00045   2.98592
    R6        2.98909   0.00025  -0.00006   0.00056   0.00049   2.98958
    R7        5.41609  -0.00009  -0.00280  -0.00386  -0.00666   5.40942
    R8        5.41677  -0.00014  -0.00277  -0.00474  -0.00751   5.40925
    R9        5.80954   0.00032  -0.00310   0.01215   0.00904   5.81858
   R10        5.11280  -0.00029  -0.00254  -0.00700  -0.00954   5.10327
   R11        4.78319   0.00048  -0.00262   0.01227   0.00966   4.79286
   R12        5.27242  -0.00026  -0.00237  -0.00514  -0.00751   5.26492
   R13        5.27260  -0.00022  -0.00245  -0.00456  -0.00701   5.26559
   R14        5.23617  -0.00014  -0.00241  -0.00266  -0.00507   5.23110
   R15        5.23552  -0.00010  -0.00239  -0.00264  -0.00503   5.23049
    A1        1.92723   0.00014   0.00006   0.00156   0.00162   1.92885
    A2        1.92307  -0.00002   0.00004  -0.00029  -0.00024   1.92283
    A3        1.91980  -0.00001   0.00002  -0.00047  -0.00045   1.91935
    A4        1.92293   0.00002   0.00002   0.00009   0.00010   1.92303
    A5        1.91955   0.00000   0.00001  -0.00001   0.00000   1.91956
    A6        1.84987  -0.00013  -0.00015  -0.00100  -0.00115   1.84872
    A7        2.22528   0.00007   0.00011   0.00029   0.00040   2.22568
    A8        2.20803   0.00007   0.00005   0.00071   0.00076   2.20879
    A9        1.98385  -0.00006   0.00010   0.00055   0.00064   1.98450
   A10        2.14891   0.00004  -0.00004  -0.00014  -0.00019   2.14872
   A11        2.15009   0.00002  -0.00006  -0.00037  -0.00043   2.14966
   A12        2.07027   0.00001  -0.00008   0.00103   0.00094   2.07120
   A13        2.09410  -0.00007  -0.00008  -0.00038  -0.00046   2.09364
   A14        0.98401   0.00003   0.00051   0.00107   0.00159   0.98560
   A15        0.98736   0.00002   0.00052   0.00075   0.00127   0.98863
   A16        0.94254   0.00007   0.00037   0.00057   0.00094   0.94348
   A17        0.98379   0.00006   0.00050   0.00121   0.00172   0.98551
   A18        0.98719   0.00004   0.00051   0.00098   0.00150   0.98869
   A19        0.94258   0.00007   0.00038   0.00051   0.00089   0.94347
   A20        1.08206  -0.00019   0.00068  -0.00282  -0.00212   1.07994
   A21        3.01825   0.00011  -0.00061   0.00118   0.00055   3.01880
   A22        3.11330   0.00009  -0.00002   0.00057   0.00055   3.11386
   A23        3.11316   0.00011  -0.00002   0.00045   0.00043   3.11359
   A24        3.01723   0.00009  -0.00059   0.00128   0.00067   3.01790
   A25        3.12507   0.00002  -0.00003   0.00092   0.00089   3.12595
   A26        3.15189  -0.00003   0.00001  -0.00030  -0.00029   3.15160
   A27        3.13140   0.00001  -0.00001   0.00048   0.00047   3.13187
   A28        3.15823  -0.00004   0.00003  -0.00073  -0.00071   3.15752
    D1       -0.00636   0.00001  -0.00001   0.00031   0.00030  -0.00606
    D2       -0.13326   0.00002   0.00048   0.00606   0.00653  -0.12673
    D3        2.12829   0.00008   0.00010   0.00074   0.00084   2.12913
    D4       -2.12194  -0.00008  -0.00007  -0.00043  -0.00050  -2.12244
    D5       -3.13129  -0.00003   0.00001  -0.00030  -0.00029  -3.13158
    D6       -0.00633   0.00001  -0.00002   0.00044   0.00042  -0.00591
    D7        2.07641  -0.00010  -0.00004  -0.00129  -0.00133   2.07508
    D8        0.99062  -0.00008  -0.00012  -0.00166  -0.00178   0.98883
    D9       -3.12155  -0.00007   0.00001  -0.00038  -0.00037  -3.12192
   D10       -1.06477  -0.00008  -0.00008  -0.00101  -0.00108  -1.06585
   D11       -0.98425   0.00006   0.00012   0.00097   0.00109  -0.98316
   D12        3.11068   0.00010  -0.00002   0.00068   0.00066   3.11135
   D13        1.06262   0.00008   0.00006   0.00089   0.00094   1.06356
   D14        3.13085   0.00004  -0.00001   0.00032   0.00032   3.13117
   D15        0.31279   0.00000  -0.00003  -0.00215  -0.00218   0.31061
   D16        0.59705   0.00002   0.00010  -0.00026  -0.00017   0.59689
   D17       -0.60093  -0.00002  -0.00013   0.00025   0.00012  -0.60081
   D18       -0.59740   0.00001  -0.00010   0.00034   0.00023  -0.59717
   D19        0.60126   0.00002   0.00013  -0.00049  -0.00036   0.60090
   D20       -1.73879   0.00010   0.00039   0.00133   0.00173  -1.73706
   D21       -0.50924   0.00008   0.00063   0.00149   0.00213  -0.50711
   D22        1.73871  -0.00009  -0.00041  -0.00105  -0.00146   1.73725
   D23        0.50929  -0.00008  -0.00063  -0.00147  -0.00211   0.50718
   D24        1.74415  -0.00012  -0.00042  -0.00142  -0.00184   1.74231
   D25        0.52080  -0.00012  -0.00065  -0.00218  -0.00284   0.51796
   D26       -1.74390   0.00009   0.00042   0.00138   0.00180  -1.74210
   D27       -0.52077   0.00012   0.00064   0.00222   0.00287  -0.51789
         Item               Value     Threshold  Converged?
 Maximum Force            0.000505     0.000450     NO 
 RMS     Force            0.000146     0.000300     YES
 Maximum Displacement     0.007638     0.001800     NO 
 RMS     Displacement     0.001687     0.001200     NO 
 Predicted change in Energy=-1.436768D-05
 GradGradGradGradGradGradGradGradGradGradGradGradGradGradGradGradGradGrad

                          Input orientation:                          
 ---------------------------------------------------------------------
 Center     Atomic      Atomic             Coordinates (Angstroms)
 Number     Number       Type             X           Y           Z
 ---------------------------------------------------------------------
      1          8           0        4.109160   -1.889981   -3.972452
      2         15           0        3.400545   -2.670169   -2.786602
      3          8           0        4.437804   -3.612340   -2.042819
      4          8           0        2.763759   -1.646790   -1.764912
      5          8           0        2.196400   -3.528888   -3.348225
      6         19           0        1.581743   -0.965806   -4.194172
      7         19           0        2.185267   -4.132744   -0.647066
      8         19           0        6.369846   -2.956530   -3.549401
 ---------------------------------------------------------------------
                    Distance matrix (angstroms):
                    1          2          3          4          5
     1  O    0.000000
     2  P    1.586528   0.000000
     3  O    2.607300   1.586445   0.000000
     4  O    2.596628   1.580079   2.596737   0.000000
     5  O    2.595058   1.582019   2.595177   2.524097   0.000000
     6  K    2.700203   2.862542   4.448545   2.786073   2.768180
     7  K    4.448544   2.862453   2.700532   2.786431   2.767856
     8  K    2.535192   3.079061   2.536270   4.231274   4.217312
                    6          7          8
     6  K    0.000000
     7  K    4.793297   0.000000
     8  K    5.225385   5.226637   0.000000
 Symmetry turned off by external request.
 Stoichiometry    K3O4P
 Framework group  C1[X(K3O4P)]
 Deg. of freedom    18
 Full point group                 C1      NOp   1
 Rotational constants (GHZ):           0.9139666           0.7584397           0.4523052
 Basis read from rwf:  (5D, 7F)
 Pseudo-potential data read from rwf file.
   145 basis functions,   259 primitive gaussians,   150 cartesian basis functions
    37 alpha electrons       37 beta electrons
       nuclear repulsion energy       485.7520572122 Hartrees.
 NAtoms=    8 NActive=    8 NUniq=    8 SFac= 1.00D+00 NAtFMM=   60 NAOKFM=F Big=F
 Integral buffers will be    131072 words long.
 Raffenetti 2 integral format.
 Two-electron integral symmetry is turned off.
 Nuclear repulsion after empirical dispersion term =      485.7396571242 Hartrees.
 One-electron integrals computed using PRISM.
   1 Symmetry operations used in ECPInt.
 ECPInt:  NShTT=    1431 NPrTT=    5688 LenC2=    1419 LenP2D=    4561.
 LDataN:  DoStor=T MaxTD1= 6 Len=  172
 NBasis=   145 RedAO= T EigKep=  6.33D-04  NBF=   145
 NBsUse=   145 1.00D-06 EigRej= -1.00D+00 NBFU=   145
 Initial guess from the checkpoint file:  "K3PO4.chk"
 B after Tr=     0.001717    0.000172    0.000034
         Rot=    1.000000   -0.000005   -0.000006    0.000010 Ang=   0.00 deg.
 Keep R1 ints in memory in canonical form, NReq=85319695.
 Requested convergence on RMS density matrix=1.00D-08 within1000 cycles.
 Requested convergence on MAX density matrix=1.00D-06.
 Requested convergence on             energy=1.00D-06.
 No special actions if energy rises.
 SCF Done:  E(RB3LYP) =  -727.512846831     A.U. after    8 cycles
            NFock=  8  Conv=0.54D-08     -V/T= 2.0836
   1 Symmetry operations used in ECPInt.
 ECPInt:  NShTT=    1431 NPrTT=    5688 LenC2=    1419 LenP2D=    4561.
 LDataN:  DoStor=T MaxTD1= 7 Len=  274
 Calling FoFJK, ICntrl=      2127 FMM=F ISym2X=0 I1Cent= 0 IOpClX= 0 NMat=1 NMatS=1 NMatT=0.
 -------------------------------------------------------------------
 Center     Atomic                   Forces (Hartrees/Bohr)
 Number     Number              X              Y              Z
 -------------------------------------------------------------------
      1        8          -0.000454233    0.000037799    0.000137931
      2       15           0.000372830   -0.000137130   -0.000267247
      3        8          -0.000427417    0.000067905    0.000096562
      4        8          -0.000274599    0.000067570    0.000125590
      5        8          -0.000247829   -0.000107329   -0.000032763
      6       19           0.000260326   -0.000071111    0.000158604
      7       19           0.000219485    0.000183799   -0.000126731
      8       19           0.000551436   -0.000041503   -0.000091947
 -------------------------------------------------------------------
 Cartesian Forces:  Max     0.000551436 RMS     0.000235641

 GradGradGradGradGradGradGradGradGradGradGradGradGradGradGradGradGradGrad
 Berny optimization.
 Using GEDIIS/GDIIS optimizer.
 FormGI is forming the generalized inverse of G from B-inverse, IUseBI=4.
 Internal  Forces:  Max     0.000224899 RMS     0.000074226
 Search for a local minimum.
 Step number   4 out of a maximum of   80
 All quantities printed in internal units (Hartrees-Bohrs-Radians)
 Mixed Optimization -- En-DIIS/RFO-DIIS
 Swapping is turned off.
 Update second derivatives using D2CorX and points    2    3    4
 DE= -2.07D-05 DEPred=-1.44D-05 R= 1.44D+00
 TightC=F SS=  1.41D+00  RLast= 2.91D-02 DXNew= 1.4270D+00 8.7213D-02
 Trust test= 1.44D+00 RLast= 2.91D-02 DXMaxT set to 8.49D-01
 ITU=  1  1  1  0
     Eigenvalues ---    0.00260   0.00534   0.01611   0.02399   0.03035
     Eigenvalues ---    0.03389   0.03574   0.04689   0.05580   0.06162
     Eigenvalues ---    0.06909   0.08508   0.09956   0.14131   0.39031
     Eigenvalues ---    0.41720   0.44159   0.45778
 En-DIIS/RFO-DIIS/Sim-DIIS IScMMF=       -3 using points:     4    3    2
 RFO step:  Lambda=-1.09941852D-05.
 DidBck=F Rises=F RFO-DIIS coefs:    1.87981   -0.88739    0.00758
 Iteration  1 RMS(Cart)=  0.00144096 RMS(Int)=  0.00001294
 Iteration  2 RMS(Cart)=  0.00000389 RMS(Int)=  0.00000531
 Iteration  3 RMS(Cart)=  0.00000000 RMS(Int)=  0.00000531
 Variable       Old X    -DE/DX   Delta X   Delta X   Delta X     New X
                                 (Linear)    (Quad)   (Total)
    R1        2.99810  -0.00020  -0.00060  -0.00014  -0.00074   2.99736
    R2        5.10264  -0.00009  -0.00731   0.00015  -0.00716   5.09549
    R3        4.79082   0.00022   0.01026  -0.00083   0.00943   4.80025
    R4        2.99795  -0.00018  -0.00047  -0.00022  -0.00068   2.99726
    R5        2.98592   0.00018   0.00042   0.00032   0.00073   2.98665
    R6        2.98958   0.00015   0.00045   0.00020   0.00066   2.99024
    R7        5.40942  -0.00005  -0.00500  -0.00008  -0.00508   5.40435
    R8        5.40925  -0.00003  -0.00575   0.00087  -0.00488   5.40437
    R9        5.81858   0.00015   0.00891  -0.00037   0.00854   5.82712
   R10        5.10327  -0.00010  -0.00761   0.00101  -0.00660   5.09667
   R11        4.79286   0.00021   0.00931  -0.00111   0.00821   4.80106
   R12        5.26492  -0.00011  -0.00587  -0.00020  -0.00607   5.25885
   R13        5.26559  -0.00010  -0.00541   0.00011  -0.00529   5.26030
   R14        5.23110  -0.00003  -0.00371   0.00208  -0.00164   5.22946
   R15        5.23049  -0.00003  -0.00369   0.00052  -0.00318   5.22731
    A1        1.92885   0.00005   0.00141  -0.00044   0.00097   1.92982
    A2        1.92283   0.00001  -0.00023   0.00040   0.00017   1.92300
    A3        1.91935   0.00001  -0.00040   0.00028  -0.00012   1.91923
    A4        1.92303   0.00000   0.00008  -0.00036  -0.00028   1.92275
    A5        1.91956   0.00000   0.00000   0.00010   0.00009   1.91965
    A6        1.84872  -0.00007  -0.00097   0.00005  -0.00091   1.84780
    A7        2.22568   0.00004   0.00032  -0.00017   0.00016   2.22584
    A8        2.20879   0.00003   0.00065   0.00012   0.00075   2.20954
    A9        1.98450  -0.00003   0.00054   0.00026   0.00079   1.98529
   A10        2.14872   0.00002  -0.00015  -0.00008  -0.00023   2.14849
   A11        2.14966   0.00001  -0.00036  -0.00016  -0.00052   2.14914
   A12        2.07120   0.00000   0.00085   0.00056   0.00141   2.07261
   A13        2.09364  -0.00004  -0.00038  -0.00031  -0.00070   2.09294
   A14        0.98560   0.00002   0.00124   0.00019   0.00143   0.98703
   A15        0.98863   0.00001   0.00096  -0.00012   0.00083   0.98947
   A16        0.94348   0.00004   0.00071  -0.00007   0.00064   0.94412
   A17        0.98551   0.00002   0.00136  -0.00023   0.00113   0.98664
   A18        0.98869   0.00001   0.00116  -0.00012   0.00104   0.98972
   A19        0.94347   0.00004   0.00066   0.00005   0.00071   0.94418
   A20        1.07994  -0.00011  -0.00207  -0.00001  -0.00208   1.07786
   A21        3.01880   0.00007   0.00067   0.00011   0.00079   3.01959
   A22        3.11386   0.00004   0.00049  -0.00033   0.00016   3.11402
   A23        3.11359   0.00005   0.00039  -0.00036   0.00003   3.11362
   A24        3.01790   0.00007   0.00077   0.00032   0.00109   3.01900
   A25        3.12595   0.00001   0.00079   0.00075   0.00153   3.12748
   A26        3.15160  -0.00001  -0.00026  -0.00002  -0.00027   3.15133
   A27        3.13187   0.00002   0.00042   0.00080   0.00121   3.13308
   A28        3.15752  -0.00001  -0.00063   0.00003  -0.00059   3.15693
    D1       -0.00606   0.00001   0.00027   0.00050   0.00076  -0.00530
    D2       -0.12673   0.00003   0.00560   0.00593   0.01154  -0.11519
    D3        2.12913   0.00005   0.00071  -0.00004   0.00068   2.12980
    D4       -2.12244  -0.00004  -0.00042  -0.00013  -0.00054  -2.12299
    D5       -3.13158  -0.00001  -0.00026  -0.00002  -0.00027  -3.13185
    D6       -0.00591  -0.00001   0.00038  -0.00005   0.00032  -0.00559
    D7        2.07508  -0.00003  -0.00116   0.00058  -0.00058   2.07449
    D8        0.98883  -0.00004  -0.00153  -0.00020  -0.00173   0.98710
    D9       -3.12192  -0.00003  -0.00033   0.00032  -0.00001  -3.12193
   D10       -1.06585  -0.00004  -0.00093  -0.00005  -0.00098  -1.06683
   D11       -0.98316   0.00001   0.00092  -0.00040   0.00052  -0.98263
   D12        3.11135   0.00004   0.00059  -0.00029   0.00029   3.11164
   D13        1.06356   0.00004   0.00081  -0.00003   0.00078   1.06434
   D14        3.13117   0.00002   0.00028   0.00003   0.00031   3.13148
   D15        0.31061  -0.00001  -0.00191  -0.00410  -0.00601   0.30460
   D16        0.59689   0.00000  -0.00018  -0.00036  -0.00054   0.59634
   D17       -0.60081  -0.00002   0.00015  -0.00019  -0.00005  -0.60086
   D18       -0.59717   0.00000   0.00023  -0.00017   0.00007  -0.59710
   D19        0.60090   0.00002  -0.00036  -0.00007  -0.00042   0.60048
   D20       -1.73706   0.00007   0.00140   0.00031   0.00171  -1.73535
   D21       -0.50711   0.00005   0.00168   0.00008   0.00176  -0.50536
   D22        1.73725  -0.00006  -0.00116  -0.00002  -0.00118   1.73607
   D23        0.50718  -0.00004  -0.00166   0.00004  -0.00162   0.50556
   D24        1.74231  -0.00007  -0.00149  -0.00006  -0.00154   1.74077
   D25        0.51796  -0.00007  -0.00230  -0.00040  -0.00269   0.51527
   D26       -1.74210   0.00007   0.00145   0.00074   0.00219  -1.73991
   D27       -0.51789   0.00007   0.00233   0.00048   0.00280  -0.51509
         Item               Value     Threshold  Converged?
 Maximum Force            0.000225     0.000450     YES
 RMS     Force            0.000074     0.000300     YES
 Maximum Displacement     0.007278     0.001800     NO 
 RMS     Displacement     0.001443     0.001200     NO 
 Predicted change in Energy=-5.500240D-06
 GradGradGradGradGradGradGradGradGradGradGradGradGradGradGradGradGradGrad

                          Input orientation:                          
 ---------------------------------------------------------------------
 Center     Atomic      Atomic             Coordinates (Angstroms)
 Number     Number       Type             X           Y           Z
 ---------------------------------------------------------------------
      1          8           0        4.107262   -1.890328   -3.972826
      2         15           0        3.399676   -2.670489   -2.786869
      3          8           0        4.436390   -3.612155   -2.042457
      4          8           0        2.761876   -1.647232   -1.765091
      5          8           0        2.194997   -3.529374   -3.348069
      6         19           0        1.583805   -0.965898   -4.192487
      7         19           0        2.186823   -4.131268   -0.648186
      8         19           0        6.373698   -2.956503   -3.549664
 ---------------------------------------------------------------------
                    Distance matrix (angstroms):
                    1          2          3          4          5
     1  O    0.000000
     2  P    1.586135   0.000000
     3  O    2.607554   1.586083   0.000000
     4  O    2.596778   1.580467   2.596508   0.000000
     5  O    2.594909   1.582366   2.595249   2.523812   0.000000
     6  K    2.696415   2.859856   4.445508   2.782861   2.767310
     7  K    4.445575   2.859870   2.697040   2.783630   2.766173
     8  K    2.540183   3.083580   2.540613   4.236054   4.222602
                    6          7          8
     6  K    0.000000
     7  K    4.790122   0.000000
     8  K    5.226739   5.227674   0.000000
 Symmetry turned off by external request.
 Stoichiometry    K3O4P
 Framework group  C1[X(K3O4P)]
 Deg. of freedom    18
 Full point group                 C1      NOp   1
 Rotational constants (GHZ):           0.9149544           0.7578645           0.4523302
 Basis read from rwf:  (5D, 7F)
 Pseudo-potential data read from rwf file.
   145 basis functions,   259 primitive gaussians,   150 cartesian basis functions
    37 alpha electrons       37 beta electrons
       nuclear repulsion energy       485.7828434532 Hartrees.
 NAtoms=    8 NActive=    8 NUniq=    8 SFac= 1.00D+00 NAtFMM=   60 NAOKFM=F Big=F
 Integral buffers will be    131072 words long.
 Raffenetti 2 integral format.
 Two-electron integral symmetry is turned off.
 Nuclear repulsion after empirical dispersion term =      485.7704638845 Hartrees.
 One-electron integrals computed using PRISM.
   1 Symmetry operations used in ECPInt.
 ECPInt:  NShTT=    1431 NPrTT=    5688 LenC2=    1419 LenP2D=    4559.
 LDataN:  DoStor=T MaxTD1= 6 Len=  172
 NBasis=   145 RedAO= T EigKep=  6.33D-04  NBF=   145
 NBsUse=   145 1.00D-06 EigRej= -1.00D+00 NBFU=   145
 Initial guess from the checkpoint file:  "K3PO4.chk"
 B after Tr=     0.001692    0.000281    0.000364
         Rot=    1.000000   -0.000029   -0.000003    0.000027 Ang=   0.00 deg.
 Keep R1 ints in memory in canonical form, NReq=85319695.
 Requested convergence on RMS density matrix=1.00D-08 within1000 cycles.
 Requested convergence on MAX density matrix=1.00D-06.
 Requested convergence on             energy=1.00D-06.
 No special actions if energy rises.
 SCF Done:  E(RB3LYP) =  -727.512852579     A.U. after    8 cycles
            NFock=  8  Conv=0.49D-08     -V/T= 2.0836
   1 Symmetry operations used in ECPInt.
 ECPInt:  NShTT=    1431 NPrTT=    5688 LenC2=    1419 LenP2D=    4559.
 LDataN:  DoStor=T MaxTD1= 7 Len=  274
 Calling FoFJK, ICntrl=      2127 FMM=F ISym2X=0 I1Cent= 0 IOpClX= 0 NMat=1 NMatS=1 NMatT=0.
 -------------------------------------------------------------------
 Center     Atomic                   Forces (Hartrees/Bohr)
 Number     Number              X              Y              Z
 -------------------------------------------------------------------
      1        8           0.000023098    0.000016139    0.000073243
      2       15          -0.000020677   -0.000196506   -0.000196000
      3        8           0.000004967    0.000034728   -0.000029467
      4        8          -0.000073142    0.000031156    0.000011159
      5        8           0.000000257   -0.000039004   -0.000006007
      6       19           0.000024268    0.000086193    0.000027382
      7       19           0.000052475    0.000045546    0.000083867
      8       19          -0.000011246    0.000021747    0.000035823
 -------------------------------------------------------------------
 Cartesian Forces:  Max     0.000196506 RMS     0.000069591

 GradGradGradGradGradGradGradGradGradGradGradGradGradGradGradGradGradGrad
 Berny optimization.
 Using GEDIIS/GDIIS optimizer.
 FormGI is forming the generalized inverse of G from B-inverse, IUseBI=4.
 Internal  Forces:  Max     0.000044436 RMS     0.000013461
 Search for a local minimum.
 Step number   5 out of a maximum of   80
 All quantities printed in internal units (Hartrees-Bohrs-Radians)
 Mixed Optimization -- En-DIIS/RFO-DIIS
 Swapping is turned off.
 Update second derivatives using D2CorX and points    2    3    4    5
 DE= -5.75D-06 DEPred=-5.50D-06 R= 1.05D+00
 TightC=F SS=  1.41D+00  RLast= 2.62D-02 DXNew= 1.4270D+00 7.8495D-02
 Trust test= 1.05D+00 RLast= 2.62D-02 DXMaxT set to 8.49D-01
 ITU=  1  1  1  1  0
     Eigenvalues ---    0.00258   0.00486   0.01641   0.02426   0.03067
     Eigenvalues ---    0.03446   0.03586   0.04704   0.05581   0.06145
     Eigenvalues ---    0.06924   0.08530   0.09937   0.14084   0.39010
     Eigenvalues ---    0.41700   0.43888   0.45788
 En-DIIS/RFO-DIIS/Sim-DIIS IScMMF=       -3 using points:     5    4    3    2
 RFO step:  Lambda=-4.16312720D-07.
 DidBck=F Rises=F RFO-DIIS coefs:    2.13634   -2.00000    0.87044   -0.00678
 Iteration  1 RMS(Cart)=  0.00056500 RMS(Int)=  0.00000351
 Iteration  2 RMS(Cart)=  0.00000108 RMS(Int)=  0.00000220
 Iteration  3 RMS(Cart)=  0.00000000 RMS(Int)=  0.00000220
 Variable       Old X    -DE/DX   Delta X   Delta X   Delta X     New X
                                 (Linear)    (Quad)   (Total)
    R1        2.99736  -0.00003  -0.00026   0.00006  -0.00020   2.99716
    R2        5.09549  -0.00001  -0.00089   0.00000  -0.00088   5.09460
    R3        4.80025   0.00000   0.00072  -0.00001   0.00070   4.80095
    R4        2.99726  -0.00003  -0.00032   0.00015  -0.00017   2.99709
    R5        2.98665   0.00004   0.00042  -0.00008   0.00035   2.98700
    R6        2.99024   0.00000   0.00031  -0.00023   0.00007   2.99031
    R7        5.40435   0.00002  -0.00079   0.00094   0.00015   5.40449
    R8        5.40437   0.00001   0.00017  -0.00036  -0.00018   5.40419
    R9        5.82712  -0.00001   0.00104  -0.00075   0.00028   5.82741
   R10        5.09667   0.00001   0.00004  -0.00033  -0.00029   5.09637
   R11        4.80106  -0.00002   0.00026  -0.00056  -0.00030   4.80076
   R12        5.25885  -0.00002  -0.00107  -0.00108  -0.00215   5.25669
   R13        5.26030   0.00000  -0.00064   0.00023  -0.00041   5.25989
   R14        5.22946   0.00004   0.00184   0.00106   0.00290   5.23236
   R15        5.22731   0.00001   0.00007   0.00052   0.00059   5.22790
    A1        1.92982   0.00000  -0.00028   0.00025  -0.00004   1.92978
    A2        1.92300   0.00000   0.00042  -0.00048  -0.00007   1.92293
    A3        1.91923   0.00000   0.00025  -0.00024   0.00002   1.91925
    A4        1.92275   0.00001  -0.00040   0.00041   0.00001   1.92276
    A5        1.91965   0.00000   0.00011   0.00014   0.00025   1.91989
    A6        1.84780  -0.00001  -0.00009  -0.00009  -0.00018   1.84763
    A7        2.22584   0.00002  -0.00013  -0.00014  -0.00027   2.22557
    A8        2.20954  -0.00001   0.00022   0.00023   0.00045   2.20999
    A9        1.98529   0.00000   0.00037   0.00004   0.00042   1.98570
   A10        2.14849   0.00000  -0.00011  -0.00005  -0.00016   2.14833
   A11        2.14914   0.00000  -0.00024   0.00002  -0.00022   2.14893
   A12        2.07261   0.00002   0.00077   0.00050   0.00127   2.07388
   A13        2.09294  -0.00001  -0.00041  -0.00028  -0.00070   2.09224
   A14        0.98703   0.00001   0.00039  -0.00007   0.00032   0.98735
   A15        0.98947  -0.00001  -0.00001  -0.00024  -0.00024   0.98922
   A16        0.94412   0.00000   0.00002  -0.00008  -0.00006   0.94405
   A17        0.98664   0.00001  -0.00006   0.00017   0.00011   0.98675
   A18        0.98972  -0.00001   0.00002   0.00001   0.00004   0.98976
   A19        0.94418   0.00000   0.00015  -0.00016  -0.00001   0.94417
   A20        1.07786  -0.00001  -0.00035   0.00022  -0.00014   1.07772
   A21        3.01959   0.00002   0.00025   0.00001   0.00026   3.01986
   A22        3.11402   0.00000  -0.00030   0.00023  -0.00007   3.11395
   A23        3.11362  -0.00001  -0.00034  -0.00002  -0.00037   3.11325
   A24        3.01900   0.00001   0.00050  -0.00020   0.00030   3.01930
   A25        3.12748   0.00001   0.00096   0.00054   0.00150   3.12899
   A26        3.15133   0.00000  -0.00005  -0.00023  -0.00029   3.15105
   A27        3.13308   0.00001   0.00096   0.00030   0.00127   3.13435
   A28        3.15693   0.00001  -0.00005  -0.00046  -0.00052   3.15641
    D1       -0.00530   0.00001   0.00060   0.00019   0.00079  -0.00451
    D2       -0.11519   0.00003   0.00760   0.00437   0.01197  -0.10322
    D3        2.12980   0.00001   0.00007  -0.00017  -0.00010   2.12970
    D4       -2.12299   0.00000  -0.00020   0.00004  -0.00016  -2.12315
    D5       -3.13185   0.00000  -0.00005  -0.00023  -0.00029  -3.13214
    D6       -0.00559  -0.00001   0.00000   0.00024   0.00023  -0.00536
    D7        2.07449  -0.00001   0.00047  -0.00059  -0.00011   2.07438
    D8        0.98710  -0.00002  -0.00046  -0.00045  -0.00091   0.98619
    D9       -3.12193   0.00000   0.00031  -0.00010   0.00021  -3.12171
   D10       -1.06683   0.00000  -0.00020   0.00006  -0.00014  -1.06697
   D11       -0.98263   0.00000  -0.00032   0.00011  -0.00021  -0.98284
   D12        3.11164   0.00000  -0.00024   0.00033   0.00009   3.11173
   D13        1.06434   0.00000   0.00009   0.00011   0.00020   1.06454
   D14        3.13148   0.00000   0.00008   0.00024   0.00032   3.13180
   D15        0.30460  -0.00001  -0.00496  -0.00407  -0.00903   0.29557
   D16        0.59634  -0.00001  -0.00045   0.00010  -0.00034   0.59600
   D17       -0.60086  -0.00001  -0.00020   0.00007  -0.00013  -0.60099
   D18       -0.59710   0.00001  -0.00015   0.00010  -0.00004  -0.59715
   D19        0.60048   0.00000  -0.00013  -0.00012  -0.00025   0.60023
   D20       -1.73535   0.00002   0.00056   0.00005   0.00061  -1.73474
   D21       -0.50536   0.00001   0.00033  -0.00018   0.00015  -0.50521
   D22        1.73607  -0.00002  -0.00020   0.00027   0.00007   1.73614
   D23        0.50556   0.00000  -0.00020   0.00027   0.00008   0.50563
   D24        1.74077   0.00000  -0.00028  -0.00002  -0.00030   1.74047
   D25        0.51527  -0.00002  -0.00079  -0.00009  -0.00088   0.51439
   D26       -1.73991   0.00001   0.00105  -0.00009   0.00096  -1.73895
   D27       -0.51509   0.00002   0.00088   0.00020   0.00109  -0.51400
         Item               Value     Threshold  Converged?
 Maximum Force            0.000044     0.000450     YES
 RMS     Force            0.000013     0.000300     YES
 Maximum Displacement     0.002488     0.001800     NO 
 RMS     Displacement     0.000565     0.001200     YES
[...]
   R10        5.09477   0.00000   0.00000  -0.00231  -0.00230   5.09247
   R11        4.79976   0.00001   0.00000   0.00028   0.00029   4.80005
   R12        5.24140   0.00001   0.00000   0.00329   0.00328   5.24468
   R13        5.25792   0.00000   0.00000  -0.01056  -0.01058   5.24734
   R14        5.25274  -0.00003   0.00000  -0.00660  -0.00659   5.24615
   R15        5.23311  -0.00001   0.00000   0.01261   0.01262   5.24573
    A1        1.92946   0.00000   0.00000  -0.00017  -0.00017   1.92929
    A2        1.92212  -0.00001   0.00000  -0.00076  -0.00078   1.92134
    A3        1.92025   0.00000   0.00000   0.00106   0.00107   1.92132
    A4        1.92194  -0.00001   0.00000  -0.00073  -0.00074   1.92121
    A5        1.92062   0.00000   0.00000   0.00061   0.00061   1.92123
    A6        1.84790   0.00000   0.00000   0.00001   0.00001   1.84791
    A7        2.22204  -0.00001   0.00000  -0.00461  -0.00463   2.21741
    A8        2.21325   0.00001   0.00000   0.00460   0.00462   2.21787
    A9        1.98782  -0.00001   0.00000  -0.00015  -0.00015   1.98766
   A10        2.14725   0.00000   0.00000   0.00091   0.00091   2.14816
   A11        2.14809   0.00000   0.00000  -0.00069  -0.00073   2.14736
   A12        2.08207  -0.00002   0.00000   0.00204   0.00205   2.08412
   A13        2.08647   0.00000   0.00000  -0.00229  -0.00230   2.08417
   A14        0.98918   0.00000   0.00000  -0.00085  -0.00085   0.98833
   A15        0.98743   0.00001   0.00000   0.00073   0.00073   0.98816
   A16        0.94358   0.00000   0.00000   0.00032   0.00032   0.94391
   A17        0.98700   0.00000   0.00000   0.00123   0.00123   0.98823
   A18        0.98942   0.00000   0.00000  -0.00100  -0.00100   0.98842
   A19        0.94388   0.00000   0.00000  -0.00018  -0.00019   0.94369
   A20        1.07789   0.00000   0.00000  -0.00006  -0.00006   1.07782
   A21        3.02080   0.00000   0.00000  -0.00076  -0.00076   3.02004
   A22        3.11294   0.00000   0.00000  -0.00095  -0.00095   3.11199
   A23        3.11190   0.00001   0.00000   0.00092   0.00092   3.11282
   A24        3.02006  -0.00001   0.00000   0.00067   0.00066   3.02072
   A25        3.13990   0.00000   0.00000   0.00230   0.00231   3.14221
   A26        3.14825   0.00000   0.00000  -0.00627  -0.00629   3.14196
   A27        3.14323   0.00000   0.00000  -0.00131  -0.00130   3.14193
   A28        3.15159  -0.00001   0.00000  -0.00988  -0.00991   3.14168
    D1        0.00102   0.00000   0.00000  -0.00082  -0.00081   0.00021
    D2       -0.01405   0.00000   0.00000   0.01911   0.01910   0.00505
    D3        2.12791  -0.00001   0.00000  -0.00157  -0.00158   2.12633
    D4       -2.12467  -0.00001   0.00000  -0.00163  -0.00164  -2.12631
    D5       -3.13493   0.00000   0.00000  -0.00627  -0.00629  -3.14122
    D6       -0.00334   0.00001   0.00000   0.00361   0.00361   0.00028
    D7        2.07529   0.00000   0.00000   0.00087   0.00087   2.07616
    D8        0.98178   0.00001   0.00000   0.00271   0.00271   0.98449
    D9       -3.11932   0.00000   0.00000   0.00415   0.00416  -3.11516
   D10       -1.06629   0.00000   0.00000   0.00073   0.00074  -1.06555
   D11       -0.98557   0.00000   0.00000   0.00072   0.00073  -0.98484
   D12        3.11230   0.00000   0.00000   0.00245   0.00247   3.11477
   D13        1.06505   0.00000   0.00000   0.00048   0.00048   1.06553
   D14        3.13490   0.00000   0.00000   0.00631   0.00633   3.14123
   D15        0.20461  -0.00001   0.00000  -0.19304  -0.19303   0.01158
   D16        0.59455   0.00001   0.00000   0.00388   0.00389   0.59843
   D17       -0.60147   0.00000   0.00000   0.00310   0.00311  -0.59836
   D18       -0.59798  -0.00001   0.00000  -0.00041  -0.00040  -0.59838
   D19        0.59878   0.00000   0.00000  -0.00098  -0.00099   0.59778
   D20       -1.73254  -0.00001   0.00000  -0.00331  -0.00332  -1.73586
   D21       -0.50613   0.00000   0.00000  -0.00205  -0.00205  -0.50818
   D22        1.73814   0.00001   0.00000  -0.00167  -0.00167   1.73647
   D23        0.50809   0.00000   0.00000   0.00022   0.00022   0.50831
   D24        1.73978   0.00000   0.00000  -0.00342  -0.00343   1.73635
   D25        0.51014   0.00001   0.00000  -0.00177  -0.00178   0.50836
   D26       -1.73386   0.00000   0.00000  -0.00213  -0.00213  -1.73599
   D27       -0.50827  -0.00001   0.00000   0.00009   0.00010  -0.50817
         Item               Value     Threshold  Converged?
 Maximum Force            0.000035     0.000450     YES
 RMS     Force            0.000007     0.000300     YES
 Maximum Displacement     0.009493     0.001800     NO 
 RMS     Displacement     0.002998     0.001200     NO 
 Predicted change in Energy=-1.459131D-06
                           ----------------------------
                           ! Non-Optimized Parameters !
                           ! (Angstroms and Degrees)  !
 --------------------------                            --------------------------
 ! Name  Definition              Value          Derivative Info.                !
 --------------------------------------------------------------------------------
 ! R1    R(1,2)                  1.5861         -DE/DX =    0.0                 !
 ! R2    R(1,6)                  2.696          -DE/DX =    0.0                 !
 ! R3    R(1,8)                  2.54           -DE/DX =    0.0                 !
 ! R4    R(2,3)                  1.5862         -DE/DX =    0.0                 !
 ! R5    R(2,4)                  1.5814         -DE/DX =    0.0                 !
 ! R6    R(2,5)                  1.5814         -DE/DX =    0.0                 !
 ! R7    R(2,6)                  2.8599         -DE/DX =    0.0                 !
 ! R8    R(2,7)                  2.86           -DE/DX =    0.0                 !
 ! R9    R(2,8)                  3.0837         -DE/DX =    0.0                 !
 ! R10   R(3,7)                  2.6948         -DE/DX =    0.0                 !
 ! R11   R(3,8)                  2.5401         -DE/DX =    0.0                 !
 ! R12   R(4,6)                  2.7754         -DE/DX =    0.0                 !
 ! R13   R(4,7)                  2.7768         -DE/DX =    0.0                 !
 ! R14   R(5,6)                  2.7761         -DE/DX =    0.0                 !
 ! R15   R(5,7)                  2.7759         -DE/DX =    0.0                 !
 ! A1    A(1,2,3)              110.5403         -DE/DX =    0.0                 !
 ! A2    A(1,2,4)              110.0846         -DE/DX =    0.0                 !
 ! A3    A(1,2,5)              110.0834         -DE/DX =    0.0                 !
 ! A4    A(3,2,4)              110.077          -DE/DX =    0.0                 !
 ! A5    A(3,2,5)              110.0783         -DE/DX =    0.0                 !
 ! A6    A(4,2,5)              105.8774         -DE/DX =    0.0                 !
 ! A7    A(4,2,8)              127.0482         -DE/DX =    0.0                 !
 ! A8    A(5,2,8)              127.0744         -DE/DX =    0.0                 !
 ! A9    A(6,2,7)              113.8847         -DE/DX =    0.0                 !
 ! A10   A(6,2,8)              123.0806         -DE/DX =    0.0                 !
 ! A11   A(7,2,8)              123.0346         -DE/DX =    0.0                 !
 ! A12   A(6,4,7)              119.4113         -DE/DX =    0.0                 !
 ! A13   A(6,5,7)              119.4141         -DE/DX =    0.0                 !
 ! A14   A(1,6,4)               56.6271         -DE/DX =    0.0                 !
 ! A15   A(1,6,5)               56.6174         -DE/DX =    0.0                 !
 ! A16   A(4,6,5)               54.0819         -DE/DX =    0.0                 !
 ! A17   A(3,7,4)               56.6217         -DE/DX =    0.0                 !
 ! A18   A(3,7,5)               56.6323         -DE/DX =    0.0                 !
 ! A19   A(4,7,5)               54.0695         -DE/DX =    0.0                 !
 ! A20   A(1,8,3)               61.7548         -DE/DX =    0.0                 !
 ! A21   L(6,1,8,2,-1)         173.0354         -DE/DX =    0.0                 !
 ! A22   L(1,2,7,3,-1)         178.3039         -DE/DX =    0.0                 !
 ! A23   L(3,2,6,1,-1)         178.3517         -DE/DX =    0.0                 !
 ! A24   L(7,3,8,2,-1)         173.0746         -DE/DX =    0.0                 !
 ! A25   L(6,1,8,2,-2)         180.0352         -DE/DX =    0.0                 !
 ! A26   L(1,2,7,3,-2)         180.0211         -DE/DX =    0.0                 !
 ! A27   L(3,2,6,1,-2)         180.0193         -DE/DX =    0.0                 !
 ! A28   L(7,3,8,2,-2)         180.0053         -DE/DX =    0.0                 !
 ! D1    D(2,1,6,3)              0.012          -DE/DX =    0.0                 !
 ! D2    D(2,1,6,8)              0.2893         -DE/DX =    0.0                 !
 ! D3    D(1,2,3,4)            121.8295         -DE/DX =    0.0                 !
 ! D4    D(1,2,3,5)           -121.8288         -DE/DX =    0.0                 !
 ! D5    D(1,2,3,7)           -179.9789         -DE/DX =    0.0                 !
 ! D6    D(1,2,3,8)              0.0159         -DE/DX =    0.0                 !
 ! D7    D(1,2,4,5)            118.9551         -DE/DX =    0.0                 !
 ! D8    D(1,2,4,6)             56.4071         -DE/DX =    0.0                 !
 ! D9    D(1,2,4,7)           -178.4853         -DE/DX =    0.0                 !
 ! D10   D(1,2,4,8)            -61.0513         -DE/DX =    0.0                 !
 ! D11   D(1,2,5,6)            -56.4273         -DE/DX =    0.0                 !
 ! D12   D(1,2,5,7)            178.4632         -DE/DX =    0.0                 !
 ! D13   D(1,2,5,8)             61.0505         -DE/DX =    0.0                 !
 ! D14   D(1,2,6,7)            179.9792         -DE/DX =    0.0                 !
 ! D15   D(1,2,7,8)              0.6635         -DE/DX =    0.0                 !
 ! D16   D(4,6,8,3)             34.2876         -DE/DX =    0.0                 !
 ! D17   D(5,6,8,3)            -34.2834         -DE/DX =    0.0                 !
 ! D18   D(4,7,8,1)            -34.2846         -DE/DX =    0.0                 !
 ! D19   D(5,7,8,1)             34.2505         -DE/DX =    0.0                 !
 ! D20   D(7,4,6,1)            -99.4572         -DE/DX =    0.0                 !
 ! D21   D(7,4,6,5)            -29.1165         -DE/DX =    0.0                 !
 ! D22   D(6,4,7,3)             99.4926         -DE/DX =    0.0                 !
 ! D23   D(6,4,7,5)             29.1241         -DE/DX =    0.0                 !
 ! D24   D(7,5,6,1)             99.4857         -DE/DX =    0.0                 !
 ! D25   D(7,5,6,4)             29.1272         -DE/DX =    0.0                 !
 ! D26   D(6,5,7,3)            -99.465          -DE/DX =    0.0                 !
 ! D27   D(6,5,7,4)            -29.116          -DE/DX =    0.0                 !
 --------------------------------------------------------------------------------
 GradGradGradGradGradGradGradGradGradGradGradGradGradGradGradGradGradGrad


 ----------------------------------------------------------------------

 Electric dipole moment (input orientation):
 (Debye = 10**-18 statcoulomb cm , SI units = C m)
                  (au)            (Debye)         (10**-30 SI)
   Tot        0.226153D+00      0.574825D+00      0.191741D+01
   x          0.210821D+00      0.535854D+00      0.178742D+01
   y         -0.381757D-01     -0.970331D-01     -0.323667D+00
   z         -0.724042D-01     -0.184033D+00     -0.613868D+00

 Dipole polarizability, Alpha (input orientation).
 (esu units = cm**3 , SI units = C**2 m**2 J**-1)
 Alpha(0;0):
               (au)            (10**-24 esu)      (10**-40 SI)
   iso        0.697934D+02      0.103423D+02      0.115074D+02
   aniso      0.145606D+02      0.215765D+01      0.240071D+01
   xx         0.746356D+02      0.110598D+02      0.123057D+02
   yx        -0.244389D+01     -0.362147D+00     -0.402943D+00
   yy         0.662365D+02      0.981524D+01      0.109209D+02
   zx        -0.233672D+01     -0.346266D+00     -0.385272D+00
   zy        -0.635315D+01     -0.941440D+00     -0.104749D+01
   zz         0.685082D+02      0.101519D+02      0.112955D+02

 ----------------------------------------------------------------------

 Dipole orientation:
     8         -4.78186362          1.31121020         10.24197563
    15         -3.32349174          3.28990136          8.52663990
     8         -1.54772588          5.02795654         10.20279471
     8         -1.70831476          1.86305884          6.45720697
     8         -5.27888983          4.97470360          7.01939253
    19         -6.56585803          0.07351230          5.63617234
    19         -0.65023830          6.93549034          5.56463841
    19         -2.79343786          2.89019747         14.31569058

 Electric dipole moment (dipole orientation):
 (Debye = 10**-18 statcoulomb cm , SI units = C m)
                  (au)            (Debye)         (10**-30 SI)
   Tot        0.226153D+00      0.574825D+00      0.191741D+01
   x          0.000000D+00      0.000000D+00      0.000000D+00
   y          0.000000D+00      0.000000D+00      0.000000D+00
   z          0.226153D+00      0.574825D+00      0.191741D+01

 Dipole polarizability, Alpha (dipole orientation).
 (esu units = cm**3 , SI units = C**2 m**2 J**-1)
 Alpha(0;0):
               (au)            (10**-24 esu)      (10**-40 SI)
   iso        0.697934D+02      0.103423D+02      0.115074D+02
   aniso      0.145606D+02      0.215765D+01      0.240071D+01
   xx         0.660917D+02      0.979378D+01      0.108970D+02
   yx         0.665883D+01      0.986737D+00      0.109789D+01
   yy         0.680432D+02      0.100830D+02      0.112188D+02
   zx         0.133436D+01      0.197732D+00      0.220006D+00
   zy        -0.114212D+01     -0.169245D+00     -0.188311D+00
   zz         0.752454D+02      0.111502D+02      0.124063D+02

 ----------------------------------------------------------------------
 1\1\GINC-IP-172-31-0-122\Freq\RB3LYP\Gen\K3O4P1\UBUNTU\18-Sep-2023\0\\
 #N Geom=AllCheck Guess=TCheck SCRF=Check GenChk RB3LYP/ChkBas Freq\\Ti
 tle Card Required\\0,1\O,4.1049181522,-1.8954029073,-3.9769565725\P,3.
 3976635683,-2.6746637244,-2.7901777092\O,4.4360127991,-3.6122673651,-2
 .0429056346\O,2.7589003514,-1.649170528,-1.7702640082\O,2.1942477786,-
 3.5356808687,-3.3489231681\K,1.5883197727,-0.9556824441,-4.1872545507\
 K,2.1899840266,-4.1289765793,-0.6439873802\K,6.3744785512,-2.951402583
 ,-3.5451799765\\Version=EM64L-G16RevB.01\HF=-727.5128558\RMSD=1.300e-0
 9\RMSF=5.839e-05\ZeroPoint=0.0169984\Thermal=0.0272075\Dipole=0.210821
 2,-0.0381757,-0.0724042\DipoleDeriv=-1.2027177,-0.1779387,0.3395516,-0
 .1912448,-1.1000047,0.3675288,0.3562659,0.3637151,-1.4111006,2.4683645
 ,-0.0342893,-0.0665941,-0.03379,2.2109144,-0.0379605,-0.0661353,-0.037
 5548,2.2365839,-1.4168736,0.373188,-0.2425189,0.3867996,-1.2001954,0.2
 80361,-0.2586203,0.2845905,-1.0964452,-1.0592732,0.2610982,0.2542445,0
 .2465151,-1.2698439,-0.3440474,0.2411836,-0.3467335,-1.2772364,-1.4435
 876,-0.3760957,-0.2453358,-0.3625043,-1.1558629,-0.1381587,-0.2333877,
 -0.136089,-1.0096146,0.8533467,-0.080368,0.0717137,-0.0762279,0.863501
 7,-0.0630102,0.067019,-0.0617811,0.8362698,0.8068197,0.0487188,-0.0644
 139,0.0447306,0.8417028,-0.0801261,-0.0596573,-0.0815594,0.9046027,0.9
 939212,-0.0143132,-0.046647,-0.0142783,0.809788,0.0154131,-0.0466679,0
 .0154122,0.8169403\Polar=74.635555,-2.4438908,66.2365424,-2.3367157,-6
 .3531519,68.508186\Quadrupole=17.2503043,-11.9730968,-5.2772075,-8.266
 0654,-8.9459258,-16.4215647\PG=C01 [X(K3O4P1)]\NImag=0\\0.14893845,0.0
 5407036,0.13347899,-0.09769847,-0.11049144,0.22449543,-0.11649412,-0.0
 4585061,0.07207838,0.61145743,-0.04654257,-0.12049360,0.07866979,-0.01
 572820,0.56438572,0.07292398,0.07843791,-0.18875677,-0.01368503,-0.040
 83162,0.57885829,0.01463263,-0.00088697,0.00084113,-0.16561390,0.08353
 007,-0.06497566,0.21135484,0.00924936,-0.00831440,0.02337523,0.0827841
 8,-0.14358019,0.05972548,-0.11043022,0.16268216,-0.01125497,0.02698797
 ,-0.01422091,-0.06415825,0.05949303,-0.11672660,0.07663476,-0.08634633
 ,0.13303464,-0.00041828,0.00762799,0.02438702,-0.10591703,0.05538918,0
 .05501523,-0.00832715,0.02882523,0.00997096,0.10615647,-0.00200824,0.0
 1548131,0.00375305,0.05711584,-0.16470164,-0.09200515,0.02376904,-0.01
 555906,-0.01020642,-0.07474961,0.19641936,0.02315729,-0.01163201,-0.02
 375597,0.05650101,-0.09167553,-0.16313480,-0.00186916,0.00267533,0.015
 13281,-0.07380146,0.13247621,0.19206181,-0.01495640,-0.02415353,0.0031
 2358,-0.19531411,-0.08895720,-0.05793461,-0.02593707,-0.00614736,-0.02
 249371,0.01562893,-0.00487583,-0.00404088,0.22926940,-0.02523764,-0.00
 638792,0.00288071,-0.09064818,-0.13736677,-0.04244057,0.00958073,0.015
 90384,0.00561134,-0.01732653,-0.01925982,-0.02951966,0.12615244,0.1591
 3833,0.01711299,0.01440520,0.01253210,-0.05935862,-0.04267711,-0.09980
 296,-0.02346063,-0.00340318,0.00127170,-0.01507948,-0.03165392,-0.0081
 7651,0.08324550,0.06475114,0.10548975,-0.00923260,0.00171504,-0.000319
 07,-0.00883112,0.02242850,-0.01838933,0.00032178,-0.00207477,0.0017152
 8,-0.00472616,0.00062839,0.00184614,-0.00586918,-0.00255177,-0.0001206
 6,0.02810769,-0.00030695,-0.00551936,0.00141901,0.02250844,-0.00663544
 ,0.01705007,-0.00224450,0.00013393,-0.00150625,0.00032166,-0.00534866,
 -0.00228769,-0.00044912,-0.00479699,-0.00000715,-0.02065201,0.02256225
 ,0.00210364,0.00068230,-0.00604302,-0.01845791,0.01704132,0.00070209,0
 .00191017,-0.00155545,-0.00062050,0.00022742,-0.00021655,-0.00552509,-
 0.00067654,-0.00140230,-0.00465447,0.01557323,-0.01607354,0.01666415,-
 0.00097383,0.00120493,-0.00173197,0.00438977,-0.01281142,0.01873922,-0
 .00913770,-0.00045273,0.00219616,-0.00492331,0.00163321,0.00034634,-0.
 00610051,-0.00060352,-0.00197682,0.00078024,0.00030238,-0.00044715,0.0
 1625810,0.00137155,-0.00047373,-0.00207954,-0.01287699,-0.00050557,0.0
 2230522,0.00156331,-0.00553935,0.00072586,0.00045926,-0.00514263,-0.00
 033918,-0.00123530,-0.00509696,-0.00147471,0.00013187,-0.00074766,0.00
 146868,0.01089880,0.01702849,-0.00191303,-0.00199929,0.00128427,0.0187
 7193,0.02222112,-0.01862730,-0.00022659,0.00141944,-0.00604845,0.00056
 034,-0.00261449,-0.00511391,0.00000010,0.00022546,-0.00464031,-0.00024
 406,0.00140155,-0.00105352,-0.01761319,-0.02076122,0.03405241,-0.02149
 583,0.00627280,-0.00068060,-0.02367691,0.00269163,0.00830619,-0.017293
 42,-0.00175368,0.00738977,0.00252654,-0.00151280,-0.00213928,0.0032789
 4,0.00063446,-0.00036228,-0.00055065,0.00052008,-0.00023285,-0.0002927
 5,-0.00031251,0.00066450,0.05750408,0.00940412,-0.00777128,0.00247318,
 0.00269552,0.00889749,-0.00224133,-0.00488148,-0.00572693,0.00524079,-
 0.00054718,-0.00188885,0.00030252,-0.00033410,-0.00213370,0.00005973,0
 .00037475,0.00035194,0.00005556,-0.00017165,0.00047743,0.00010743,-0.0
 0653998,0.00779390,-0.00443143,0.00360936,-0.00553513,0.00830850,-0.00
 224100,0.00748805,0.01114598,0.00410949,-0.01182269,-0.00128002,0.0004
 6727,-0.00148834,-0.00122345,-0.00010613,-0.00201931,-0.00006154,0.000
 00401,0.00053036,0.00048742,0.00015489,0.00014682,-0.01294546,-0.00599
 788,0.01270024\\-0.00006695,-0.00009007,-0.00008629,0.00009531,0.00014
 751,0.00014652,0.00000358,0.00001066,-0.00001019,-0.00003361,-0.000007
 10,-0.00001094,0.00001343,-0.00003263,0.00000255,0.00001956,0.00003715
 ,-0.00000270,-0.00002136,-0.00005176,-0.00003860,-0.00000997,-0.000013
 76,-0.00000034\\\@


 CONTRAIWISE...CONTINUED TWEEDLEDEE, IF IT WAS SO, IT MIGHT BE,
 AND IF IT WERE SO, IT WOULD BE.....
 BUT AS IT ISN'T, IT AIN'T....
 THAT'S LOGIC.....
 ALICE THROUGH THE LOOKING GLASS
 Job cpu time:       0 days  0 hours 11 minutes 24.2 seconds.
 Elapsed time:       0 days  0 hours  0 minutes 22.8 seconds.
 File lengths (MBytes):  RWF=     29 Int=      0 D2E=      0 Chk=      3 Scr=      1
 Normal termination of Gaussian 16 at Mon Sep 18 08:48:11 2023.
