 Entering Gaussian System, Link 0=g16
 Input=/home/ubuntu/Downloads/dabco-volume.gjf
 Output=/home/ubuntu/Downloads/dabco-volume.log
 Initial command:
 /home/ubuntu/g16/l1.exe "/home/ubuntu/Scratch/Gau-44157.inp" -scrdir="/home/ubuntu/Scratch/"
 Entering Link 1 = /home/ubuntu/g16/l1.exe PID=     44162.
  
 Copyright (c) 1988-2017, Gaussian, Inc.  All Rights Reserved.
  
 This is part of the Gaussian(R) 16 program.  It is based on
 the Gaussian(R) 09 system (copyright 2009, Gaussian, Inc.),
 the Gaussian(R) 03 system (copyright 2003, Gaussian, Inc.),
 the Gaussian(R) 98 system (copyright 1998, Gaussian, Inc.),
 the Gaussian(R) 94 system (copyright 1995, Gaussian, Inc.),
 the Gaussian 92(TM) system (copyright 1992, Gaussian, Inc.),
 the Gaussian 90(TM) system (copyright 1990, Gaussian, Inc.),
 the Gaussian 88(TM) system (copyright 1988, Gaussian, Inc.),
 the Gaussian 86(TM) system (copyright 1986, Carnegie Mellon
 University), and the Gaussian 82(TM) system (copyright 1983,
 Carnegie Mellon University). Gaussian is a federally registered
 trademark of Gaussian, Inc.
  
 This software contains proprietary and confidential information,
 including trade secrets, belonging to Gaussian, Inc.
  
 This software is provided under written license and may be
 used, copied, transmitted, or stored only in accord with that
 written license.
  
 The following legend is applicable only to US Government
 contracts under FAR:
  
                    RESTRICTED RIGHTS LEGEND
  
 Use, reproduction and disclosure by the US Government is
 subject to restrictions as set forth in subparagraphs (a)
 and (c) of the Commercial Computer Software - Restricted
 Rights clause in FAR 52.227-19.
  
 Gaussian, Inc.
 340 Quinnipiac St., Bldg. 40, Wallingford CT 06492
  
  
 ---------------------------------------------------------------
 Warning -- This program may not be used in any manner that
 competes with the business of Gaussian, Inc. or will provide
 assistance to any competitor of Gaussian, Inc.  The licensee
 of this program is prohibited from giving any competitor of
 Gaussian, Inc. access to this program.  By using this program,
 the user acknowledges that Gaussian, Inc. is engaged in the
 business of creating and licensing software in the field of
 computational chemistry and represents and warrants to the
 licensee that it is not a competitor of Gaussian, Inc. and that
 it will not use this program in any manner prohibited above.
 ---------------------------------------------------------------
  

 Cite this work as:
 Gaussian 16, Revision B.01,
 M. J. Frisch, G. W. Trucks, H. B. Schlegel, G. E. Scuseria, 
 M. A. Robb, J. R. Cheeseman, G. Scalmani, V. Barone, 
 G. A. Petersson, H. Nakatsuji, X. Li, M. Caricato, A. V. Marenich, 
 J. Bloino, B. G. Janesko, R. Gomperts, B. Mennucci, H. P. Hratchian, 
 J. V. Ortiz, A. F. Izmaylov, J. L. Sonnenberg, D. Williams-Young, 
 F. Ding, F. Lipparini, F. Egidi, J. Goings, B. Peng, A. Petrone, 
 T. Henderson, D. Ranasinghe, V. G. Zakrzewski, J. Gao, N. Rega, 
 G. Zheng, W. Liang, M. Hada, M. Ehara, K. Toyota, R. Fukuda, 
 J. Hasegawa, M. Ishida, T. Nakajima, Y. Honda, O. Kitao, H. Nakai, 
 T. Vreven, K. Throssell, J. A. Montgomery, Jr., J. E. Peralta, 
 F. Ogliaro, M. J. Bearpark, J. J. Heyd, E. N. Brothers, K. N. Kudin, 
 V. N. Staroverov, T. A. Keith, R. Kobayashi, J. Normand, 
 K. Raghavachari, A. P. Rendell, J. C. Burant, S. S. Iyengar, 
 J. Tomasi, M. Cossi, J. M. Millam, M. Klene, C. Adamo, R. Cammi, 
 J. W. Ochterski, R. L. Martin, K. Morokuma, O. Farkas, 
 J. B. Foresman, and D. J. Fox, Gaussian, Inc., Wallingford CT, 2016.
 
 ******************************************
 Gaussian 16:  EM64L-G16RevB.01 20-Dec-2017
                13-Sep-2023 
 ******************************************
 %nprocshared=32
 Will use up to   32 processors via shared memory.
 %mem=62GB
 %chk=dabco-volume.chk
 ----------------------------------------------------------------------
 # opt freq b3lyp/6-31+g(d) empiricaldispersion=gd3 scf=maxcycle=1000 v
 olume
 ----------------------------------------------------------------------
 1/18=20,19=15,26=3,38=1/1,3;
 2/9=110,12=2,17=6,18=5,40=1/2;
 3/5=1,6=6,7=11,11=2,25=1,30=1,71=1,74=-5,124=31/1,2,3;
 4//1;
 5/5=2,7=1000,38=5/2;
 6/7=2,8=2,9=2,10=2,28=1,44=1/1,4;
 7//1,2,3,16;
 1/18=20,19=15,26=3/3(2);
 2/9=110/2;
 99//99;
 2/9=110/2;
 3/5=1,6=6,7=11,11=2,25=1,30=1,71=1,74=-5,124=31/1,2,3;
 4/5=5,16=3,69=1/1;
 5/5=2,7=1000,38=5/2;
 7//1,2,3,16;
 1/18=20,19=15,26=3/3(-5);
 2/9=110/2;
 6/7=2,8=2,9=2,10=2,19=2,28=1,44=1/1,4;
 99/9=1/99;
 -------------------
 Title Card Required
 -------------------
 Symbolic Z-matrix:
 Charge =  0 Multiplicity = 1
 C                    -0.78321   0.10764   1.38135 
 C                     0.78343   0.10735   1.38126 
 H                    -1.18628   1.02882   1.81988 
 H                    -1.18668  -0.73404   1.95763 
 H                     1.1869    1.02815   1.82024 
 H                     1.18664  -0.73479   1.95702 
 C                    -0.78334   1.14237  -0.78383 
 H                    -1.18641   1.06147  -1.80085 
 H                    -1.18702   2.06219  -0.34298 
 C                     0.78305   1.1427   -0.78364 
 H                     1.18642   1.0625   -1.8006 
 H                     1.18623   2.06245  -0.3422 
 C                     0.78341  -1.24992  -0.5978 
 H                     1.18642  -1.32733  -1.61508 
 H                     1.18702  -2.09037  -0.01983 
 C                    -0.78334  -1.25019  -0.59733 
 H                    -1.18693  -1.32826  -1.61433 
 H                    -1.1863   -2.09049  -0.0187 
 N                     1.29027   0.00009  -0.00013 
 N                    -1.29027  -0.00009   0.00008 
 

 GradGradGradGradGradGradGradGradGradGradGradGradGradGradGradGradGradGrad
 Berny optimization.
 Initialization pass.
                           ----------------------------
                           !    Initial Parameters    !
                           ! (Angstroms and Degrees)  !
 --------------------------                            --------------------------
 ! Name  Definition              Value          Derivative Info.                !
 --------------------------------------------------------------------------------
 ! R1    R(1,2)                  1.5666         estimate D2E/DX2                !
 ! R2    R(1,3)                  1.097          estimate D2E/DX2                !
 ! R3    R(1,4)                  1.0969         estimate D2E/DX2                !
 ! R4    R(1,20)                 1.4753         estimate D2E/DX2                !
 ! R5    R(2,5)                  1.097          estimate D2E/DX2                !
 ! R6    R(2,6)                  1.0969         estimate D2E/DX2                !
 ! R7    R(2,19)                 1.4753         estimate D2E/DX2                !
 ! R8    R(7,8)                  1.097          estimate D2E/DX2                !
 ! R9    R(7,9)                  1.097          estimate D2E/DX2                !
 ! R10   R(7,10)                 1.5664         estimate D2E/DX2                !
 ! R11   R(7,20)                 1.4754         estimate D2E/DX2                !
 ! R12   R(10,11)                1.097          estimate D2E/DX2                !
 ! R13   R(10,12)                1.097          estimate D2E/DX2                !
 ! R14   R(10,19)                1.4754         estimate D2E/DX2                !
 ! R15   R(13,14)                1.0969         estimate D2E/DX2                !
 ! R16   R(13,15)                1.097          estimate D2E/DX2                !
 ! R17   R(13,16)                1.5668         estimate D2E/DX2                !
 ! R18   R(13,19)                1.4753         estimate D2E/DX2                !
 ! R19   R(16,17)                1.0969         estimate D2E/DX2                !
 ! R20   R(16,18)                1.097          estimate D2E/DX2                !
 ! R21   R(16,20)                1.4753         estimate D2E/DX2                !
 ! A1    A(2,1,3)              111.5684         estimate D2E/DX2                !
 ! A2    A(2,1,4)              111.574          estimate D2E/DX2                !
 ! A3    A(2,1,20)             110.0976         estimate D2E/DX2                !
 ! A4    A(3,1,4)              107.408          estimate D2E/DX2                !
 ! A5    A(3,1,20)             108.0175         estimate D2E/DX2                !
 ! A6    A(4,1,20)             108.0234         estimate D2E/DX2                !
 ! A7    A(1,2,5)              111.5694         estimate D2E/DX2                !
 ! A8    A(1,2,6)              111.5729         estimate D2E/DX2                !
 ! A9    A(1,2,19)             110.0973         estimate D2E/DX2                !
 ! A10   A(5,2,6)              107.4083         estimate D2E/DX2                !
 ! A11   A(5,2,19)             108.0207         estimate D2E/DX2                !
 ! A12   A(6,2,19)             108.0204         estimate D2E/DX2                !
 ! A13   A(8,7,9)              107.4104         estimate D2E/DX2                !
 ! A14   A(8,7,10)             111.5658         estimate D2E/DX2                !
 ! A15   A(8,7,20)             108.0137         estimate D2E/DX2                !
 ! A16   A(9,7,10)             111.578          estimate D2E/DX2                !
 ! A17   A(9,7,20)             108.0185         estimate D2E/DX2                !
 ! A18   A(10,7,20)            110.1021         estimate D2E/DX2                !
 ! A19   A(7,10,11)            111.5667         estimate D2E/DX2                !
 ! A20   A(7,10,12)            111.5772         estimate D2E/DX2                !
 ! A21   A(7,10,19)            110.1021         estimate D2E/DX2                !
 ! A22   A(11,10,12)           107.4102         estimate D2E/DX2                !
 ! A23   A(11,10,19)           108.0166         estimate D2E/DX2                !
 ! A24   A(12,10,19)           108.0157         estimate D2E/DX2                !
 ! A25   A(14,13,15)           107.4204         estimate D2E/DX2                !
 ! A26   A(14,13,16)           111.5708         estimate D2E/DX2                !
 ! A27   A(14,13,19)           108.0151         estimate D2E/DX2                !
 ! A28   A(15,13,16)           111.5707         estimate D2E/DX2                !
 ! A29   A(15,13,19)           108.0168         estimate D2E/DX2                !
 ! A30   A(16,13,19)           110.0952         estimate D2E/DX2                !
 ! A31   A(13,16,17)           111.5719         estimate D2E/DX2                !
 ! A32   A(13,16,18)           111.57           estimate D2E/DX2                !
 ! A33   A(13,16,20)           110.0951         estimate D2E/DX2                !
 ! A34   A(17,16,18)           107.42           estimate D2E/DX2                !
 ! A35   A(17,16,20)           108.0176         estimate D2E/DX2                !
 ! A36   A(18,16,20)           108.0143         estimate D2E/DX2                !
 ! A37   A(2,19,10)            108.8339         estimate D2E/DX2                !
 ! A38   A(2,19,13)            108.8374         estimate D2E/DX2                !
 ! A39   A(10,19,13)           108.8397         estimate D2E/DX2                !
 ! A40   A(1,20,7)             108.8335         estimate D2E/DX2                !
 ! A41   A(1,20,16)            108.8381         estimate D2E/DX2                !
 ! A42   A(7,20,16)            108.8394         estimate D2E/DX2                !
 ! D1    D(3,1,2,5)              0.0313         estimate D2E/DX2                !
 ! D2    D(3,1,2,6)            120.1794         estimate D2E/DX2                !
 ! D3    D(3,1,2,19)          -119.8937         estimate D2E/DX2                !
 ! D4    D(4,1,2,5)           -120.1165         estimate D2E/DX2                !
 ! D5    D(4,1,2,6)              0.0316         estimate D2E/DX2                !
 ! D6    D(4,1,2,19)           119.9585         estimate D2E/DX2                !
 ! D7    D(20,1,2,5)           119.9519         estimate D2E/DX2                !
 ! D8    D(20,1,2,6)          -119.9            estimate D2E/DX2                !
 ! D9    D(20,1,2,19)            0.0269         estimate D2E/DX2                !
 ! D10   D(2,1,20,7)           -59.2527         estimate D2E/DX2                !
 ! D11   D(2,1,20,16)           59.2277         estimate D2E/DX2                !
 ! D12   D(3,1,20,7)            62.7964         estimate D2E/DX2                !
 ! D13   D(3,1,20,16)         -178.7233         estimate D2E/DX2                !
 ! D14   D(4,1,20,7)           178.6876         estimate D2E/DX2                !
 ! D15   D(4,1,20,16)          -62.832          estimate D2E/DX2                !
 ! D16   D(1,2,19,10)           59.2218         estimate D2E/DX2                !
 ! D17   D(1,2,19,13)          -59.2589         estimate D2E/DX2                !
 ! D18   D(5,2,19,10)          -62.8303         estimate D2E/DX2                !
 ! D19   D(5,2,19,13)          178.689          estimate D2E/DX2                !
 ! D20   D(6,2,19,10)         -178.722          estimate D2E/DX2                !
 ! D21   D(6,2,19,13)           62.7973         estimate D2E/DX2                !
 ! D22   D(8,7,10,11)            0.0304         estimate D2E/DX2                !
 ! D23   D(8,7,10,12)          120.1821         estimate D2E/DX2                !
 ! D24   D(8,7,10,19)         -119.8909         estimate D2E/DX2                !
 ! D25   D(9,7,10,11)         -120.1215         estimate D2E/DX2                !
 ! D26   D(9,7,10,12)            0.0302         estimate D2E/DX2                !
 ! D27   D(9,7,10,19)          119.9572         estimate D2E/DX2                !
 ! D28   D(20,7,10,11)         119.9474         estimate D2E/DX2                !
 ! D29   D(20,7,10,12)        -119.9008         estimate D2E/DX2                !
 ! D30   D(20,7,10,19)           0.0261         estimate D2E/DX2                !
 ! D31   D(8,7,20,1)          -178.7286         estimate D2E/DX2                !
 ! D32   D(8,7,20,16)           62.7918         estimate D2E/DX2                !
 ! D33   D(9,7,20,1)           -62.8391         estimate D2E/DX2                !
 ! D34   D(9,7,20,16)          178.6814         estimate D2E/DX2                !
 ! D35   D(10,7,20,1)           59.2252         estimate D2E/DX2                !
 ! D36   D(10,7,20,16)         -59.2544         estimate D2E/DX2                !
 ! D37   D(7,10,19,2)          -59.255          estimate D2E/DX2                !
 ! D38   D(7,10,19,13)          59.2243         estimate D2E/DX2                !
 ! D39   D(11,10,19,2)         178.6958         estimate D2E/DX2                !
 ! D40   D(11,10,19,13)        -62.8249         estimate D2E/DX2                !
 ! D41   D(12,10,19,2)          62.8065         estimate D2E/DX2                !
 ! D42   D(12,10,19,13)       -178.7142         estimate D2E/DX2                !
 ! D43   D(14,13,16,17)          0.0292         estimate D2E/DX2                !
 ! D44   D(14,13,16,18)        120.1921         estimate D2E/DX2                !
 ! D45   D(14,13,16,20)       -119.892          estimate D2E/DX2                !
 ! D46   D(15,13,16,17)       -120.1339         estimate D2E/DX2                !
 ! D47   D(15,13,16,18)          0.029          estimate D2E/DX2                !
 ! D48   D(15,13,16,20)        119.9449         estimate D2E/DX2                !
 ! D49   D(19,13,16,17)        119.9467         estimate D2E/DX2                !
 ! D50   D(19,13,16,18)       -119.8905         estimate D2E/DX2                !
 ! D51   D(19,13,16,20)          0.0254         estimate D2E/DX2                !
 ! D52   D(14,13,19,2)        -178.7234         estimate D2E/DX2                !
 ! D53   D(14,13,19,10)         62.7995         estimate D2E/DX2                !
 ! D54   D(15,13,19,2)         -62.8222         estimate D2E/DX2                !
 ! D55   D(15,13,19,10)        178.7007         estimate D2E/DX2                !
 ! D56   D(16,13,19,2)          59.2276         estimate D2E/DX2                !
 ! D57   D(16,13,19,10)        -59.2495         estimate D2E/DX2                !
 ! D58   D(13,16,20,1)         -59.2561         estimate D2E/DX2                !
 ! D59   D(13,16,20,7)          59.2206         estimate D2E/DX2                !
 ! D60   D(17,16,20,1)         178.6921         estimate D2E/DX2                !
 ! D61   D(17,16,20,7)         -62.8312         estimate D2E/DX2                !
 ! D62   D(18,16,20,1)          62.7913         estimate D2E/DX2                !
 ! D63   D(18,16,20,7)        -178.732          estimate D2E/DX2                !
 --------------------------------------------------------------------------------
 Trust Radius=3.00D-01 FncErr=1.00D-07 GrdErr=1.00D-06 EigMax=2.50D+02 EigMin=1.00D-04
 Number of steps in this run=    120 maximum allowed number of steps=    120.
 GradGradGradGradGradGradGradGradGradGradGradGradGradGradGradGradGradGrad

                          Input orientation:                          
 ---------------------------------------------------------------------
 Center     Atomic      Atomic             Coordinates (Angstroms)
 Number     Number       Type             X           Y           Z
 ---------------------------------------------------------------------
      1          6           0       -0.783214    0.107637    1.381353
      2          6           0        0.783425    0.107354    1.381259
      3          1           0       -1.186281    1.028822    1.819881
      4          1           0       -1.186681   -0.734037    1.957625
      5          1           0        1.186896    1.028148    1.820239
      6          1           0        1.186637   -0.734789    1.957022
      7          6           0       -0.783338    1.142373   -0.783829
      8          1           0       -1.186410    1.061469   -1.800847
      9          1           0       -1.187017    2.062187   -0.342977
     10          6           0        0.783051    1.142699   -0.783639
     11          1           0        1.186419    1.062503   -1.800597
     12          1           0        1.186225    2.062453   -0.342202
     13          6           0        0.783414   -1.249918   -0.597797
     14          1           0        1.186417   -1.327332   -1.615082
     15          1           0        1.187024   -2.090368   -0.019826
     16          6           0       -0.783336   -1.250190   -0.597334
     17          1           0       -1.186932   -1.328262   -1.614333
     18          1           0       -1.186301   -2.090491   -0.018697
     19          7           0        1.290272    0.000088   -0.000125
     20          7           0       -1.290273   -0.000093    0.000084
 ---------------------------------------------------------------------
                    Distance matrix (angstroms):
                    1          2          3          4          5
     1  C    0.000000
     2  C    1.566639   0.000000
     3  H    1.096974   2.218386   0.000000
     4  H    1.096946   2.218435   1.768232   0.000000
     5  H    2.218399   1.096975   2.373177   2.959398   0.000000
     6  H    2.218420   1.096945   2.959708   2.373318   1.768235
     7  C    2.399727   2.865941   2.637150   3.346516   3.267421
     8  H    3.346455   3.862173   3.620875   4.165328   4.329660
     9  H    2.637544   3.267568   2.397040   3.621000   3.374048
    10  C    2.865612   2.399734   3.266428   3.862190   2.637498
    11  H    3.862128   3.346479   4.328822   4.794100   3.620999
    12  H    3.266594   2.637229   3.372207   4.329000   2.397069
    13  C    2.866062   2.399760   3.862321   3.267658   3.346533
    14  H    3.862280   3.346459   4.793759   4.329876   4.165299
    15  H    3.267471   2.637407   4.329716   3.374081   3.620909
    16  C    2.399770   2.865745   3.346519   2.637597   3.862292
    17  H    3.346480   3.862237   4.165294   3.621048   4.794164
    18  H    2.637117   3.266530   3.620840   2.397043   4.328933
    19  N    2.493871   1.475338   3.240992   3.241453   2.093160
    20  N    1.475337   2.493875   2.093118   2.093173   3.241390
                    6          7          8          9         10
     6  H    0.000000
     7  C    3.862228   0.000000
     8  H    4.793691   1.096968   0.000000
     9  H    4.329816   1.096980   1.768282   0.000000
    10  C    3.346500   1.566389   2.218127   2.218290   0.000000
    11  H    4.165328   2.218139   2.372829   2.959260   1.096969
    12  H    3.620911   2.218279   2.959563   2.373242   1.096979
    13  C    2.637242   2.865724   3.266504   3.862327   2.399824
    14  H    3.620916   3.266552   3.372119   4.329004   2.637244
    15  H    2.396982   3.862207   4.328891   4.794185   3.346540
    16  C    3.266675   2.399820   2.637173   3.346565   2.866042
    17  H    4.329043   2.637549   2.396999   3.620979   3.267497
    18  H    3.372273   3.346523   3.620899   4.165320   3.862253
    19  N    2.093134   2.493765   3.240846   3.241413   1.475374
    20  N    3.241060   1.475375   2.093097   2.093168   2.493766
                   11         12         13         14         15
    11  H    0.000000
    12  H    1.768281   0.000000
    13  C    2.637505   3.346549   0.000000
    14  H    2.397025   3.620893   1.096938   0.000000
    15  H    3.621014   4.165315   1.096954   1.768351   0.000000
    16  C    3.267465   3.862365   1.566750   2.218488   2.218498
    17  H    3.373907   4.329797   2.218501   2.373349   2.959548
    18  H    4.329704   4.793796   2.218490   2.959839   2.373325
    19  N    2.093134   2.093130   1.475341   2.093064   2.093097
    20  N    3.241229   3.241033   2.493933   3.241037   3.241396
                   16         17         18         19         20
    16  C    0.000000
    17  H    1.096938   0.000000
    18  H    1.096954   1.768346   0.000000
    19  N    2.493933   3.241407   3.241031   0.000000
    20  N    1.475343   2.093097   2.093066   2.580545   0.000000
 Stoichiometry    C6H12N2
 Framework group  C1[X(C6H12N2)]
 Deg. of freedom    54
 Full point group                 C1      NOp   1
 Largest Abelian subgroup         C1      NOp   1
 Largest concise Abelian subgroup C1      NOp   1
                         Standard orientation:                         
 ---------------------------------------------------------------------
 Center     Atomic      Atomic             Coordinates (Angstroms)
 Number     Number       Type             X           Y           Z
 ---------------------------------------------------------------------
      1          6           0        0.783205   -0.098870    1.382013
      2          6           0       -0.783434   -0.098575    1.381908
      3          1           0        1.186262   -1.017255    1.826384
      4          1           0        1.186676    0.746443    1.952932
      5          1           0       -1.186915   -1.016560    1.826724
      6          1           0       -1.186642    0.747210    1.952310
      7          6           0        0.783333   -1.147333   -0.776555
      8          1           0        1.186412   -1.072892   -1.794064
      9          1           0        1.187003   -2.064333   -0.329869
     10          6           0       -0.783056   -1.147646   -0.776372
     11          1           0       -1.186417   -1.073905   -1.793821
     12          1           0       -1.186239   -2.064575   -0.329106
     13          6           0       -0.783401    1.246103   -0.605726
     14          1           0       -1.186397    1.317059   -1.623484
     15          1           0       -1.187007    2.090209   -0.033106
     16          6           0        0.783349    1.246366   -0.605256
     17          1           0        1.186952    1.317975   -1.622728
     18          1           0        1.186318    2.090321   -0.031964
     19          7           0       -1.290272   -0.000079   -0.000132
     20          7           0        1.290273    0.000083    0.000091
 ---------------------------------------------------------------------
 Rotational constants (GHZ):           2.6450075           2.4851337           2.4850673
 Standard basis: 6-31+G(d) (6D, 7F)
 There are   176 symmetry adapted cartesian basis functions of A   symmetry.
 There are   176 symmetry adapted basis functions of A   symmetry.
   176 basis functions,   304 primitive gaussians,   176 cartesian basis functions
    31 alpha electrons       31 beta electrons
       nuclear repulsion energy       423.2387679422 Hartrees.
 NAtoms=   20 NActive=   20 NUniq=   20 SFac= 1.00D+00 NAtFMM=   60 NAOKFM=F Big=F
 Integral buffers will be    131072 words long.
 Raffenetti 2 integral format.
 Two-electron integral symmetry is turned on.
 Nuclear repulsion after empirical dispersion term =      423.2225080131 Hartrees.
 One-electron integrals computed using PRISM.
 NBasis=   176 RedAO= T EigKep=  2.43D-05  NBF=   176
 NBsUse=   176 1.00D-06 EigRej= -1.00D+00 NBFU=   176
 ExpMin= 4.38D-02 ExpMax= 4.17D+03 ExpMxC= 6.27D+02 IAcc=3 IRadAn=         5 AccDes= 0.00D+00
 Harris functional with IExCor=  402 and IRadAn=       5 diagonalized for initial guess.
 HarFok:  IExCor=  402 AccDes= 0.00D+00 IRadAn=         5 IDoV= 1 UseB2=F ITyADJ=14
 ICtDFT=  3500011 ScaDFX=  1.000000  1.000000  1.000000  1.000000
 FoFCou: FMM=F IPFlag=           0 FMFlag=      100000 FMFlg1=           0
         NFxFlg=           0 DoJE=T BraDBF=F KetDBF=T FulRan=T
         wScrn=  0.000000 ICntrl=       500 IOpCl=  0 I1Cent=   200000004 NGrid=           0
         NMat0=    1 NMatS0=      1 NMatT0=    0 NMatD0=    1 NMtDS0=    0 NMtDT0=    0
 Petite list used in FoFCou.
 Requested convergence on RMS density matrix=1.00D-08 within1000 cycles.
 Requested convergence on MAX density matrix=1.00D-06.
 Requested convergence on             energy=1.00D-06.
 No special actions if energy rises.
 SCF Done:  E(RB3LYP) =  -345.355687315     A.U. after   11 cycles
            NFock= 11  Conv=0.40D-08     -V/T= 2.0098

 **********************************************************************

            Population analysis using the SCF Density.

 **********************************************************************

 Orbital symmetries:
       Occupied  (A) (A) (A) (A) (A) (A) (A) (A) (A) (A) (A) (A)
                 (A) (A) (A) (A) (A) (A) (A) (A) (A) (A) (A) (A)
                 (A) (A) (A) (A) (A) (A) (A)
       Virtual   (A) (A) (A) (A) (A) (A) (A) (A) (A) (A) (A) (A)
                 (A) (A) (A) (A) (A) (A) (A) (A) (A) (A) (A) (A)
                 (A) (A) (A) (A) (A) (A) (A) (A) (A) (A) (A) (A)
                 (A) (A) (A) (A) (A) (A) (A) (A) (A) (A) (A) (A)
                 (A) (A) (A) (A) (A) (A) (A) (A) (A) (A) (A) (A)
                 (A) (A) (A) (A) (A) (A) (A) (A) (A) (A) (A) (A)
                 (A) (A) (A) (A) (A) (A) (A) (A) (A) (A) (A) (A)
                 (A) (A) (A) (A) (A) (A) (A) (A) (A) (A) (A) (A)
                 (A) (A) (A) (A) (A) (A) (A) (A) (A) (A) (A) (A)
                 (A) (A) (A) (A) (A) (A) (A) (A) (A) (A) (A) (A)
                 (A) (A) (A) (A) (A) (A) (A) (A) (A) (A) (A) (A)
                 (A) (A) (A) (A) (A) (A) (A) (A) (A) (A) (A) (A)
                 (A)
 The electronic state is 1-A.
 Alpha  occ. eigenvalues --  -14.33109 -14.33108 -10.20917 -10.20916 -10.20916
 Alpha  occ. eigenvalues --  -10.20901 -10.20900 -10.20899  -0.96271  -0.88281
 Alpha  occ. eigenvalues --   -0.75795  -0.75792  -0.64008  -0.64007  -0.63333
 Alpha  occ. eigenvalues --   -0.52124  -0.50362  -0.50362  -0.48578  -0.41621
 Alpha  occ. eigenvalues --   -0.41620  -0.41330  -0.39749  -0.39749  -0.38254
 Alpha  occ. eigenvalues --   -0.38250  -0.33204  -0.32556  -0.32555  -0.26346
 Alpha  occ. eigenvalues --   -0.19080
 Alpha virt. eigenvalues --    0.00587   0.01992   0.01992   0.02721   0.03781
 Alpha virt. eigenvalues --    0.04277   0.04278   0.04604   0.04604   0.06916
 Alpha virt. eigenvalues --    0.09069   0.09300   0.09300   0.10716   0.10716
 Alpha virt. eigenvalues --    0.10874   0.12812   0.13808   0.13809   0.14328
 Alpha virt. eigenvalues --    0.15430   0.15431   0.17225   0.18120   0.18121
 Alpha virt. eigenvalues --    0.19484   0.19486   0.20359   0.20362   0.23194
 Alpha virt. eigenvalues --    0.23925   0.23930   0.24058   0.25022   0.26412
 Alpha virt. eigenvalues --    0.27916   0.27917   0.28692   0.28693   0.29257
 Alpha virt. eigenvalues --    0.30912   0.32624   0.32626   0.34354   0.35792
 Alpha virt. eigenvalues --    0.36211   0.36215   0.37308   0.37309   0.41659
 Alpha virt. eigenvalues --    0.41660   0.48913   0.49542   0.61999   0.62002
 Alpha virt. eigenvalues --    0.65902   0.68015   0.68862   0.68868   0.70023
 Alpha virt. eigenvalues --    0.70024   0.73805   0.77042   0.77043   0.79698
 Alpha virt. eigenvalues --    0.79701   0.86037   0.88010   0.90008   0.91841
 Alpha virt. eigenvalues --    0.91842   0.93929   0.95659   0.98384   0.98386
 Alpha virt. eigenvalues --    0.98542   0.98543   1.01237   1.01242   1.07403
 Alpha virt. eigenvalues --    1.08918   1.08919   1.12033   1.15088   1.15089
 Alpha virt. eigenvalues --    1.24532   1.25764   1.25766   1.29742   1.34098
 Alpha virt. eigenvalues --    1.34101   1.39463   1.43421   1.44897   1.44900
 Alpha virt. eigenvalues --    1.58555   1.67044   1.67442   1.67448   1.70031
 Alpha virt. eigenvalues --    1.74001   1.74005   1.83166   1.84711   1.84718
 Alpha virt. eigenvalues --    1.98105   1.98109   2.00133   2.04560   2.04566
 Alpha virt. eigenvalues --    2.07123   2.11091   2.11094   2.12233   2.12236
 Alpha virt. eigenvalues --    2.13006   2.21161   2.25808   2.28019   2.28020
 Alpha virt. eigenvalues --    2.42046   2.44139   2.45296   2.45304   2.45644
 Alpha virt. eigenvalues --    2.45648   2.52385   2.56122   2.56124   2.73307
 Alpha virt. eigenvalues --    2.77763   2.77770   2.80790   2.80794   2.85860
 Alpha virt. eigenvalues --    2.89475   2.89480   4.05651   4.29390   4.29396
 Alpha virt. eigenvalues --    4.38077   4.53690   4.69972   4.69977   4.73655
          Condensed to atoms (all electrons):
               1          2          3          4          5          6
     1  C    6.658531  -0.783547   0.455892   0.455822  -0.107432  -0.107414
     2  C   -0.783547   6.658536  -0.107447  -0.107401   0.455846   0.455864
     3  H    0.455892  -0.107447   0.528857  -0.024394  -0.004533   0.004325
     4  H    0.455822  -0.107401  -0.024394   0.528854   0.004326  -0.004532
     5  H   -0.107432   0.455846  -0.004533   0.004326   0.528867  -0.024393
     6  H   -0.107414   0.455864   0.004325  -0.004532  -0.024393   0.528844
     7  C   -0.493863   0.306693  -0.028387   0.006947   0.017310  -0.001186
     8  H    0.006965  -0.001197   0.000336  -0.000150   0.000039   0.000029
     9  H   -0.028360   0.017295   0.005349   0.000336   0.000362   0.000039
    10  C    0.306441  -0.493862   0.017342  -0.001189  -0.028356   0.006966
    11  H   -0.001200   0.006946   0.000039   0.000029   0.000336  -0.000150
    12  H    0.017326  -0.028389   0.000362   0.000039   0.005349   0.000336
    13  C    0.306485  -0.493652  -0.001194   0.017296   0.006949  -0.028387
    14  H   -0.001193   0.006963   0.000029   0.000039  -0.000150   0.000336
    15  H    0.017301  -0.028358   0.000039   0.000362   0.000336   0.005350
    16  C   -0.493651   0.306240   0.006967  -0.028357  -0.001197   0.017327
    17  H    0.006945  -0.001196  -0.000150   0.000336   0.000029   0.000039
    18  H   -0.028384   0.017330   0.000336   0.005349   0.000039   0.000362
    19  N   -0.047091   0.207572   0.005724   0.005738  -0.057828  -0.057835
    20  N    0.207571  -0.047093  -0.057845  -0.057819   0.005740   0.005721
               7          8          9         10         11         12
     1  C   -0.493863   0.006965  -0.028360   0.306441  -0.001200   0.017326
     2  C    0.306693  -0.001197   0.017295  -0.493862   0.006946  -0.028389
     3  H   -0.028387   0.000336   0.005349   0.017342   0.000039   0.000362
     4  H    0.006947  -0.000150   0.000336  -0.001189   0.000029   0.000039
     5  H    0.017310   0.000039   0.000362  -0.028356   0.000336   0.005349
     6  H   -0.001186   0.000029   0.000039   0.006966  -0.000150   0.000336
     7  C    6.658956   0.455932   0.455866  -0.784128  -0.107460  -0.107439
     8  H    0.455932   0.528861  -0.024388  -0.107471  -0.004541   0.004327
     9  H    0.455866  -0.024388   0.528847  -0.107423   0.004328  -0.004536
    10  C   -0.784128  -0.107471  -0.107423   6.658939   0.455892   0.455911
    11  H   -0.107460  -0.004541   0.004328   0.455892   0.528870  -0.024389
    12  H   -0.107439   0.004327  -0.004536   0.455911  -0.024389   0.528837
    13  C    0.306288   0.017333  -0.001201  -0.493679  -0.028355   0.006964
    14  H    0.017333   0.000362   0.000039  -0.028372   0.005349   0.000336
    15  H   -0.001193   0.000039   0.000029   0.006951   0.000336  -0.000150
    16  C   -0.493680  -0.028383   0.006947   0.306527   0.017303  -0.001198
    17  H   -0.028346   0.005349   0.000336   0.017305   0.000362   0.000039
    18  H    0.006969   0.000336  -0.000150  -0.001190   0.000039   0.000029
    19  N   -0.047096   0.005723   0.005739   0.207603  -0.057839  -0.057844
    20  N    0.207606  -0.057855  -0.057829  -0.047091   0.005740   0.005723
              13         14         15         16         17         18
     1  C    0.306485  -0.001193   0.017301  -0.493651   0.006945  -0.028384
     2  C   -0.493652   0.006963  -0.028358   0.306240  -0.001196   0.017330
     3  H   -0.001194   0.000029   0.000039   0.006967  -0.000150   0.000336
     4  H    0.017296   0.000039   0.000362  -0.028357   0.000336   0.005349
     5  H    0.006949  -0.000150   0.000336  -0.001197   0.000029   0.000039
     6  H   -0.028387   0.000336   0.005350   0.017327   0.000039   0.000362
     7  C    0.306288   0.017333  -0.001193  -0.493680  -0.028346   0.006969
     8  H    0.017333   0.000362   0.000039  -0.028383   0.005349   0.000336
     9  H   -0.001201   0.000039   0.000029   0.006947   0.000336  -0.000150
    10  C   -0.493679  -0.028372   0.006951   0.306527   0.017305  -0.001190
    11  H   -0.028355   0.005349   0.000336   0.017303   0.000362   0.000039
    12  H    0.006964   0.000336  -0.000150  -0.001198   0.000039   0.000029
    13  C    6.657942   0.455860   0.455828  -0.783068  -0.107392  -0.107404
    14  H    0.455860   0.528836  -0.024381  -0.107404  -0.004530   0.004323
    15  H    0.455828  -0.024381   0.528853  -0.107392   0.004324  -0.004530
    16  C   -0.783068  -0.107404  -0.107392   6.657938   0.455821   0.455866
    17  H   -0.107392  -0.004530   0.004324   0.455821   0.528846  -0.024382
    18  H   -0.107404   0.004323  -0.004530   0.455866  -0.024382   0.528843
    19  N    0.207590  -0.057856  -0.057842  -0.047117   0.005738   0.005722
    20  N   -0.047120   0.005722   0.005738   0.207590  -0.057841  -0.057856
              19         20
     1  C   -0.047091   0.207571
     2  C    0.207572  -0.047093
     3  H    0.005724  -0.057845
     4  H    0.005738  -0.057819
     5  H   -0.057828   0.005740
     6  H   -0.057835   0.005721
     7  C   -0.047096   0.207606
     8  H    0.005723  -0.057855
     9  H    0.005739  -0.057829
    10  C    0.207603  -0.047091
    11  H   -0.057839   0.005740
    12  H   -0.057844   0.005723
    13  C    0.207590  -0.047120
    14  H   -0.057856   0.005722
    15  H   -0.057842   0.005738
    16  C   -0.047117   0.207590
    17  H    0.005738  -0.057841
    18  H    0.005722  -0.057856
    19  N    7.068798  -0.088774
    20  N   -0.088774   7.068797
 Mulliken charges:
               1
     1  C   -0.347144
     2  C   -0.347144
     3  H    0.198354
     4  H    0.198368
     5  H    0.198363
     6  H    0.198359
     7  C   -0.347122
     8  H    0.198355
     9  H    0.198375
    10  C   -0.347117
    11  H    0.198364
    12  H    0.198367
    13  C   -0.347083
    14  H    0.198358
    15  H    0.198359
    16  C   -0.347080
    17  H    0.198367
    18  H    0.198351
    19  N   -0.148825
    20  N   -0.148826
 Sum of Mulliken charges =   0.00000
 Mulliken charges with hydrogens summed into heavy atoms:
               1
     1  C    0.049579
     2  C    0.049578
     7  C    0.049608
    10  C    0.049614
    13  C    0.049634
    16  C    0.049638
    19  N   -0.148825
    20  N   -0.148826
 Electronic spatial extent (au):  <R**2>=            771.5207
 Charge=              0.0000 electrons
 Dipole moment (field-independent basis, Debye):
    X=              0.0000    Y=              0.0000    Z=              0.0000  Tot=              0.0000
 Quadrupole moment (field-independent basis, Debye-Ang):
   XX=            -59.5898   YY=            -47.5480   ZZ=            -47.5475
   XY=             -0.0007   XZ=             -0.0011   YZ=              0.0005
 Traceless Quadrupole moment (field-independent basis, Debye-Ang):
   XX=             -8.0280   YY=              4.0138   ZZ=              4.0143
   XY=             -0.0007   XZ=             -0.0011   YZ=              0.0005
 Octapole moment (field-independent basis, Debye-Ang**2):
  XXX=              0.0000  YYY=             -0.3888  ZZZ=             -1.7844  XYY=             -0.0001
  XXY=              0.0012  XXZ=              0.0012  XZZ=              0.0001  YZZ=              0.3882
  YYZ=              1.7845  XYZ=             -0.0002
 Hexadecapole moment (field-independent basis, Debye-Ang**3):
 XXXX=           -419.1827 YYYY=           -349.2151 ZZZZ=           -349.1978 XXXY=             -0.0041
 XXXZ=             -0.0059 YYYX=             -0.0044 YYYZ=              0.0028 ZZZX=              0.0016
 ZZZY=              0.0004 XXYY=           -115.7211 XXZZ=           -115.7198 YYZZ=           -116.4035
 XXYZ=              0.0001 YYXZ=             -0.0009 ZZXY=              0.0050
 N-N= 4.232225080131D+02 E-N=-1.646654384568D+03  KE= 3.419911452594D+02
 Evaluate density.
 Using the total density.
 Monte-Carlo method of calculating molar volume:
 based on  0.001 e/bohr**3 density envelope.
 Number of points per bohr**3 =   20 CutOff= 1.00D-04
 Using the SCF density.
 There are       337 points.  Will hold       337 in memory.
 LenV=  8321407324 MDV=  8321499136.
 Box volume = 4798.731 fraction occupied=0.199
 Integrated density= 4.9844816164298180D+01 error=-1.2155183835701820D+01
 Molar volume =  954.050 bohr**3/mol ( 85.138 cm**3/mol)
 Recommended a0 for SCRF calculation =  4.06 angstrom (  7.67 bohr)
 Calling FoFJK, ICntrl=      2127 FMM=F ISym2X=0 I1Cent= 0 IOpClX= 0 NMat=1 NMatS=1 NMatT=0.
 ***** Axes restored to original set *****
 -------------------------------------------------------------------
 Center     Atomic                   Forces (Hartrees/Bohr)
 Number     Number              X              Y              Z
 -------------------------------------------------------------------
      1        6           0.000033835    0.000010923    0.000025838
      2        6          -0.000034745    0.000010095    0.000024683
      3        1          -0.000005043   -0.000010088   -0.000017785
      4        1          -0.000008456   -0.000010275   -0.000016055
      5        1           0.000004689   -0.000009710   -0.000019395
      6        1           0.000009169   -0.000009170   -0.000014410
      7        6          -0.000049364    0.000004752   -0.000018503
      8        1          -0.000016085   -0.000004633    0.000017213
      9        1           0.000000583   -0.000025371    0.000003166
     10        6           0.000049048    0.000006092   -0.000017413
     11        1           0.000015839   -0.000006482    0.000017751
     12        1          -0.000000363   -0.000024544    0.000002139
     13        6          -0.000080861   -0.000010394   -0.000008100
     14        1           0.000010903   -0.000001280    0.000000470
     15        1           0.000007047    0.000009574   -0.000004181
     16        6           0.000080324   -0.000010676   -0.000005307
     17        1          -0.000010555    0.000000136   -0.000000297
     18        1          -0.000006830    0.000009203   -0.000004438
     19        7           0.000060347    0.000035385    0.000017864
     20        7          -0.000059481    0.000036463    0.000016759
 -------------------------------------------------------------------
 Cartesian Forces:  Max     0.000080861 RMS     0.000025100

 GradGradGradGradGradGradGradGradGradGradGradGradGradGradGradGradGradGrad
 Berny optimization.
 FormGI is forming the generalized inverse of G from B-inverse, IUseBI=4.
 Internal  Forces:  Max     0.000070460 RMS     0.000011225
 Search for a local minimum.
 Step number   1 out of a maximum of  120
 All quantities printed in internal units (Hartrees-Bohrs-Radians)
 Mixed Optimization -- En-DIIS/RFO-DIIS
 Second derivative matrix not updated -- first step.
 ITU=  0
     Eigenvalues ---    0.00369   0.00764   0.00764   0.02756   0.02757
     Eigenvalues ---    0.02982   0.03891   0.03892   0.04200   0.04643
     Eigenvalues ---    0.05015   0.05368   0.05368   0.05689   0.05690
     Eigenvalues ---    0.06729   0.08168   0.08327   0.08421   0.08421
     Eigenvalues ---    0.08575   0.08575   0.09190   0.09191   0.09205
     Eigenvalues ---    0.09206   0.09225   0.09266   0.10948   0.13414
     Eigenvalues ---    0.13414   0.18177   0.18177   0.23861   0.23873
     Eigenvalues ---    0.26287   0.30558   0.31992   0.31994   0.34018
     Eigenvalues ---    0.34018   0.34019   0.34019   0.34020   0.34020
     Eigenvalues ---    0.34021   0.34021   0.34022   0.34022   0.34023
     Eigenvalues ---    0.34023   0.34342   0.34344   0.35107
 RFO step:  Lambda=-1.16058817D-07 EMin= 3.68779438D-03
 Linear search not attempted -- first point.
 Iteration  1 RMS(Cart)=  0.00012001 RMS(Int)=  0.00000001
 Iteration  2 RMS(Cart)=  0.00000001 RMS(Int)=  0.00000001
 Variable       Old X    -DE/DX   Delta X   Delta X   Delta X     New X
                                 (Linear)    (Quad)   (Total)
    R1        2.96052   0.00000   0.00000   0.00000   0.00000   2.96051
    R2        2.07298  -0.00001   0.00000  -0.00004  -0.00004   2.07294
    R3        2.07293   0.00000   0.00000   0.00001   0.00001   2.07293
    R4        2.78798   0.00000   0.00000  -0.00001  -0.00001   2.78798
    R5        2.07298  -0.00001   0.00000  -0.00004  -0.00004   2.07294
    R6        2.07293   0.00000   0.00000   0.00001   0.00001   2.07293
    R7        2.78798   0.00000   0.00000  -0.00001  -0.00001   2.78798
    R8        2.07297  -0.00001   0.00000  -0.00003  -0.00003   2.07294
    R9        2.07299  -0.00002   0.00000  -0.00006  -0.00006   2.07293
   R10        2.96005   0.00007   0.00000   0.00029   0.00029   2.96033
   R11        2.78805  -0.00002   0.00000  -0.00005  -0.00005   2.78801
   R12        2.07297  -0.00001   0.00000  -0.00003  -0.00003   2.07294
   R13        2.07299  -0.00002   0.00000  -0.00006  -0.00006   2.07293
   R14        2.78805  -0.00002   0.00000  -0.00005  -0.00005   2.78800
   R15        2.07291   0.00000   0.00000   0.00001   0.00001   2.07292
   R16        2.07294  -0.00001   0.00000  -0.00002  -0.00002   2.07292
   R17        2.96073  -0.00003   0.00000  -0.00013  -0.00013   2.96060
   R18        2.78799   0.00002   0.00000   0.00005   0.00005   2.78804
   R19        2.07291   0.00000   0.00000   0.00001   0.00001   2.07292
   R20        2.07294  -0.00001   0.00000  -0.00002  -0.00002   2.07292
   R21        2.78799   0.00002   0.00000   0.00004   0.00004   2.78804
    A1        1.94724   0.00001   0.00000   0.00010   0.00010   1.94734
    A2        1.94733   0.00001   0.00000   0.00005   0.00005   1.94739
    A3        1.92157   0.00001   0.00000   0.00008   0.00008   1.92164
    A4        1.87462   0.00000   0.00000   0.00007   0.00007   1.87470
    A5        1.88526  -0.00001   0.00000  -0.00013  -0.00013   1.88513
    A6        1.88536  -0.00001   0.00000  -0.00019  -0.00019   1.88517
    A7        1.94725   0.00001   0.00000   0.00010   0.00010   1.94735
    A8        1.94731   0.00001   0.00000   0.00006   0.00006   1.94737
    A9        1.92156   0.00001   0.00000   0.00008   0.00008   1.92164
   A10        1.87463   0.00000   0.00000   0.00007   0.00007   1.87470
   A11        1.88532  -0.00001   0.00000  -0.00014  -0.00014   1.88518
   A12        1.88531  -0.00001   0.00000  -0.00018  -0.00018   1.88513
   A13        1.87466   0.00000   0.00000   0.00001   0.00001   1.87467
   A14        1.94719   0.00002   0.00000   0.00020   0.00020   1.94740
   A15        1.88519  -0.00001   0.00000  -0.00011  -0.00011   1.88509
   A16        1.94740   0.00000   0.00000   0.00002   0.00002   1.94742
   A17        1.88528  -0.00001   0.00000  -0.00017  -0.00017   1.88511
   A18        1.92164   0.00000   0.00000   0.00003   0.00003   1.92167
   A19        1.94721   0.00002   0.00000   0.00021   0.00021   1.94741
   A20        1.94739   0.00000   0.00000   0.00002   0.00002   1.94741
   A21        1.92164   0.00000   0.00000   0.00003   0.00003   1.92167
   A22        1.87466   0.00000   0.00000   0.00001   0.00001   1.87467
   A23        1.88525  -0.00001   0.00000  -0.00012  -0.00012   1.88513
   A24        1.88523  -0.00001   0.00000  -0.00016  -0.00016   1.88507
   A25        1.87484   0.00000   0.00000  -0.00007  -0.00007   1.87477
   A26        1.94728   0.00001   0.00000   0.00007   0.00007   1.94735
   A27        1.88522  -0.00001   0.00000  -0.00004  -0.00004   1.88518
   A28        1.94728   0.00000   0.00000   0.00004   0.00004   1.94731
   A29        1.88525  -0.00001   0.00000  -0.00011  -0.00011   1.88514
   A30        1.92152   0.00001   0.00000   0.00009   0.00009   1.92162
   A31        1.94730   0.00001   0.00000   0.00007   0.00007   1.94737
   A32        1.94726   0.00000   0.00000   0.00003   0.00003   1.94730
   A33        1.92152   0.00001   0.00000   0.00010   0.00010   1.92162
   A34        1.87483   0.00000   0.00000  -0.00006  -0.00006   1.87477
   A35        1.88526  -0.00001   0.00000  -0.00005  -0.00005   1.88522
   A36        1.88521  -0.00001   0.00000  -0.00010  -0.00010   1.88510
   A37        1.89951   0.00001   0.00000   0.00001   0.00001   1.89952
   A38        1.89957  -0.00001   0.00000  -0.00009  -0.00009   1.89949
   A39        1.89961  -0.00001   0.00000  -0.00014  -0.00014   1.89947
   A40        1.89950   0.00001   0.00000   0.00002   0.00002   1.89952
   A41        1.89958  -0.00001   0.00000  -0.00010  -0.00010   1.89949
   A42        1.89961  -0.00001   0.00000  -0.00013  -0.00013   1.89947
    D1        0.00055   0.00000   0.00000  -0.00009  -0.00009   0.00045
    D2        2.09753   0.00001   0.00000   0.00010   0.00010   2.09763
    D3       -2.09254   0.00000   0.00000  -0.00003  -0.00003  -2.09257
    D4       -2.09643  -0.00001   0.00000  -0.00029  -0.00029  -2.09672
    D5        0.00055   0.00000   0.00000  -0.00010  -0.00010   0.00045
    D6        2.09367  -0.00001   0.00000  -0.00023  -0.00023   2.09344
    D7        2.09355  -0.00001   0.00000  -0.00014  -0.00014   2.09342
    D8       -2.09265   0.00001   0.00000   0.00006   0.00006  -2.09259
    D9        0.00047   0.00000   0.00000  -0.00008  -0.00008   0.00039
   D10       -1.03415   0.00001   0.00000   0.00014   0.00014  -1.03401
   D11        1.03372  -0.00001   0.00000  -0.00006  -0.00006   1.03366
   D12        1.09600   0.00001   0.00000   0.00023   0.00023   1.09623
   D13       -3.11931   0.00000   0.00000   0.00003   0.00003  -3.11928
   D14        3.11869   0.00000   0.00000   0.00015   0.00015   3.11884
   D15       -1.09662  -0.00001   0.00000  -0.00005  -0.00005  -1.09668
   D16        1.03362  -0.00001   0.00000  -0.00005  -0.00005   1.03357
   D17       -1.03426   0.00001   0.00000   0.00016   0.00016  -1.03411
   D18       -1.09660  -0.00001   0.00000  -0.00013  -0.00013  -1.09672
   D19        3.11871   0.00000   0.00000   0.00008   0.00008   3.11879
   D20       -3.11929   0.00000   0.00000  -0.00004  -0.00004  -3.11933
   D21        1.09602   0.00001   0.00000   0.00016   0.00016   1.09618
   D22        0.00053   0.00000   0.00000  -0.00008  -0.00008   0.00045
   D23        2.09757   0.00001   0.00000   0.00009   0.00009   2.09766
   D24       -2.09249   0.00000   0.00000  -0.00008  -0.00008  -2.09257
   D25       -2.09652  -0.00001   0.00000  -0.00025  -0.00025  -2.09676
   D26        0.00053   0.00000   0.00000  -0.00008  -0.00008   0.00045
   D27        2.09365  -0.00001   0.00000  -0.00025  -0.00025   2.09340
   D28        2.09348   0.00000   0.00000  -0.00006  -0.00006   2.09341
   D29       -2.09266   0.00001   0.00000   0.00011   0.00011  -2.09256
   D30        0.00046   0.00000   0.00000  -0.00007  -0.00007   0.00039
   D31       -3.11940   0.00000   0.00000   0.00011   0.00011  -3.11929
   D32        1.09592   0.00002   0.00000   0.00029   0.00029   1.09621
   D33       -1.09675  -0.00001   0.00000  -0.00002  -0.00002  -1.09677
   D34        3.11858   0.00000   0.00000   0.00016   0.00016   3.11873
   D35        1.03367  -0.00001   0.00000  -0.00009  -0.00009   1.03359
   D36       -1.03418   0.00000   0.00000   0.00009   0.00009  -1.03409
   D37       -1.03419   0.00001   0.00000   0.00016   0.00016  -1.03403
   D38        1.03366   0.00000   0.00000  -0.00001  -0.00001   1.03365
   D39        3.11883   0.00000   0.00000  -0.00003  -0.00003   3.11880
   D40       -1.09650  -0.00002   0.00000  -0.00020  -0.00020  -1.09670
   D41        1.09618   0.00001   0.00000   0.00010   0.00010   1.09628
   D42       -3.11915   0.00000   0.00000  -0.00007  -0.00007  -3.11922
   D43        0.00051   0.00000   0.00000  -0.00006  -0.00006   0.00045
   D44        2.09775   0.00000   0.00000  -0.00007  -0.00007   2.09768
   D45       -2.09251   0.00000   0.00000  -0.00011  -0.00011  -2.09262
   D46       -2.09673   0.00000   0.00000  -0.00005  -0.00005  -2.09679
   D47        0.00051   0.00000   0.00000  -0.00006  -0.00006   0.00045
   D48        2.09343  -0.00001   0.00000  -0.00010  -0.00010   2.09333
   D49        2.09346   0.00000   0.00000  -0.00001  -0.00001   2.09346
   D50       -2.09248   0.00001   0.00000  -0.00001  -0.00001  -2.09249
   D51        0.00044   0.00000   0.00000  -0.00006  -0.00006   0.00039
   D52       -3.11931   0.00000   0.00000   0.00005   0.00005  -3.11926
   D53        1.09606   0.00001   0.00000   0.00016   0.00016   1.09622
   D54       -1.09645  -0.00001   0.00000  -0.00011  -0.00011  -1.09656
   D55        3.11892  -0.00001   0.00000   0.00000   0.00000   3.11892
   D56        1.03372  -0.00001   0.00000  -0.00007  -0.00007   1.03364
   D57       -1.03410  -0.00001   0.00000   0.00004   0.00004  -1.03406
   D58       -1.03421   0.00001   0.00000   0.00013   0.00013  -1.03409
   D59        1.03359   0.00001   0.00000   0.00002   0.00002   1.03362
   D60        3.11876   0.00000   0.00000   0.00001   0.00001   3.11878
   D61       -1.09661   0.00000   0.00000  -0.00009  -0.00009  -1.09670
   D62        1.09592   0.00001   0.00000   0.00016   0.00016   1.09607
   D63       -3.11946   0.00001   0.00000   0.00006   0.00006  -3.11941
         Item               Value     Threshold  Converged?
 Maximum Force            0.000070     0.000450     YES
 RMS     Force            0.000011     0.000300     YES
 Maximum Displacement     0.000580     0.001800     YES
 RMS     Displacement     0.000120     0.001200     YES
 Predicted change in Energy=-5.802860D-08
 Optimization completed.
    -- Stationary point found.
                           ----------------------------
                           !   Optimized Parameters   !
                           ! (Angstroms and Degrees)  !
 --------------------------                            --------------------------
 ! Name  Definition              Value          Derivative Info.                !
 --------------------------------------------------------------------------------
 ! R1    R(1,2)                  1.5666         -DE/DX =    0.0                 !
 ! R2    R(1,3)                  1.097          -DE/DX =    0.0                 !
 ! R3    R(1,4)                  1.0969         -DE/DX =    0.0                 !
 ! R4    R(1,20)                 1.4753         -DE/DX =    0.0                 !
 ! R5    R(2,5)                  1.097          -DE/DX =    0.0                 !
 ! R6    R(2,6)                  1.0969         -DE/DX =    0.0                 !
 ! R7    R(2,19)                 1.4753         -DE/DX =    0.0                 !
 ! R8    R(7,8)                  1.097          -DE/DX =    0.0                 !
 ! R9    R(7,9)                  1.097          -DE/DX =    0.0                 !
 ! R10   R(7,10)                 1.5664         -DE/DX =    0.0001              !
 ! R11   R(7,20)                 1.4754         -DE/DX =    0.0                 !
 ! R12   R(10,11)                1.097          -DE/DX =    0.0                 !
 ! R13   R(10,12)                1.097          -DE/DX =    0.0                 !
 ! R14   R(10,19)                1.4754         -DE/DX =    0.0                 !
 ! R15   R(13,14)                1.0969         -DE/DX =    0.0                 !
 ! R16   R(13,15)                1.097          -DE/DX =    0.0                 !
 ! R17   R(13,16)                1.5668         -DE/DX =    0.0                 !
 ! R18   R(13,19)                1.4753         -DE/DX =    0.0                 !
 ! R19   R(16,17)                1.0969         -DE/DX =    0.0                 !
 ! R20   R(16,18)                1.097          -DE/DX =    0.0                 !
 ! R21   R(16,20)                1.4753         -DE/DX =    0.0                 !
 ! A1    A(2,1,3)              111.5684         -DE/DX =    0.0                 !
 ! A2    A(2,1,4)              111.574          -DE/DX =    0.0                 !
 ! A3    A(2,1,20)             110.0976         -DE/DX =    0.0                 !
 ! A4    A(3,1,4)              107.408          -DE/DX =    0.0                 !
 ! A5    A(3,1,20)             108.0175         -DE/DX =    0.0                 !
 ! A6    A(4,1,20)             108.0234         -DE/DX =    0.0                 !
 ! A7    A(1,2,5)              111.5694         -DE/DX =    0.0                 !
 ! A8    A(1,2,6)              111.5729         -DE/DX =    0.0                 !
 ! A9    A(1,2,19)             110.0973         -DE/DX =    0.0                 !
 ! A10   A(5,2,6)              107.4083         -DE/DX =    0.0                 !
 ! A11   A(5,2,19)             108.0207         -DE/DX =    0.0                 !
 ! A12   A(6,2,19)             108.0204         -DE/DX =    0.0                 !
 ! A13   A(8,7,9)              107.4104         -DE/DX =    0.0                 !
 ! A14   A(8,7,10)             111.5658         -DE/DX =    0.0                 !
 ! A15   A(8,7,20)             108.0137         -DE/DX =    0.0                 !
 ! A16   A(9,7,10)             111.578          -DE/DX =    0.0                 !
 ! A17   A(9,7,20)             108.0185         -DE/DX =    0.0                 !
 ! A18   A(10,7,20)            110.1021         -DE/DX =    0.0                 !
 ! A19   A(7,10,11)            111.5667         -DE/DX =    0.0                 !
 ! A20   A(7,10,12)            111.5772         -DE/DX =    0.0                 !
 ! A21   A(7,10,19)            110.1021         -DE/DX =    0.0                 !
 ! A22   A(11,10,12)           107.4102         -DE/DX =    0.0                 !
 ! A23   A(11,10,19)           108.0166         -DE/DX =    0.0                 !
 ! A24   A(12,10,19)           108.0157         -DE/DX =    0.0                 !
 ! A25   A(14,13,15)           107.4204         -DE/DX =    0.0                 !
 ! A26   A(14,13,16)           111.5708         -DE/DX =    0.0                 !
 ! A27   A(14,13,19)           108.0151         -DE/DX =    0.0                 !
 ! A28   A(15,13,16)           111.5707         -DE/DX =    0.0                 !
 ! A29   A(15,13,19)           108.0168         -DE/DX =    0.0                 !
 ! A30   A(16,13,19)           110.0952         -DE/DX =    0.0                 !
 ! A31   A(13,16,17)           111.5719         -DE/DX =    0.0                 !
 ! A32   A(13,16,18)           111.57           -DE/DX =    0.0                 !
 ! A33   A(13,16,20)           110.0951         -DE/DX =    0.0                 !
 ! A34   A(17,16,18)           107.42           -DE/DX =    0.0                 !
 ! A35   A(17,16,20)           108.0176         -DE/DX =    0.0                 !
 ! A36   A(18,16,20)           108.0143         -DE/DX =    0.0                 !
 ! A37   A(2,19,10)            108.8339         -DE/DX =    0.0                 !
 ! A38   A(2,19,13)            108.8374         -DE/DX =    0.0                 !
 ! A39   A(10,19,13)           108.8397         -DE/DX =    0.0                 !
 ! A40   A(1,20,7)             108.8335         -DE/DX =    0.0                 !
 ! A41   A(1,20,16)            108.8381         -DE/DX =    0.0                 !
 ! A42   A(7,20,16)            108.8394         -DE/DX =    0.0                 !
 ! D1    D(3,1,2,5)              0.0313         -DE/DX =    0.0                 !
 ! D2    D(3,1,2,6)            120.1794         -DE/DX =    0.0                 !
 ! D3    D(3,1,2,19)          -119.8937         -DE/DX =    0.0                 !
 ! D4    D(4,1,2,5)           -120.1165         -DE/DX =    0.0                 !
 ! D5    D(4,1,2,6)              0.0316         -DE/DX =    0.0                 !
 ! D6    D(4,1,2,19)           119.9585         -DE/DX =    0.0                 !
 ! D7    D(20,1,2,5)           119.9519         -DE/DX =    0.0                 !
 ! D8    D(20,1,2,6)          -119.9            -DE/DX =    0.0                 !
 ! D9    D(20,1,2,19)            0.0269         -DE/DX =    0.0                 !
 ! D10   D(2,1,20,7)           -59.2527         -DE/DX =    0.0                 !
 ! D11   D(2,1,20,16)           59.2277         -DE/DX =    0.0                 !
 ! D12   D(3,1,20,7)            62.7964         -DE/DX =    0.0                 !
 ! D13   D(3,1,20,16)         -178.7233         -DE/DX =    0.0                 !
 ! D14   D(4,1,20,7)           178.6876         -DE/DX =    0.0                 !
 ! D15   D(4,1,20,16)          -62.832          -DE/DX =    0.0                 !
 ! D16   D(1,2,19,10)           59.2218         -DE/DX =    0.0                 !
 ! D17   D(1,2,19,13)          -59.2589         -DE/DX =    0.0                 !
 ! D18   D(5,2,19,10)          -62.8303         -DE/DX =    0.0                 !
 ! D19   D(5,2,19,13)          178.689          -DE/DX =    0.0                 !
 ! D20   D(6,2,19,10)         -178.722          -DE/DX =    0.0                 !
 ! D21   D(6,2,19,13)           62.7973         -DE/DX =    0.0                 !
 ! D22   D(8,7,10,11)            0.0304         -DE/DX =    0.0                 !
 ! D23   D(8,7,10,12)          120.1821         -DE/DX =    0.0                 !
 ! D24   D(8,7,10,19)         -119.8909         -DE/DX =    0.0                 !
 ! D25   D(9,7,10,11)         -120.1215         -DE/DX =    0.0                 !
 ! D26   D(9,7,10,12)            0.0302         -DE/DX =    0.0                 !
 ! D27   D(9,7,10,19)          119.9572         -DE/DX =    0.0                 !
 ! D28   D(20,7,10,11)         119.9474         -DE/DX =    0.0                 !
 ! D29   D(20,7,10,12)        -119.9008         -DE/DX =    0.0                 !
 ! D30   D(20,7,10,19)           0.0261         -DE/DX =    0.0                 !
 ! D31   D(8,7,20,1)          -178.7286         -DE/DX =    0.0                 !
 ! D32   D(8,7,20,16)           62.7918         -DE/DX =    0.0                 !
 ! D33   D(9,7,20,1)           -62.8391         -DE/DX =    0.0                 !
 ! D34   D(9,7,20,16)          178.6814         -DE/DX =    0.0                 !
 ! D35   D(10,7,20,1)           59.2252         -DE/DX =    0.0                 !
 ! D36   D(10,7,20,16)         -59.2544         -DE/DX =    0.0                 !
 ! D37   D(7,10,19,2)          -59.255          -DE/DX =    0.0                 !
 ! D38   D(7,10,19,13)          59.2243         -DE/DX =    0.0                 !
 ! D39   D(11,10,19,2)         178.6958         -DE/DX =    0.0                 !
 ! D40   D(11,10,19,13)        -62.8249         -DE/DX =    0.0                 !
 ! D41   D(12,10,19,2)          62.8065         -DE/DX =    0.0                 !
 ! D42   D(12,10,19,13)       -178.7142         -DE/DX =    0.0                 !
 ! D43   D(14,13,16,17)          0.0292         -DE/DX =    0.0                 !
 ! D44   D(14,13,16,18)        120.1921         -DE/DX =    0.0                 !
 ! D45   D(14,13,16,20)       -119.892          -DE/DX =    0.0                 !
 ! D46   D(15,13,16,17)       -120.1339         -DE/DX =    0.0                 !
 ! D47   D(15,13,16,18)          0.029          -DE/DX =    0.0                 !
 ! D48   D(15,13,16,20)        119.9449         -DE/DX =    0.0                 !
 ! D49   D(19,13,16,17)        119.9467         -DE/DX =    0.0                 !
 ! D50   D(19,13,16,18)       -119.8905         -DE/DX =    0.0                 !
 ! D51   D(19,13,16,20)          0.0254         -DE/DX =    0.0                 !
 ! D52   D(14,13,19,2)        -178.7234         -DE/DX =    0.0                 !
 ! D53   D(14,13,19,10)         62.7995         -DE/DX =    0.0                 !
 ! D54   D(15,13,19,2)         -62.8222         -DE/DX =    0.0                 !
 ! D55   D(15,13,19,10)        178.7007         -DE/DX =    0.0                 !
 ! D56   D(16,13,19,2)          59.2276         -DE/DX =    0.0                 !
 ! D57   D(16,13,19,10)        -59.2495         -DE/DX =    0.0                 !
 ! D58   D(13,16,20,1)         -59.2561         -DE/DX =    0.0                 !
 ! D59   D(13,16,20,7)          59.2206         -DE/DX =    0.0                 !
 ! D60   D(17,16,20,1)         178.6921         -DE/DX =    0.0                 !
 ! D61   D(17,16,20,7)         -62.8312         -DE/DX =    0.0                 !
 ! D62   D(18,16,20,1)          62.7913         -DE/DX =    0.0                 !
 ! D63   D(18,16,20,7)        -178.732          -DE/DX =    0.0                 !
 --------------------------------------------------------------------------------
 GradGradGradGradGradGradGradGradGradGradGradGradGradGradGradGradGradGrad

                          Input orientation:                          
 ---------------------------------------------------------------------
 Center     Atomic      Atomic             Coordinates (Angstroms)
 Number     Number       Type             X           Y           Z
 ---------------------------------------------------------------------
      1          6           0       -0.783214    0.107637    1.381353
      2          6           0        0.783425    0.107354    1.381259
      3          1           0       -1.186281    1.028822    1.819881
      4          1           0       -1.186681   -0.734037    1.957625
      5          1           0        1.186896    1.028148    1.820239
      6          1           0        1.186637   -0.734789    1.957022
      7          6           0       -0.783338    1.142373   -0.783829
      8          1           0       -1.186410    1.061469   -1.800847
      9          1           0       -1.187017    2.062187   -0.342977
     10          6           0        0.783051    1.142699   -0.783639
     11          1           0        1.186419    1.062503   -1.800597
     12          1           0        1.186225    2.062453   -0.342202
     13          6           0        0.783414   -1.249918   -0.597797
     14          1           0        1.186417   -1.327332   -1.615082
     15          1           0        1.187024   -2.090368   -0.019826
     16          6           0       -0.783336   -1.250190   -0.597334
     17          1           0       -1.186932   -1.328262   -1.614333
     18          1           0       -1.186301   -2.090491   -0.018697
     19          7           0        1.290272    0.000088   -0.000125
     20          7           0       -1.290273   -0.000093    0.000084
 ---------------------------------------------------------------------
                    Distance matrix (angstroms):
                    1          2          3          4          5
     1  C    0.000000
     2  C    1.566639   0.000000
     3  H    1.096974   2.218386   0.000000
     4  H    1.096946   2.218435   1.768232   0.000000
     5  H    2.218399   1.096975   2.373177   2.959398   0.000000
     6  H    2.218420   1.096945   2.959708   2.373318   1.768235
     7  C    2.399727   2.865941   2.637150   3.346516   3.267421
     8  H    3.346455   3.862173   3.620875   4.165328   4.329660
     9  H    2.637544   3.267568   2.397040   3.621000   3.374048
    10  C    2.865612   2.399734   3.266428   3.862190   2.637498
    11  H    3.862128   3.346479   4.328822   4.794100   3.620999
    12  H    3.266594   2.637229   3.372207   4.329000   2.397069
    13  C    2.866062   2.399760   3.862321   3.267658   3.346533
    14  H    3.862280   3.346459   4.793759   4.329876   4.165299
    15  H    3.267471   2.637407   4.329716   3.374081   3.620909
    16  C    2.399770   2.865745   3.346519   2.637597   3.862292
    17  H    3.346480   3.862237   4.165294   3.621048   4.794164
    18  H    2.637117   3.266530   3.620840   2.397043   4.328933
    19  N    2.493871   1.475338   3.240992   3.241453   2.093160
    20  N    1.475337   2.493875   2.093118   2.093173   3.241390
                    6          7          8          9         10
     6  H    0.000000
     7  C    3.862228   0.000000
     8  H    4.793691   1.096968   0.000000
     9  H    4.329816   1.096980   1.768282   0.000000
    10  C    3.346500   1.566389   2.218127   2.218290   0.000000
    11  H    4.165328   2.218139   2.372829   2.959260   1.096969
    12  H    3.620911   2.218279   2.959563   2.373242   1.096979
    13  C    2.637242   2.865724   3.266504   3.862327   2.399824
    14  H    3.620916   3.266552   3.372119   4.329004   2.637244
    15  H    2.396982   3.862207   4.328891   4.794185   3.346540
    16  C    3.266675   2.399820   2.637173   3.346565   2.866042
    17  H    4.329043   2.637549   2.396999   3.620979   3.267497
    18  H    3.372273   3.346523   3.620899   4.165320   3.862253
    19  N    2.093134   2.493765   3.240846   3.241413   1.475374
    20  N    3.241060   1.475375   2.093097   2.093168   2.493766
                   11         12         13         14         15
    11  H    0.000000
    12  H    1.768281   0.000000
    13  C    2.637505   3.346549   0.000000
    14  H    2.397025   3.620893   1.096938   0.000000
    15  H    3.621014   4.165315   1.096954   1.768351   0.000000
    16  C    3.267465   3.862365   1.566750   2.218488   2.218498
    17  H    3.373907   4.329797   2.218501   2.373349   2.959548
    18  H    4.329704   4.793796   2.218490   2.959839   2.373325
    19  N    2.093134   2.093130   1.475341   2.093064   2.093097
    20  N    3.241229   3.241033   2.493933   3.241037   3.241396
                   16         17         18         19         20
    16  C    0.000000
    17  H    1.096938   0.000000
    18  H    1.096954   1.768346   0.000000
    19  N    2.493933   3.241407   3.241031   0.000000
    20  N    1.475343   2.093097   2.093066   2.580545   0.000000
 Stoichiometry    C6H12N2
 Framework group  C1[X(C6H12N2)]
 Deg. of freedom    54
 Full point group                 C1      NOp   1
 Largest Abelian subgroup         C1      NOp   1
 Largest concise Abelian subgroup C1      NOp   1
                         Standard orientation:                         
 ---------------------------------------------------------------------
 Center     Atomic      Atomic             Coordinates (Angstroms)
 Number     Number       Type             X           Y           Z
 ---------------------------------------------------------------------
      1          6           0        0.783205   -0.098870    1.382013
      2          6           0       -0.783434   -0.098575    1.381908
      3          1           0        1.186262   -1.017255    1.826384
      4          1           0        1.186676    0.746443    1.952932
      5          1           0       -1.186915   -1.016560    1.826724
      6          1           0       -1.186642    0.747210    1.952310
      7          6           0        0.783333   -1.147333   -0.776555
      8          1           0        1.186412   -1.072892   -1.794064
      9          1           0        1.187003   -2.064333   -0.329869
     10          6           0       -0.783056   -1.147646   -0.776372
     11          1           0       -1.186417   -1.073905   -1.793821
     12          1           0       -1.186239   -2.064575   -0.329106
     13          6           0       -0.783401    1.246103   -0.605726
     14          1           0       -1.186397    1.317059   -1.623484
     15          1           0       -1.187007    2.090209   -0.033106
     16          6           0        0.783349    1.246366   -0.605256
     17          1           0        1.186952    1.317975   -1.622728
     18          1           0        1.186318    2.090321   -0.031964
     19          7           0       -1.290272   -0.000079   -0.000132
     20          7           0        1.290273    0.000083    0.000091
 ---------------------------------------------------------------------
 Rotational constants (GHZ):           2.6450075           2.4851337           2.4850673
 1\1\GINC-IP-172-31-38-84\FOpt\RB3LYP\6-31+G(d)\C6H12N2\UBUNTU\13-Sep-2
 023\0\\# opt freq b3lyp/6-31+g(d) empiricaldispersion=gd3 scf=maxcycle
 =1000 volume\\Title Card Required\\0,1\C,-0.783214,0.107637,1.381353\C
 ,0.783425,0.107354,1.381259\H,-1.186281,1.028822,1.819881\H,-1.186681,
 -0.734037,1.957625\H,1.186896,1.028148,1.820239\H,1.186637,-0.734789,1
 .957022\C,-0.783338,1.142373,-0.783829\H,-1.18641,1.061469,-1.800847\H
 ,-1.187017,2.062187,-0.342977\C,0.783051,1.142699,-0.783639\H,1.186419
 ,1.062503,-1.800597\H,1.186225,2.062453,-0.342202\C,0.783414,-1.249918
 ,-0.597797\H,1.186417,-1.327332,-1.615082\H,1.187024,-2.090368,-0.0198
 26\C,-0.783336,-1.25019,-0.597334\H,-1.186932,-1.328262,-1.614333\H,-1
 .186301,-2.090491,-0.018697\N,1.290272,0.000088,-0.000125\N,-1.290273,
 -0.000093,0.000084\\Version=EM64L-G16RevB.01\State=1-A\HF=-345.3556873
 \RMSD=3.966e-09\RMSF=2.510e-05\Dipole=0.0000016,-0.0000147,0.0000015\Q
 uadrupole=-5.9686489,2.9841359,2.984513,-0.0006147,0.0007369,-0.000333
 5\PG=C01 [X(C6H12N2)]\\@


 Sometimes the fool who rushes in gets the job done.
                                    -- Al Bernstein
 Job cpu time:       0 days  0 hours  6 minutes  1.7 seconds.
 Elapsed time:       0 days  0 hours  0 minutes 11.4 seconds.
 File lengths (MBytes):  RWF=     20 Int=      0 D2E=      0 Chk=      4 Scr=      1
 Normal termination of Gaussian 16 at Wed Sep 13 09:24:54 2023.
 Link1:  Proceeding to internal job step number  2.
 ---------------------------------------------------------------------
 #N Geom=AllCheck Guess=TCheck SCRF=Check GenChk RB3LYP/6-31+G(d) Freq
 ---------------------------------------------------------------------
 1/10=4,29=7,30=1,38=1,40=1/1,3;
 2/12=2,40=1/2;
 3/5=1,6=6,7=11,11=2,14=-4,25=1,30=1,70=2,71=2,74=-5,116=1,124=31,140=1/1,2,3;
 4/5=101/1;
 5/5=2,7=1000,38=6,98=1/2;
 8/6=4,10=90,11=11/1;
 11/6=1,8=1,9=11,15=111,16=1/1,2,10;
 10/6=1/2;
 6/7=2,8=2,9=2,10=2,28=1/1;
 7/8=1,10=1,25=1/1,2,3,16;
 1/10=4,30=1/3;
 99//99;
 Structure from the checkpoint file:  "dabco-volume.chk"
 -------------------
 Title Card Required
 -------------------
 Charge =  0 Multiplicity = 1
 Redundant internal coordinates found in file.  (old form).
 C,0,-0.783214,0.107637,1.381353
 C,0,0.783425,0.107354,1.381259
 H,0,-1.186281,1.028822,1.819881
 H,0,-1.186681,-0.734037,1.957625
 H,0,1.186896,1.028148,1.820239
 H,0,1.186637,-0.734789,1.957022
 C,0,-0.783338,1.142373,-0.783829
 H,0,-1.18641,1.061469,-1.800847
 H,0,-1.187017,2.062187,-0.342977
 C,0,0.783051,1.142699,-0.783639
 H,0,1.186419,1.062503,-1.800597
 H,0,1.186225,2.062453,-0.342202
 C,0,0.783414,-1.249918,-0.597797
 H,0,1.186417,-1.327332,-1.615082
 H,0,1.187024,-2.090368,-0.019826
 C,0,-0.783336,-1.25019,-0.597334
 H,0,-1.186932,-1.328262,-1.614333
 H,0,-1.186301,-2.090491,-0.018697
 N,0,1.290272,0.000088,-0.000125
 N,0,-1.290273,-0.000093,0.000084
 Recover connectivity data from disk.

 GradGradGradGradGradGradGradGradGradGradGradGradGradGradGradGradGradGrad
 Berny optimization.
 Initialization pass.
                           ----------------------------
                           !    Initial Parameters    !
                           ! (Angstroms and Degrees)  !
 --------------------------                            --------------------------
 ! Name  Definition              Value          Derivative Info.                !
 --------------------------------------------------------------------------------
 ! R1    R(1,2)                  1.5666         calculate D2E/DX2 analytically  !
 ! R2    R(1,3)                  1.097          calculate D2E/DX2 analytically  !
 ! R3    R(1,4)                  1.0969         calculate D2E/DX2 analytically  !
 ! R4    R(1,20)                 1.4753         calculate D2E/DX2 analytically  !
 ! R5    R(2,5)                  1.097          calculate D2E/DX2 analytically  !
 ! R6    R(2,6)                  1.0969         calculate D2E/DX2 analytically  !
 ! R7    R(2,19)                 1.4753         calculate D2E/DX2 analytically  !
 ! R8    R(7,8)                  1.097          calculate D2E/DX2 analytically  !
 ! R9    R(7,9)                  1.097          calculate D2E/DX2 analytically  !
 ! R10   R(7,10)                 1.5664         calculate D2E/DX2 analytically  !
 ! R11   R(7,20)                 1.4754         calculate D2E/DX2 analytically  !
 ! R12   R(10,11)                1.097          calculate D2E/DX2 analytically  !
 ! R13   R(10,12)                1.097          calculate D2E/DX2 analytically  !
 ! R14   R(10,19)                1.4754         calculate D2E/DX2 analytically  !
 ! R15   R(13,14)                1.0969         calculate D2E/DX2 analytically  !
 ! R16   R(13,15)                1.097          calculate D2E/DX2 analytically  !
 ! R17   R(13,16)                1.5668         calculate D2E/DX2 analytically  !
 ! R18   R(13,19)                1.4753         calculate D2E/DX2 analytically  !
 ! R19   R(16,17)                1.0969         calculate D2E/DX2 analytically  !
 ! R20   R(16,18)                1.097          calculate D2E/DX2 analytically  !
 ! R21   R(16,20)                1.4753         calculate D2E/DX2 analytically  !
 ! A1    A(2,1,3)              111.5684         calculate D2E/DX2 analytically  !
 ! A2    A(2,1,4)              111.574          calculate D2E/DX2 analytically  !
 ! A3    A(2,1,20)             110.0976         calculate D2E/DX2 analytically  !
 ! A4    A(3,1,4)              107.408          calculate D2E/DX2 analytically  !
 ! A5    A(3,1,20)             108.0175         calculate D2E/DX2 analytically  !
 ! A6    A(4,1,20)             108.0234         calculate D2E/DX2 analytically  !
 ! A7    A(1,2,5)              111.5694         calculate D2E/DX2 analytically  !
 ! A8    A(1,2,6)              111.5729         calculate D2E/DX2 analytically  !
 ! A9    A(1,2,19)             110.0973         calculate D2E/DX2 analytically  !
 ! A10   A(5,2,6)              107.4083         calculate D2E/DX2 analytically  !
 ! A11   A(5,2,19)             108.0207         calculate D2E/DX2 analytically  !
 ! A12   A(6,2,19)             108.0204         calculate D2E/DX2 analytically  !
 ! A13   A(8,7,9)              107.4104         calculate D2E/DX2 analytically  !
 ! A14   A(8,7,10)             111.5658         calculate D2E/DX2 analytically  !
 ! A15   A(8,7,20)             108.0137         calculate D2E/DX2 analytically  !
 ! A16   A(9,7,10)             111.578          calculate D2E/DX2 analytically  !
 ! A17   A(9,7,20)             108.0185         calculate D2E/DX2 analytically  !
 ! A18   A(10,7,20)            110.1021         calculate D2E/DX2 analytically  !
 ! A19   A(7,10,11)            111.5667         calculate D2E/DX2 analytically  !
 ! A20   A(7,10,12)            111.5772         calculate D2E/DX2 analytically  !
 ! A21   A(7,10,19)            110.1021         calculate D2E/DX2 analytically  !
 ! A22   A(11,10,12)           107.4102         calculate D2E/DX2 analytically  !
 ! A23   A(11,10,19)           108.0166         calculate D2E/DX2 analytically  !
 ! A24   A(12,10,19)           108.0157         calculate D2E/DX2 analytically  !
 ! A25   A(14,13,15)           107.4204         calculate D2E/DX2 analytically  !
 ! A26   A(14,13,16)           111.5708         calculate D2E/DX2 analytically  !
 ! A27   A(14,13,19)           108.0151         calculate D2E/DX2 analytically  !
 ! A28   A(15,13,16)           111.5707         calculate D2E/DX2 analytically  !
 ! A29   A(15,13,19)           108.0168         calculate D2E/DX2 analytically  !
 ! A30   A(16,13,19)           110.0952         calculate D2E/DX2 analytically  !
 ! A31   A(13,16,17)           111.5719         calculate D2E/DX2 analytically  !
 ! A32   A(13,16,18)           111.57           calculate D2E/DX2 analytically  !
 ! A33   A(13,16,20)           110.0951         calculate D2E/DX2 analytically  !
 ! A34   A(17,16,18)           107.42           calculate D2E/DX2 analytically  !
 ! A35   A(17,16,20)           108.0176         calculate D2E/DX2 analytically  !
 ! A36   A(18,16,20)           108.0143         calculate D2E/DX2 analytically  !
 ! A37   A(2,19,10)            108.8339         calculate D2E/DX2 analytically  !
 ! A38   A(2,19,13)            108.8374         calculate D2E/DX2 analytically  !
 ! A39   A(10,19,13)           108.8397         calculate D2E/DX2 analytically  !
 ! A40   A(1,20,7)             108.8335         calculate D2E/DX2 analytically  !
 ! A41   A(1,20,16)            108.8381         calculate D2E/DX2 analytically  !
 ! A42   A(7,20,16)            108.8394         calculate D2E/DX2 analytically  !
 ! D1    D(3,1,2,5)              0.0313         calculate D2E/DX2 analytically  !
 ! D2    D(3,1,2,6)            120.1794         calculate D2E/DX2 analytically  !
 ! D3    D(3,1,2,19)          -119.8937         calculate D2E/DX2 analytically  !
 ! D4    D(4,1,2,5)           -120.1165         calculate D2E/DX2 analytically  !
 ! D5    D(4,1,2,6)              0.0316         calculate D2E/DX2 analytically  !
 ! D6    D(4,1,2,19)           119.9585         calculate D2E/DX2 analytically  !
 ! D7    D(20,1,2,5)           119.9519         calculate D2E/DX2 analytically  !
 ! D8    D(20,1,2,6)          -119.9            calculate D2E/DX2 analytically  !
 ! D9    D(20,1,2,19)            0.0269         calculate D2E/DX2 analytically  !
 ! D10   D(2,1,20,7)           -59.2527         calculate D2E/DX2 analytically  !
 ! D11   D(2,1,20,16)           59.2277         calculate D2E/DX2 analytically  !
 ! D12   D(3,1,20,7)            62.7964         calculate D2E/DX2 analytically  !
 ! D13   D(3,1,20,16)         -178.7233         calculate D2E/DX2 analytically  !
 ! D14   D(4,1,20,7)           178.6876         calculate D2E/DX2 analytically  !
 ! D15   D(4,1,20,16)          -62.832          calculate D2E/DX2 analytically  !
 ! D16   D(1,2,19,10)           59.2218         calculate D2E/DX2 analytically  !
 ! D17   D(1,2,19,13)          -59.2589         calculate D2E/DX2 analytically  !
 ! D18   D(5,2,19,10)          -62.8303         calculate D2E/DX2 analytically  !
 ! D19   D(5,2,19,13)          178.689          calculate D2E/DX2 analytically  !
 ! D20   D(6,2,19,10)         -178.722          calculate D2E/DX2 analytically  !
 ! D21   D(6,2,19,13)           62.7973         calculate D2E/DX2 analytically  !
 ! D22   D(8,7,10,11)            0.0304         calculate D2E/DX2 analytically  !
 ! D23   D(8,7,10,12)          120.1821         calculate D2E/DX2 analytically  !
[...]
 ,0.00143641,-0.00041931,-0.00016826,0.00132505,0.00016821,-0.00017919,
 -0.00021794,0.00020885,-0.00028961,0.00080065,0.00004676,-0.00006528,0
 .00004897,0.00018023,0.00013973,-0.00009454,-0.08403857,-0.00733536,-0
 .09129873,0.09152017,-0.00126130,-0.00514244,0.00236322,-0.00054908,-0
 .00009923,0.00007381,-0.00027202,0.00056310,-0.00002399,0.00044161,0.0
 0035946,0.00166079,0.00014559,0.00007833,-0.00000409,-0.00001417,-0.00
 003513,-0.00012482,-0.00843911,-0.05413107,-0.03039745,0.01118951,0.05
 712613,0.00124628,0.00426600,-0.00019100,0.00088444,-0.00024771,-0.000
 14076,0.00011800,0.00014324,0.00053664,-0.00072877,0.00018778,-0.00113
 263,-0.00012706,0.00000709,0.00001433,-0.00016806,-0.00000666,0.000070
 92,-0.08797500,-0.02320434,-0.26697213,0.09165015,0.01961139,0.2945663
 2,-0.00028105,0.00046181,-0.00087169,0.00051749,0.00039517,0.00095300,
 0.00023077,-0.00002879,-0.00020050,0.00016867,-0.00007961,-0.00028592,
 -0.00009280,-0.00012575,-0.00013749,0.00004675,0.00000725,-0.00019304,
 -0.08418361,0.08267376,0.03969879,0.00481267,-0.01014890,-0.00423444,0
 .09164158,0.00068468,0.00000130,-0.00188519,-0.00000467,-0.00011864,-0
 .00010354,-0.00017875,0.00045271,0.00134263,-0.00028155,0.00060531,-0.
 00005809,0.00018778,0.00002174,0.00009192,0.00000285,0.00004120,0.0000
 2600,0.07916776,-0.22141351,-0.08761232,0.00030565,-0.00030202,-0.0015
 7072,-0.08162250,0.25064429,-0.00079326,0.00247395,0.00123666,-0.00009
 484,-0.00027984,-0.00029923,0.00011272,-0.00033264,-0.00036209,-0.0000
 0241,0.00010917,0.00049454,0.00001946,-0.00009361,0.00002752,0.0000817
 0,0.00003705,0.00005173,0.03952648,-0.09478711,-0.09955931,0.01101134,
 -0.02530816,-0.01065177,-0.04340042,0.09413372,0.10086750,-0.00335967,
 -0.00235012,-0.00024896,0.00406602,-0.01023391,0.00708930,0.00052286,-
 0.00007325,0.00004929,-0.00041846,0.00034379,-0.00098449,-0.00027815,0
 .00018055,-0.00102004,-0.00022053,-0.00017735,0.00176128,-0.14097265,-
 0.00023736,0.00012326,-0.01042163,0.00079921,0.00244724,-0.01041489,-0
 .00198943,-0.00164247,0.42489776,0.00166940,0.00103468,-0.00385110,-0.
 00090422,0.00137326,0.01244506,0.00099072,-0.00041770,0.00013482,0.000
 92651,-0.00020958,0.00016234,0.00039030,0.00103730,-0.00272506,0.00043
 872,0.00109658,-0.00267192,0.00019936,-0.07560102,-0.00630342,-0.00452
 125,0.00079825,-0.00172654,0.02397326,0.00213777,0.00099651,0.06128298
 ,0.53968792,0.00168872,0.00043571,0.00379611,-0.01243513,0.03039056,-0
 .03316226,-0.00027631,-0.00004028,-0.00000767,-0.00096371,-0.00016000,
 -0.00003091,-0.00088783,0.00164211,0.00020057,0.00283161,-0.00076765,-
 0.00642817,-0.00015173,-0.00629905,-0.08068324,-0.02745900,0.00047939,
 0.00183854,0.01405735,-0.00121153,0.00052381,-0.04199932,0.06777311,0.
 59234352,-0.00041957,0.00016819,-0.00132595,-0.00022079,0.00248195,-0.
 00143676,0.00004668,0.00006512,-0.00004865,0.00018017,-0.00013953,0.00
 009478,0.00016855,0.00017869,0.00021784,0.00020887,0.00028979,-0.00080
 129,-0.01042643,0.00449671,0.02745612,0.00098708,-0.00037411,-0.000060
 06,-0.00397292,0.00006424,0.00034526,-0.08409087,0.00728325,0.09136515
 ,0.09157790,0.00054901,-0.00010033,0.00007392,0.00126023,-0.00514411,0
 .00236021,-0.00014566,0.00007856,-0.00000401,0.00001388,-0.00003512,-0
 .00012474,0.00027238,0.00056318,-0.00002426,-0.00044132,0.00035901,0.0
 0166109,-0.00080761,0.00080282,0.00049089,0.00037386,0.00096072,0.0001
 0244,0.00029841,0.00011594,0.00045062,0.00839126,-0.05409627,-0.030247
 76,-0.01113088,0.05709138,-0.00088453,-0.00024823,-0.00014023,-0.00124
 439,0.00426491,-0.00018783,0.00012696,0.00000719,0.00001431,0.00016805
 ,-0.00000669,0.00007091,-0.00011774,0.00014311,0.00053638,0.00072826,0
 .00018816,-0.00113221,-0.00244830,-0.00172827,0.00184452,0.00005974,0.
 00010245,0.00170685,0.00018405,0.00087950,0.00063039,0.08803869,-0.023
 05758,-0.26694853,-0.09171632,0.01944817,0.29453522,0.00051799,-0.0003
 9665,-0.00095185,-0.00027876,-0.00046176,0.00087208,-0.00009338,0.0001
 2605,0.00013764,0.00004667,-0.00000713,0.00019304,0.00023076,0.0000285
 5,0.00019919,0.00016827,0.00007912,0.00028578,-0.01040600,-0.02397142,
 -0.01407863,-0.00397715,-0.00030161,-0.00018383,0.00100643,-0.00008647
 ,0.00036710,-0.08409393,-0.08256749,-0.03969677,0.00481020,0.01015626,
 0.00424421,0.09154831,0.00000365,-0.00011955,-0.00010465,-0.00068466,0
 .00000237,-0.00188590,-0.00018826,0.00002179,0.00009228,-0.00000301,0.
 00004136,0.00002615,0.00017959,0.00045181,0.00134321,0.00028189,0.0006
 0560,-0.00005810,0.00198657,0.00212766,-0.00121434,-0.00006406,0.00011
 746,0.00087914,0.00008644,0.00153620,0.00032087,-0.07906405,-0.2213934
 1,-0.08771163,-0.00029785,-0.00028446,-0.00156386,0.08150686,0.2506214
 3,0.00009393,-0.00027941,-0.00030033,0.00079409,0.00247439,0.00123637,
 -0.00001952,-0.00009343,0.00002722,-0.00008137,0.00003721,0.00005179,-
 0.00011330,-0.00033201,-0.00036093,0.00000267,0.00010892,0.00049440,0.
 00163652,0.00099205,0.00051835,-0.00034725,0.00045008,0.00063169,-0.00
 036791,0.00032071,0.00114618,-0.03951978,-0.09488864,-0.09967345,-0.01
 099593,-0.02530520,-0.01066704,0.04340197,0.09424872,0.10099101,-0.003
 39584,0.00230007,-0.00058234,0.00409012,0.01120208,0.00542217,-0.00041
 958,-0.00049086,-0.00091765,0.00052027,0.00008525,0.00004058,-0.000219
 45,0.00044747,0.00171079,-0.00027142,-0.00033667,-0.00097920,-0.003414
 68,0.00097126,0.00215070,0.00051622,0.00009149,0.00003646,-0.00041941,
 -0.00102267,0.00019463,0.00412289,0.01130113,0.00532353,-0.00028142,-0
 .00097968,0.00035005,-0.00022083,0.00161640,-0.00072755,0.42442540,-0.
 00136956,0.00161309,0.00417806,-0.00103975,-0.00595036,-0.01669374,-0.
 00106313,-0.00020676,-0.00013651,-0.00101410,-0.00042197,-0.00007768,0
 .00000301,0.00144068,0.00144258,-0.00051753,0.00118138,0.00257469,0.00
 068563,0.00453539,-0.00248919,-0.00073568,-0.00015553,-0.00011056,-0.0
 0129779,-0.00007839,0.00008291,-0.01030501,-0.04300992,-0.00471799,-0.
 00098016,0.00087271,-0.00154099,0.00223332,-0.00305715,0.00316551,-0.0
 6709180,0.52042952,0.00193404,-0.00009530,0.00318825,-0.01240539,-0.03
 457139,-0.02574637,-0.00080782,0.00018553,-0.00003476,-0.00011921,0.00
 009609,-0.00001034,0.00286624,-0.00046250,-0.00677425,-0.00083538,-0.0
 0180046,0.00004881,-0.00229841,0.00180158,0.00024684,-0.00071576,-0.00
 028564,-0.00027505,-0.00032087,-0.00023927,-0.00016367,0.00699546,0.01
 320502,0.01129933,0.00011424,0.00281926,0.00035324,-0.00179709,0.00506
 866,-0.00227343,-0.03203965,-0.05660919,0.61189614,-0.00041908,-0.0003
 7142,-0.00128338,-0.00021969,-0.00267191,-0.00103412,0.00018033,0.0001
 5268,0.00007180,0.00004675,-0.00007218,-0.00003821,0.00020869,-0.00041
 016,-0.00074626,0.00016860,-0.00014334,0.00024304,0.00053137,-0.000618
 69,0.00081665,-0.00007521,0.00004494,-0.00017687,0.00004685,0.00017063
 ,-0.00009035,-0.00027658,0.00097748,-0.00003795,0.00022237,0.00016201,
 -0.00012283,0.00016830,0.00020756,-0.00021141,-0.08402843,0.00688803,0
 .09136462,0.09149515,-0.00067966,-0.00007351,-0.00008465,-0.00143719,-
 0.00603690,-0.00144730,0.00001206,-0.00001253,0.00013780,0.00016339,0.
 00007627,-0.00000577,0.00054856,0.00004124,-0.00184448,-0.00028722,0.0
 0054448,0.00002261,0.00007052,-0.00010032,0.00026258,0.00006716,0.0000
 3442,0.00008971,-0.00006898,0.00002174,-0.00002594,0.00102071,0.000678
 58,-0.00286108,-0.00017946,-0.00060227,0.00092937,-0.00013870,0.000500
 14,-0.00004804,0.00526109,-0.05100610,-0.00345194,-0.00311912,0.056767
 01,-0.00078831,0.00023722,-0.00016644,-0.00103477,-0.00334876,0.000704
 83,0.00016828,0.00001972,0.00004822,0.00010301,-0.00001679,0.00001632,
 0.00065143,-0.00037160,-0.00081430,-0.00007443,-0.00014436,0.00055567,
 -0.00005453,0.00009039,-0.00033001,0.00017478,-0.00009710,0.00002358,0
 .00004338,-0.00001484,0.00007145,0.00019970,0.00149807,0.00056201,-0.0
 0010201,-0.00074029,0.00068719,-0.00024558,0.00011903,0.00059970,0.088
 24180,-0.01064032,-0.27012273,-0.09230059,0.01766626,0.29492114,0.0005
 2126,0.00025620,-0.00099095,-0.00028171,0.00058118,0.00078777,0.000046
 81,0.00003727,0.00018961,-0.00008087,-0.00011081,0.00015144,0.00016897
 ,-0.00003472,0.00029480,0.00024453,-0.00000371,0.00020718,-0.00041753,
 -0.00123321,0.00051755,0.00004668,-0.00007464,-0.00003217,0.00018012,0
 .00015188,0.00007340,-0.00022065,-0.00248374,-0.00143000,0.00016856,0.
 00009922,-0.00026366,0.00020887,-0.00083830,0.00014939,-0.08413187,0.0
 7554516,-0.05204927,0.00480958,-0.00937149,0.00575243,0.09156729,0.000
 00791,-0.00007016,0.00006092,0.00079847,-0.00005614,0.00208907,-0.0000
 0986,0.00003171,-0.00002292,0.00017969,0.00002332,-0.00009416,-0.00027
 803,0.00059536,0.00004262,-0.00019247,0.00028883,-0.00144117,-0.001041
 73,-0.00005640,0.00022168,0.00018257,0.00002903,0.00002157,0.00013878,
 0.00010128,-0.00007208,-0.00170473,-0.00429396,-0.00475485,-0.00023822
 ,0.00049154,-0.00010208,0.00085166,-0.00155990,0.00091958,0.07208195,-
 0.19061589,0.10191725,-0.00140373,0.00356211,-0.00065966,-0.07391417,0
 .21826538,0.00009729,0.00022760,-0.00036246,0.00067004,-0.00227318,0.0
 0129148,-0.00008123,-0.00003398,0.00006091,-0.00005047,0.00009701,0.00
 002479,0.00004614,-0.00012498,0.00050507,-0.00006889,0.00024652,-0.000
 17051,-0.00003446,-0.00009936,-0.00018593,0.00006270,0.00003268,0.0000
 6409,-0.00009607,0.00004589,-0.00006552,-0.00046709,-0.00285030,-0.001
 03600,-0.00017694,0.00006554,0.00060805,0.00001824,-0.00055264,0.00078
 658,-0.05134204,0.10908999,-0.13036687,-0.01092505,0.02307863,-0.01450
 756,0.05554196,-0.11256298,0.13322236,0.00409272,-0.01121137,-0.005427
 90,-0.00339372,-0.00230333,0.00058390,-0.00022004,-0.00044886,-0.00171
 525,-0.00027316,0.00033530,0.00097887,-0.00041929,0.00049104,0.0009177
 7,0.00052078,-0.00008382,-0.00004124,0.00412130,-0.01128711,-0.0053198
 8,-0.00028022,0.00098094,-0.00034916,-0.00021996,-0.00161213,0.0007256
 4,-0.00341682,-0.00097100,-0.00214722,0.00051562,-0.00009184,-0.000037
 92,-0.00041992,0.00102244,-0.00019469,-0.14047217,-0.00039250,-0.00013
 135,-0.01041986,0.00043197,-0.00253943,-0.01041963,-0.00171491,0.00193
 076,0.42442179,0.00103725,-0.00597250,-0.01670227,0.00137120,0.0016141
 8,0.00417342,-0.00000374,0.00144072,0.00143843,0.00051796,0.00118165,0
 .00257430,0.00106392,-0.00020673,-0.00013640,0.00101374,-0.00042332,-0
 .00007729,0.01031623,-0.04300695,-0.00469850,0.00097995,0.00087296,-0.
 00154260,-0.00223309,-0.00305482,0.00316539,-0.00068696,0.00453735,-0.
 00249236,0.00073748,-0.00015449,-0.00010973,0.00129685,-0.00007803,0.0
 0008187,0.00036316,-0.07405337,0.00528119,-0.00022570,0.00101205,0.001
 85255,0.02150759,0.00212748,-0.00125522,0.06704837,0.52040750,0.012399
 94,-0.03457584,-0.02572585,-0.00193472,-0.00009427,0.00318823,-0.00286
 571,-0.00046458,-0.00677383,0.00083544,-0.00179893,0.00004771,0.000808
 36,0.00018647,-0.00003590,0.00011698,0.00009541,-0.00001120,-0.0069987
 4,0.01322767,0.01129789,-0.00011483,0.00281918,0.00035404,0.00179755,0
 .00507063,-0.00227641,0.00229637,0.00180417,0.00024444,0.00071480,-0.0
 0028573,-0.00027401,0.00032060,-0.00023946,-0.00016272,0.00018114,0.00
 527710,-0.08257744,0.02781170,-0.00034961,0.00162864,-0.01762409,0.000
 96220,0.00053625,0.03212808,-0.05658369,0.61192346,-0.00022002,0.00267
 383,0.00103422,-0.00041870,0.00037155,0.00128431,0.00020874,0.00041032
 ,0.00074650,0.00016890,0.00014282,-0.00024276,0.00018019,-0.00015252,-
 0.00007209,0.00004664,0.00007196,0.00003792,-0.00027809,-0.00097730,0.
 00003871,0.00022239,-0.00016239,0.00012333,0.00016878,-0.00020754,0.00
 021197,0.00053050,0.00062063,-0.00081620,-0.00007488,-0.00004538,0.000
 17653,0.00004697,-0.00017069,0.00009026,-0.01043069,0.00020368,-0.0278
 0133,0.00098466,-0.00035459,0.00011582,-0.00397419,0.00000889,-0.00034
 964,-0.08413583,-0.00695136,-0.09147825,0.09160819,0.00143537,-0.00603
 791,-0.00144424,0.00067958,-0.00007453,-0.00008474,-0.00054875,0.00004
 071,-0.00184451,0.00028755,0.00054456,0.00002273,-0.00001231,-0.000012
 52,0.00013773,-0.00016343,0.00007647,-0.00000583,-0.00102081,0.0006779
 9,-0.00286100,0.00017946,-0.00060239,0.00093057,0.00013865,0.00050005,
 -0.00004835,-0.00007059,-0.00009932,0.00026281,-0.00006747,0.00003426,
 0.00008971,0.00006933,0.00002174,-0.00002589,-0.00043890,0.00101545,-0
 .00035965,0.00035465,0.00095615,0.00001361,0.00026664,-0.00007276,-0.0
 0033981,-0.00531855,-0.05101613,-0.00358862,0.00319052,0.05678223,0.00
 103340,-0.00334792,0.00070663,0.00078845,0.00023783,-0.00016662,-0.000
 65129,-0.00037194,-0.00081387,0.00007424,-0.00014430,0.00055541,-0.000
 16826,0.00001979,0.00004829,-0.00010290,-0.00001693,0.00001635,-0.0002
 0047,0.00149684,0.00056143,0.00010177,-0.00073899,0.00068706,0.0002451
 8,0.00011903,0.00059956,0.00005569,0.00008933,-0.00032872,-0.00017423,
 -0.00009699,0.00002337,-0.00004339,-0.00001480,0.00007118,0.00254568,0
 .00185436,0.00164363,-0.00011542,0.00001385,0.00171771,-0.00022622,-0.
 00076866,0.00082099,-0.08835343,-0.01077386,-0.27000482,0.09241792,0.0
 1781460,0.29479017,-0.00028017,-0.00058173,-0.00078776,0.00052206,-0.0
 0025784,0.00098972,0.00016847,0.00003423,-0.00029448,0.00024453,0.0000
 0385,-0.00020615,0.00004669,-0.00003716,-0.00018962,-0.00008128,0.0001
 1119,-0.00015161,-0.00022087,0.00248304,0.00142914,0.00016823,-0.00009
 917,0.00026421,0.00020884,0.00083823,-0.00014949,-0.00041813,0.0012323
 5,-0.00051710,0.00004680,0.00007499,0.00003215,0.00018028,-0.00015176,
 -0.00007369,-0.01040613,-0.02150268,0.01764706,-0.00397810,-0.00026975
 ,0.00022793,0.00100942,-0.00012985,-0.00035049,-0.08401782,-0.07541377
 ,0.05201923,0.00480894,0.00938385,-0.00576859,0.09144682,-0.00079805,-
 0.00005492,0.00208971,-0.00000878,-0.00007107,0.00006187,0.00027833,0.
 00059564,0.00004247,0.00019314,0.00028780,-0.00144156,0.00000964,0.000
 03182,-0.00002308,-0.00018006,0.00002329,-0.00009455,0.00170764,-0.004
 29601,-0.00475259,0.00023813,0.00049158,-0.00010218,-0.00085150,-0.001
 55980,0.00092017,0.00104162,-0.00005591,0.00022166,-0.00018262,0.00002
 902,0.00002154,-0.00013864,0.00010121,-0.00007213,0.00171388,0.0021193
 6,0.00096458,-0.00000860,-0.00007117,-0.00076837,0.00013003,0.00143998
 ,-0.00035985,-0.07195593,-0.19056794,0.10200842,0.00140856,0.00357656,
 -0.00067110,0.07377210,0.21821019,-0.00067059,-0.00227335,0.00129162,-
 0.00009651,0.00022709,-0.00036394,-0.00004633,-0.00012478,0.00050499,0
 .00006947,0.00024627,-0.00016956,0.00008093,-0.00003413,0.00006105,0.0
 0005072,0.00009675,0.00002454,0.00046798,-0.00285033,-0.00103413,0.000
 17654,0.00006531,0.00060818,-0.00001798,-0.00055228,0.00078654,0.00003
 461,-0.00009861,-0.00018503,-0.00006260,0.00003257,0.00006385,0.000096
 27,0.00004599,-0.00006555,-0.00192123,-0.00124398,0.00052502,0.0003529
 6,-0.00033930,0.00082193,0.00035170,-0.00035962,0.00125500,0.05130681,
 0.10918340,-0.13053360,0.01090386,0.02306838,-0.01452174,-0.05551502,-
 0.11266707,0.13340513,-0.02151360,0.00265405,0.03432154,-0.07402189,0.
 00081853,0.01042033,-0.00430594,0.00032193,0.00046918,-0.00431369,-0.0
 0024242,0.00051178,0.00486693,0.00196402,-0.00783454,0.00486255,-0.003
 14611,-0.00744060,-0.02153688,0.02838586,-0.01943008,-0.00430591,0.000
 24473,-0.00051476,-0.00431401,0.00056564,-0.00004648,-0.07401112,0.008
 53970,-0.00589172,0.00486673,-0.00776155,0.00221415,0.00486331,-0.0048
 6097,0.00643944,-0.07397531,-0.00938379,-0.00447803,0.00486218,0.00800
 935,0.00099040,0.00486760,0.00581337,0.00561907,-0.02158480,-0.0311310
 6,-0.01488638,-0.00431475,-0.00032366,-0.00046695,-0.00430616,-0.00056
 628,0.00004772,0.26949199,0.00130922,0.00163179,-0.00123097,0.00447943
 ,-0.09704907,-0.00540033,-0.00002047,0.00052140,0.00063902,0.00028081,
 0.00040683,-0.00072851,0.01267790,-0.00337372,-0.03104955,-0.01151267,
 0.00148534,0.02776470,0.01428645,-0.00937260,0.00760705,0.00149200,-0.
 00028578,0.00048836,0.00132440,0.00038652,0.00008805,0.04811894,-0.143
 82464,0.03243641,-0.00067955,-0.00069447,0.00179725,0.01304443,-0.0300
 4147,0.01815873,-0.05263915,-0.15315841,-0.02714390,-0.00152087,-0.005
 97828,-0.00434921,-0.01199225,-0.03047485,-0.01229418,-0.01556664,-0.0
 1150147,-0.00632922,-0.00161156,-0.00031455,-0.00034258,-0.00147980,0.
 00024280,-0.00013537,0.00005343,0.48015119,0.01722226,-0.00122893,-0.0
 1444359,0.05815948,-0.00546134,-0.16580537,0.00171781,-0.00002363,-0.0
 0020322,0.00169358,-0.00007440,-0.00008516,0.00652839,-0.00334628,-0.0
 1964887,0.00840861,0.00004551,-0.02449246,-0.00979967,0.00764331,-0.00
 353160,-0.00084106,-0.00017129,0.00060626,-0.00109092,0.00074505,-0.00
 006670,-0.03301027,0.03242726,-0.11878965,-0.01425072,0.02949523,-0.02
 233105,0.00577195,-0.00954551,0.00701368,-0.02512408,-0.02707046,-0.10
 959225,-0.01417941,-0.03205760,-0.01704931,0.00771910,0.01540076,0.007
 44749,-0.00743234,-0.00631838,-0.00125897,-0.00060122,0.00031491,0.000
 63223,-0.00087724,-0.00079850,0.00007404,-0.00002825,0.00000586,0.4802
 6742,-0.07403120,-0.00082027,-0.01043398,-0.02152174,-0.00267217,-0.03
 431890,0.00486171,-0.00195799,0.00782779,0.00486782,0.00315303,0.00743
 814,-0.00431367,-0.00031912,-0.00046930,-0.00430658,0.00024532,-0.0005
 1085,-0.07399649,-0.00852215,0.00588365,0.00486025,0.00775848,-0.00221
 993,0.00486970,0.00486637,-0.00644998,-0.02152596,-0.02837811,0.019443
 63,-0.00431264,-0.00024758,0.00051288,-0.00430639,-0.00056777,0.000044
 12,-0.02158766,0.03113467,0.01487791,-0.00430789,0.00032136,0.00047069
 ,-0.00431324,0.00056443,-0.00004384,-0.07397897,0.00939198,0.00447253,
 0.00487225,-0.00802111,-0.00099118,0.00485756,-0.00580263,-0.00560930,
 0.01382276,-0.00004407,0.00001401,0.26949037,-0.00448176,-0.09705191,-
 0.00541205,-0.00131321,0.00163145,-0.00122255,-0.01268527,-0.00338820,
 -0.03106035,0.01151284,0.00149664,0.02774632,0.00002021,0.00052032,0.0
 0063907,-0.00028069,0.00040833,-0.00072861,-0.04810103,-0.14381825,0.0
 3245058,0.00068953,-0.00067786,0.00178403,-0.01304101,-0.03003888,0.01
 816932,-0.01428629,-0.00937997,0.00762245,-0.00149558,-0.00028762,0.00
 048608,-0.00132257,0.00038520,0.00008698,0.01556450,-0.01149375,-0.006
 31992,0.00160773,-0.00031311,-0.00034556,0.00148187,0.00024405,-0.0001
 3736,0.05264794,-0.15315813,-0.02714129,0.00153056,-0.00599606,-0.0043
 5756,0.01198968,-0.03047243,-0.01228695,0.00004524,0.00124345,0.000018
 45,-0.00008268,0.48014673,-0.05817390,-0.00548522,-0.16579266,-0.01722
 078,-0.00124075,-0.01443493,-0.00652351,-0.00335030,-0.01963350,-0.008
 42123,0.00003651,-0.02450492,-0.00172060,-0.00002075,-0.00020293,-0.00
 168941,-0.00007187,-0.00008518,0.03300323,0.03243494,-0.11880654,0.014
 24101,0.02949324,-0.02234514,-0.00576206,-0.00952729,0.00700883,0.0098
 0153,0.00763749,-0.00353470,0.00084329,-0.00017095,0.00060660,0.001089
 09,0.00074684,-0.00006471,0.00743624,-0.00633458,-0.00126411,0.0006010
 7,0.00031490,0.00063196,0.00088002,-0.00079745,0.00007180,0.02511797,-
 0.02706025,-0.10958593,0.01418014,-0.03205241,-0.01703824,-0.00772820,
 0.01542056,0.00745165,-0.00001582,0.00001840,0.00125707,0.00006190,0.0
 0000893,0.48026558\\-0.00003384,-0.00001092,-0.00002584,0.00003474,-0.
 00001009,-0.00002468,0.00000504,0.00001009,0.00001779,0.00000846,0.000
 01027,0.00001605,-0.00000469,0.00000971,0.00001939,-0.00000917,0.00000
 917,0.00001441,0.00004936,-0.00000475,0.00001850,0.00001609,0.00000463
 ,-0.00001721,-0.00000058,0.00002537,-0.00000317,-0.00004905,-0.0000060
 9,0.00001741,-0.00001584,0.00000648,-0.00001775,0.00000036,0.00002454,
 -0.00000214,0.00008086,0.00001039,0.00000810,-0.00001090,0.00000128,-0
 .00000047,-0.00000705,-0.00000957,0.00000418,-0.00008032,0.00001068,0.
 00000531,0.00001056,-0.00000014,0.00000030,0.00000683,-0.00000920,0.00
 000444,-0.00006035,-0.00003539,-0.00001786,0.00005948,-0.00003646,-0.0
 0001676\\\@


 A COMPUTER IS LIKE A HORSE, IT WILL SENSE WEAKNESS.
     -- GREG WETTSTEIN
 Job cpu time:       0 days  0 hours 41 minutes 47.2 seconds.
 Elapsed time:       0 days  0 hours  1 minutes 18.4 seconds.
 File lengths (MBytes):  RWF=     71 Int=      0 D2E=      0 Chk=      4 Scr=      1
 Normal termination of Gaussian 16 at Wed Sep 13 09:26:12 2023.
