 Entering Gaussian System, Link 0=g16
 Input=/home/ubuntu/Downloads/KOH-6-31-GEN-1-vol.gjf
 Output=/home/ubuntu/Downloads/KOH-6-31-GEN-1-vol.log
 Initial command:
 /home/ubuntu/g16/l1.exe "/home/ubuntu/Scratch/Gau-180854.inp" -scrdir="/home/ubuntu/Scratch/"
 Entering Link 1 = /home/ubuntu/g16/l1.exe PID=    180858.
  
 Copyright (c) 1988-2017, Gaussian, Inc.  All Rights Reserved.
  
 This is part of the Gaussian(R) 16 program.  It is based on
 the Gaussian(R) 09 system (copyright 2009, Gaussian, Inc.),
 the Gaussian(R) 03 system (copyright 2003, Gaussian, Inc.),
 the Gaussian(R) 98 system (copyright 1998, Gaussian, Inc.),
 the Gaussian(R) 94 system (copyright 1995, Gaussian, Inc.),
 the Gaussian 92(TM) system (copyright 1992, Gaussian, Inc.),
 the Gaussian 90(TM) system (copyright 1990, Gaussian, Inc.),
 the Gaussian 88(TM) system (copyright 1988, Gaussian, Inc.),
 the Gaussian 86(TM) system (copyright 1986, Carnegie Mellon
 University), and the Gaussian 82(TM) system (copyright 1983,
 Carnegie Mellon University). Gaussian is a federally registered
 trademark of Gaussian, Inc.
  
 This software contains proprietary and confidential information,
 including trade secrets, belonging to Gaussian, Inc.
  
 This software is provided under written license and may be
 used, copied, transmitted, or stored only in accord with that
 written license.
  
 The following legend is applicable only to US Government
 contracts under FAR:
  
                    RESTRICTED RIGHTS LEGEND
  
 Use, reproduction and disclosure by the US Government is
 subject to restrictions as set forth in subparagraphs (a)
 and (c) of the Commercial Computer Software - Restricted
 Rights clause in FAR 52.227-19.
  
 Gaussian, Inc.
 340 Quinnipiac St., Bldg. 40, Wallingford CT 06492
  
  
 ---------------------------------------------------------------
 Warning -- This program may not be used in any manner that
 competes with the business of Gaussian, Inc. or will provide
 assistance to any competitor of Gaussian, Inc.  The licensee
 of this program is prohibited from giving any competitor of
 Gaussian, Inc. access to this program.  By using this program,
 the user acknowledges that Gaussian, Inc. is engaged in the
 business of creating and licensing software in the field of
 computational chemistry and represents and warrants to the
 licensee that it is not a competitor of Gaussian, Inc. and that
 it will not use this program in any manner prohibited above.
 ---------------------------------------------------------------
  

 Cite this work as:
 Gaussian 16, Revision B.01,
 M. J. Frisch, G. W. Trucks, H. B. Schlegel, G. E. Scuseria, 
 M. A. Robb, J. R. Cheeseman, G. Scalmani, V. Barone, 
 G. A. Petersson, H. Nakatsuji, X. Li, M. Caricato, A. V. Marenich, 
 J. Bloino, B. G. Janesko, R. Gomperts, B. Mennucci, H. P. Hratchian, 
 J. V. Ortiz, A. F. Izmaylov, J. L. Sonnenberg, D. Williams-Young, 
 F. Ding, F. Lipparini, F. Egidi, J. Goings, B. Peng, A. Petrone, 
 T. Henderson, D. Ranasinghe, V. G. Zakrzewski, J. Gao, N. Rega, 
 G. Zheng, W. Liang, M. Hada, M. Ehara, K. Toyota, R. Fukuda, 
 J. Hasegawa, M. Ishida, T. Nakajima, Y. Honda, O. Kitao, H. Nakai, 
 T. Vreven, K. Throssell, J. A. Montgomery, Jr., J. E. Peralta, 
 F. Ogliaro, M. J. Bearpark, J. J. Heyd, E. N. Brothers, K. N. Kudin, 
 V. N. Staroverov, T. A. Keith, R. Kobayashi, J. Normand, 
 K. Raghavachari, A. P. Rendell, J. C. Burant, S. S. Iyengar, 
 J. Tomasi, M. Cossi, J. M. Millam, M. Klene, C. Adamo, R. Cammi, 
 J. W. Ochterski, R. L. Martin, K. Morokuma, O. Farkas, 
 J. B. Foresman, and D. J. Fox, Gaussian, Inc., Wallingford CT, 2016.
 
 ******************************************
 Gaussian 16:  EM64L-G16RevB.01 20-Dec-2017
                20-Sep-2023 
 ******************************************
 %nprocshared=32
 Will use up to   32 processors via shared memory.
 %mem=62GB
 %chk=KOH-6-31-GEN-1-vol.chk
 ----------------------------------------------------------------------
 # opt freq b3lyp/gen scf=(qc,maxcycle=1000) empiricaldispersion=gd3 ps
 eudo=read volume
 ----------------------------------------------------------------------
 1/18=20,19=15,26=3,38=1/1,3;
 2/9=110,12=2,17=6,18=5,40=1/2;
 3/5=7,11=2,16=1,17=8,25=1,30=1,71=1,74=-5,124=31/1,2,3;
 4//1;
 5/5=2,7=1000,8=3,38=5/8;
 6/7=2,8=2,9=2,10=2,28=1,44=1/1,4;
 7//1,2,3,16;
 1/18=20,19=15,26=3/3(2);
 2/9=110/2;
 99//99;
 2/9=110/2;
 3/5=7,6=1,11=2,16=1,17=8,25=1,30=1,71=1,74=-5,82=7,124=31/1,2,3;
 4/5=5,16=3,69=1/1;
 5/5=2,7=1000,8=3,38=5/8;
 7//1,2,3,16;
 1/18=20,19=15,26=3/3(-5);
 2/9=110/2;
 6/7=2,8=2,9=2,10=2,19=2,28=1,44=1/1,4;
 99/9=1/99;
 ----
 NaOH
 ----
 Symbolic Z-matrix:
 Charge =  0 Multiplicity = 1
 O                    -0.00003   1.5389    0. 
 H                     0.00075   2.50424   0. 
 K                    -0.00003  -0.77976   0. 
 

 GradGradGradGradGradGradGradGradGradGradGradGradGradGradGradGradGradGrad
 Berny optimization.
 Initialization pass.
                           ----------------------------
                           !    Initial Parameters    !
                           ! (Angstroms and Degrees)  !
 --------------------------                            --------------------------
 ! Name  Definition              Value          Derivative Info.                !
 --------------------------------------------------------------------------------
 ! R1    R(1,2)                  0.9653         estimate D2E/DX2                !
 ! R2    R(1,3)                  2.3187         estimate D2E/DX2                !
 ! A1    L(2,1,3,-3,-1)        179.9538         estimate D2E/DX2                !
 ! A2    L(2,1,3,-1,-2)        180.0            estimate D2E/DX2                !
 --------------------------------------------------------------------------------
 Trust Radius=3.00D-01 FncErr=1.00D-07 GrdErr=1.00D-06 EigMax=2.50D+02 EigMin=1.00D-04
 Number of steps in this run=     20 maximum allowed number of steps=    100.
 GradGradGradGradGradGradGradGradGradGradGradGradGradGradGradGradGradGrad

                          Input orientation:                          
 ---------------------------------------------------------------------
 Center     Atomic      Atomic             Coordinates (Angstroms)
 Number     Number       Type             X           Y           Z
 ---------------------------------------------------------------------
      1          8           0       -0.000028    1.538898    0.000000
      2          1           0        0.000750    2.504241    0.000000
      3         19           0       -0.000028   -0.779759    0.000000
 ---------------------------------------------------------------------
                    Distance matrix (angstroms):
                    1          2          3
     1  O    0.000000
     2  H    0.965343   0.000000
     3  K    2.318657   3.284000   0.000000
 Stoichiometry    HKO
 Framework group  C*V[C*(KOH)]
 Deg. of freedom     2
 Full point group                 C*V     NOp   4
 Largest Abelian subgroup         C2V     NOp   4
 Largest concise Abelian subgroup C1      NOp   1
                         Standard orientation:                         
 ---------------------------------------------------------------------
 Center     Atomic      Atomic             Coordinates (Angstroms)
 Number     Number       Type             X           Y           Z
 ---------------------------------------------------------------------
      1          8           0        0.000000    0.000000    1.538898
      2          1           0        0.000000    0.000000    2.504241
      3         19           0        0.000000    0.000000   -0.779759
 ---------------------------------------------------------------------
 Rotational constants (GHZ):           0.0000000           7.4647117           7.4647117
 General basis read from cards:  (5D, 7F)
 ======================================================================================================
                                       Pseudopotential Parameters
 ======================================================================================================
  Center     Atomic      Valence      Angular      Power
  Number     Number     Electrons     Momentum     of R      Exponent        Coefficient   SO-Coeffient
 ======================================================================================================
    1          8
                                   No pseudopotential on this center.
    2          1
                                   No pseudopotential on this center.
    3         19            9
                                      G and up 
                                                     2        1.0000000        0.00000000    0.00000000
                                      S - G
                                                     2        6.8438070       92.25263900    0.00000000
                                      P - G
                                                     2        4.2178570       23.49803500    0.00000000
                                      D - G
                                                     2        6.4975370       -7.31542000    0.00000000
                                      F - G
                                                     2        6.1236130       -3.85832000    0.00000000
 ======================================================================================================
 There are    21 symmetry adapted cartesian basis functions of A1  symmetry.
 There are     1 symmetry adapted cartesian basis functions of A2  symmetry.
 There are     8 symmetry adapted cartesian basis functions of B1  symmetry.
 There are     8 symmetry adapted cartesian basis functions of B2  symmetry.
 There are    20 symmetry adapted basis functions of A1  symmetry.
 There are     1 symmetry adapted basis functions of A2  symmetry.
 There are     8 symmetry adapted basis functions of B1  symmetry.
 There are     8 symmetry adapted basis functions of B2  symmetry.
    37 basis functions,    61 primitive gaussians,    38 cartesian basis functions
     9 alpha electrons        9 beta electrons
       nuclear repulsion energy        22.2678977824 Hartrees.
 NAtoms=    3 NActive=    3 NUniq=    3 SFac= 1.00D+00 NAtFMM=   60 NAOKFM=F Big=F
 Integral buffers will be    131072 words long.
 Raffenetti 2 integral format.
 Two-electron integral symmetry is turned on.
 Nuclear repulsion after empirical dispersion term =       22.2674818407 Hartrees.
 One-electron integrals computed using PRISM.
   4 Symmetry operations used in ECPInt.
 ECPInt:  NShTT=     136 NPrTT=     462 LenC2=     137 LenP2D=     432.
 LDataN:  DoStor=T MaxTD1= 6 Len=  172
 NBasis=    37 RedAO= T EigKep=  1.52D-02  NBF=    20     1     8     8
 NBsUse=    37 1.00D-06 EigRej= -1.00D+00 NBFU=    20     1     8     8
 ExpMin= 1.65D-02 ExpMax= 5.48D+03 ExpMxC= 8.25D+02 IAcc=3 IRadAn=         5 AccDes= 0.00D+00
 Harris functional with IExCor=  402 and IRadAn=       5 diagonalized for initial guess.
 HarFok:  IExCor=  402 AccDes= 0.00D+00 IRadAn=         5 IDoV= 1 UseB2=F ITyADJ=14
 ICtDFT=  3500011 ScaDFX=  1.000000  1.000000  1.000000  1.000000
 FoFCou: FMM=F IPFlag=           0 FMFlag=      100000 FMFlg1=           0
         NFxFlg=           0 DoJE=T BraDBF=F KetDBF=T FulRan=T
         wScrn=  0.000000 ICntrl=       500 IOpCl=  0 I1Cent=   200000004 NGrid=           0
         NMat0=    1 NMatS0=      1 NMatT0=    0 NMatD0=    1 NMtDS0=    0 NMtDT0=    0
 Petite list used in FoFCou.
 Initial guess orbital symmetries:
       Occupied  (SG) (SG) (SG) (SG) (PI) (PI) (SG) (PI) (PI)
       Virtual   (SG) (SG) (PI) (PI) (SG) (SG) (PI) (PI) (SG) (PI)
                 (PI) (SG) (SG) (SG) (SG) (PI) (PI) (SG) (PI) (PI)
                 (SG) (SG) (PI) (PI) (DLTA) (DLTA) (SG) (SG)
 The electronic state of the initial guess is 1-SG.
 Keep R1 ints in memory in symmetry-blocked form, NReq=27903894.
 Gradient too large for Newton-Raphson -- use scaled steepest descent instead.
 Alpha Gap=    -0.225 HL deriv= 1.45D-30 Rot set to   2.86D+00
     Minimum is close to point  4 DX= -7.17D-04 DF= -1.06D-05 DXR=  7.22D-03 DFR=  5.86D-05 which will be used.
 Density matrix breaks symmetry, PCut= 1.00D-04
 Density matrix has no symmetry -- integrals replicated.
 Gradient too large for Newton-Raphson -- use scaled steepest descent instead.
     Accept linear search using points  2 and  3.
 Density matrix breaks symmetry, PCut= 1.00D-04
 Density matrix has no symmetry -- integrals replicated.
 Gradient too large for Newton-Raphson -- use scaled steepest descent instead.
     Minimum is close to point  3 DX=  4.50D-03 DF= -3.63D-07 DXR=  7.44D-03 DFR=  4.63D-05 which will be used.
 Density matrix breaks symmetry, PCut= 1.00D-04
 Density matrix has no symmetry -- integrals replicated.
 Gradient too large for Newton-Raphson -- use scaled steepest descent instead.
     Accept linear search using points  1 and  2.
 Density matrix breaks symmetry, PCut= 1.00D-04
 Density matrix has no symmetry -- integrals replicated.
 Gradient too large for Newton-Raphson -- use scaled steepest descent instead.
     Accept linear search using points  3 and  4.
 Density matrix breaks symmetry, PCut= 1.00D-04
 Density matrix has no symmetry -- integrals replicated.
 Gradient too large for Newton-Raphson -- use scaled steepest descent instead.
     Accept linear search using points  1 and  2.
 Density matrix breaks symmetry, PCut= 1.00D-04
 Density matrix has no symmetry -- integrals replicated.
 LinEq1:  Iter=  0 NonCon=     1 RMS=8.46D-04 Max=1.06D-02 NDo=     1
 AX will form     1 AO Fock derivatives at one time.
 LinEq1:  Iter=  1 NonCon=     1 RMS=4.91D-04 Max=3.60D-03 NDo=     1
 LinEq1:  Iter=  2 NonCon=     1 RMS=1.47D-04 Max=1.20D-03 NDo=     1
 LinEq1:  Iter=  3 NonCon=     1 RMS=2.71D-05 Max=1.61D-04 NDo=     1
 LinEq1:  Iter=  4 NonCon=     1 RMS=5.78D-06 Max=4.35D-05 NDo=     1
 LinEq1:  Iter=  5 NonCon=     1 RMS=8.20D-07 Max=4.47D-06 NDo=     1
 LinEq1:  Iter=  6 NonCon=     1 RMS=1.81D-07 Max=1.17D-06 NDo=     1
 LinEq1:  Iter=  7 NonCon=     1 RMS=2.13D-08 Max=1.42D-07 NDo=     1
 LinEq1:  Iter=  8 NonCon=     1 RMS=2.95D-09 Max=1.91D-08 NDo=     1
 LinEq1:  Iter=  9 NonCon=     0 RMS=5.18D-10 Max=2.56D-09 NDo=     1
 Linear equations converged to 2.245D-09 2.245D-08 after     9 iterations.
     Minimum is close to point  2 DX=  1.32D-02 DF= -1.24D-08 DXR=  1.30D-02 DFR=  1.69D-04 which will be used.
 Density matrix breaks symmetry, PCut= 1.00D-04
 Density matrix has no symmetry -- integrals replicated.
 LinEq1:  Iter=  0 NonCon=     1 RMS=2.44D-05 Max=1.75D-04 NDo=     1
 LinEq1:  Iter=  1 NonCon=     1 RMS=2.08D-05 Max=2.76D-04 NDo=     1
 LinEq1:  Iter=  2 NonCon=     1 RMS=2.58D-06 Max=1.75D-05 NDo=     1
 LinEq1:  Iter=  3 NonCon=     1 RMS=5.36D-07 Max=3.82D-06 NDo=     1
 LinEq1:  Iter=  4 NonCon=     1 RMS=1.16D-07 Max=8.65D-07 NDo=     1
 LinEq1:  Iter=  5 NonCon=     1 RMS=2.15D-08 Max=9.20D-08 NDo=     1
 LinEq1:  Iter=  6 NonCon=     1 RMS=4.30D-09 Max=2.07D-08 NDo=     1
 LinEq1:  Iter=  7 NonCon=     0 RMS=3.94D-10 Max=2.19D-09 NDo=     1
 Linear equations converged to 2.245D-09 2.245D-08 after     7 iterations.
     Minimum is close to point  2 DX=  6.78D-04 DF= -1.42D-14 DXR=  6.77D-04 DFR=  3.49D-07 which will be used.
 SCF Done:  E(RB3LYP) =  -104.160366926     a.u. after    9 cycles
            Convg  =    0.7121D-07                    38 Fock formations.
              S**2 =  0.0000                  -V/T =  2.2115

 **********************************************************************

            Population analysis using the SCF Density.

 **********************************************************************

 Orbital symmetries:
       Occupied  (SG) (SG) (SG) (PI) (PI) (SG) (SG) (PI) (PI)
       Virtual   (SG) (PI) (PI) (SG) (SG) (SG) (PI) (PI) (PI) (PI)
                 (SG) (SG) (SG) (SG) (SG) (SG) (PI) (PI) (PI) (PI)
                 (SG) (SG) (PI) (PI) (DLTA) (DLTA) (SG) (SG)
 The electronic state is 1-SG.
 Alpha  occ. eigenvalues --  -18.98192  -1.39010  -0.79829  -0.73343  -0.73343
 Alpha  occ. eigenvalues --   -0.71859  -0.30016  -0.15313  -0.15313
 Alpha virt. eigenvalues --   -0.05374   0.00651   0.00651   0.02249   0.03659
 Alpha virt. eigenvalues --    0.18088   0.23751   0.23751   0.26142   0.26142
 Alpha virt. eigenvalues --    0.27795   0.34221   0.36709   0.89605   1.17717
 Alpha virt. eigenvalues --    1.22736   1.26799   1.26799   1.43080   1.43080
 Alpha virt. eigenvalues --    1.58259   1.75467   1.89714   1.89714   1.96088
 Alpha virt. eigenvalues --    1.96088   2.65388  20.24349
          Condensed to atoms (all electrons):
               1          2          3
     1  O    9.306122   0.214463  -0.114990
     2  H    0.214463   0.324485   0.006550
     3  K   -0.114990   0.006550   8.157347
 Mulliken charges:
               1
     1  O   -1.405595
     2  H    0.454501
     3  K    0.951094
 Sum of Mulliken charges =   0.00000
 Mulliken charges with hydrogens summed into heavy atoms:
               1
     1  O   -0.951094
     3  K    0.951094
 Electronic spatial extent (au):  <R**2>=            150.5041
 Charge=              0.0000 electrons
 Dipole moment (field-independent basis, Debye):
    X=              0.0000    Y=              0.0000    Z=             -8.6880  Tot=              8.6880
 Quadrupole moment (field-independent basis, Debye-Ang):
   XX=            -18.6313   YY=            -18.6313   ZZ=            -17.7645
   XY=              0.0000   XZ=              0.0000   YZ=              0.0000
 Traceless Quadrupole moment (field-independent basis, Debye-Ang):
   XX=             -0.2889   YY=             -0.2889   ZZ=              0.5779
   XY=              0.0000   XZ=              0.0000   YZ=              0.0000
 Octapole moment (field-independent basis, Debye-Ang**2):
  XXX=              0.0000  YYY=              0.0000  ZZZ=            -16.0096  XYY=              0.0000
  XXY=              0.0000  XXZ=             -9.2380  XZZ=              0.0000  YZZ=              0.0000
  YYZ=             -9.2380  XYZ=              0.0000
 Hexadecapole moment (field-independent basis, Debye-Ang**3):
 XXXX=            -23.8193 YYYY=            -23.8193 ZZZZ=           -139.3108 XXXY=              0.0000
 XXXZ=              0.0000 YYYX=              0.0000 YYYZ=              0.0000 ZZZX=              0.0000
 ZZZY=              0.0000 XXYY=             -7.9398 XXZZ=            -37.2281 YYZZ=            -37.2281
 XXYZ=              0.0000 YYXZ=              0.0000 ZZXY=              0.0000
 N-N= 2.226748184065D+01 E-N=-2.831681060071D+02  KE= 8.597890578302D+01
 Symmetry A1   KE= 7.225580054730D+01
 Symmetry A2   KE= 5.331758721356D-39
 Symmetry B1   KE= 6.861552650525D+00
 Symmetry B2   KE= 6.861552585197D+00
 Evaluate density.
 Using the total density.
 Monte-Carlo method of calculating molar volume:
 based on  0.001 e/bohr**3 density envelope.
 Number of points per bohr**3 =   20 CutOff= 1.00D-04
 Using the SCF density.
 There are       695 points.  Will hold       695 in memory.
 LenV=  8321468502 MDV=  8321499136.
 Box volume =42126.571 fraction occupied=0.010
 Integrated density= 2.0814550136135704D+01 error= 2.8145501361357042D+00
 Molar volume =  424.296 bohr**3/mol ( 37.864 cm**3/mol)
 Recommended a0 for SCRF calculation =  3.22 angstrom (  6.08 bohr)
   4 Symmetry operations used in ECPInt.
 ECPInt:  NShTT=     136 NPrTT=     462 LenC2=     137 LenP2D=     432.
 LDataN:  DoStor=T MaxTD1= 7 Len=  274
 Calling FoFJK, ICntrl=      2127 FMM=F ISym2X=1 I1Cent= 0 IOpClX= 0 NMat=1 NMatS=1 NMatT=0.
 ***** Axes restored to original set *****
 -------------------------------------------------------------------
 Center     Atomic                   Forces (Hartrees/Bohr)
 Number     Number              X              Y              Z
 -------------------------------------------------------------------
      1        8          -0.000000002   -0.000032513    0.000000000
      2        1          -0.000000010   -0.000203863    0.000000000
      3       19           0.000000013    0.000236376    0.000000000
 -------------------------------------------------------------------
 Cartesian Forces:  Max     0.000236376 RMS     0.000104611

 GradGradGradGradGradGradGradGradGradGradGradGradGradGradGradGradGradGrad
 Berny optimization.
 FormGI is forming the generalized inverse of G from B-inverse, IUseBI=4.
 Internal  Forces:  Max     0.000236376 RMS     0.000156072
 Search for a local minimum.
 Step number   1 out of a maximum of   20
 All quantities printed in internal units (Hartrees-Bohrs-Radians)
 Mixed Optimization -- En-DIIS/RFO-DIIS
 Second derivative matrix not updated -- first step.
 The second derivative matrix:
                          R1        R2        A1        A2
           R1           0.54340
           R2           0.00000   0.07043
           A1           0.00000   0.00000   0.03169
           A2           0.00000   0.00000   0.00000   0.03169
 ITU=  0
     Eigenvalues ---    0.03169   0.03169   0.07043   0.54340
 RFO step:  Lambda=-8.69796590D-07 EMin= 3.16919911D-02
 Linear search not attempted -- first point.
 Iteration  1 RMS(Cart)=  0.00145278 RMS(Int)=  0.00000000
 Iteration  2 RMS(Cart)=  0.00000000 RMS(Int)=  0.00000000
 ClnCor:  largest displacement from symmetrization is 1.75D-08 for atom     1.
 Variable       Old X    -DE/DX   Delta X   Delta X   Delta X     New X
                                 (Linear)    (Quad)   (Total)
    R1        1.82423  -0.00020   0.00000  -0.00038  -0.00038   1.82386
    R2        4.38163  -0.00024   0.00000  -0.00336  -0.00336   4.37827
    A1        3.14159   0.00000   0.00000   0.00000   0.00000   3.14159
    A2        3.14159   0.00000   0.00000   0.00000   0.00000   3.14159
         Item               Value     Threshold  Converged?
 Maximum Force            0.000236     0.000450     YES
 RMS     Force            0.000156     0.000300     YES
 Maximum Displacement     0.002362     0.001800     NO 
 RMS     Displacement     0.001453     0.001200     NO 
 Predicted change in Energy=-4.348983D-07
 GradGradGradGradGradGradGradGradGradGradGradGradGradGradGradGradGradGrad

                          Input orientation:                          
 ---------------------------------------------------------------------
 Center     Atomic      Atomic             Coordinates (Angstroms)
 Number     Number       Type             X           Y           Z
 ---------------------------------------------------------------------
      1          8           0        0.000081    1.538372    0.000000
      2          1           0        0.000132    2.503517    0.000000
      3         19           0       -0.000041   -0.778509    0.000000
 ---------------------------------------------------------------------
                    Distance matrix (angstroms):
                    1          2          3
     1  O    0.000000
     2  H    0.965145   0.000000
     3  K    2.316881   3.282026   0.000000
 Stoichiometry    HKO
 Framework group  C*V[C*(HOK)]
 Deg. of freedom     2
 Full point group                 C*V     NOp   4
 Omega: Change in point group or standard orientation.

 Old FWG=C*V  [C*(K1O1H1)]
 New FWG=C*V  [C*(H1O1K1)]
 Largest Abelian subgroup         C2V     NOp   4
 Largest concise Abelian subgroup C1      NOp   1
                         Standard orientation:                         
 ---------------------------------------------------------------------
 Center     Atomic      Atomic             Coordinates (Angstroms)
 Number     Number       Type             X           Y           Z
 ---------------------------------------------------------------------
      1          8           0        0.000000    0.000000    1.537700
      2          1           0        0.000000    0.000000    2.502844
      3         19           0        0.000000    0.000000   -0.779181
 ---------------------------------------------------------------------
 Rotational constants (GHZ):           0.0000000           7.4758514           7.4758514
 Basis read from rwf:  (5D, 7F)
 Pseudo-potential data read from rwf file.
 There are    21 symmetry adapted cartesian basis functions of A1  symmetry.
 There are     1 symmetry adapted cartesian basis functions of A2  symmetry.
 There are     8 symmetry adapted cartesian basis functions of B1  symmetry.
 There are     8 symmetry adapted cartesian basis functions of B2  symmetry.
 There are    20 symmetry adapted basis functions of A1  symmetry.
 There are     1 symmetry adapted basis functions of A2  symmetry.
 There are     8 symmetry adapted basis functions of B1  symmetry.
 There are     8 symmetry adapted basis functions of B2  symmetry.
    37 basis functions,    61 primitive gaussians,    38 cartesian basis functions
     9 alpha electrons        9 beta electrons
       nuclear repulsion energy        22.2822682920 Hartrees.
 NAtoms=    3 NActive=    3 NUniq=    3 SFac= 1.00D+00 NAtFMM=   60 NAOKFM=F Big=F
 Integral buffers will be    131072 words long.
 Raffenetti 2 integral format.
 Two-electron integral symmetry is turned on.
 Nuclear repulsion after empirical dispersion term =       22.2818542466 Hartrees.
 One-electron integrals computed using PRISM.
   4 Symmetry operations used in ECPInt.
 ECPInt:  NShTT=     136 NPrTT=     462 LenC2=     137 LenP2D=     432.
 LDataN:  DoStor=T MaxTD1= 6 Len=  172
 NBasis=    37 RedAO= T EigKep=  1.52D-02  NBF=    20     1     8     8
 NBsUse=    37 1.00D-06 EigRej= -1.00D+00 NBFU=    20     1     8     8
 Initial guess from the checkpoint file:  "KOH-6-31-GEN-1-vol.chk"
 B after Tr=     0.000000    0.000000    0.000000
         Rot=    1.000000    0.000000    0.000000    0.000000 Ang=   0.00 deg.
 Initial guess orbital symmetries:
       Occupied  (SG) (SG) (SG) (PI) (PI) (SG) (SG) (PI) (PI)
       Virtual   (SG) (PI) (PI) (SG) (SG) (SG) (PI) (PI) (PI) (PI)
                 (SG) (SG) (SG) (SG) (SG) (SG) (PI) (PI) (PI) (PI)
                 (SG) (SG) (PI) (PI) (DLTA) (DLTA) (SG) (SG)
 Keep R1 ints in memory in symmetry-blocked form, NReq=27903894.
 LinEq1:  Iter=  0 NonCon=     1 RMS=2.03D-05 Max=1.29D-04 NDo=     1
 AX will form     1 AO Fock derivatives at one time.
 LinEq1:  Iter=  1 NonCon=     1 RMS=1.66D-05 Max=1.03D-04 NDo=     1
 LinEq1:  Iter=  2 NonCon=     1 RMS=3.68D-06 Max=1.91D-05 NDo=     1
 LinEq1:  Iter=  3 NonCon=     1 RMS=9.02D-07 Max=4.75D-06 NDo=     1
 LinEq1:  Iter=  4 NonCon=     1 RMS=1.33D-07 Max=9.53D-07 NDo=     1
 LinEq1:  Iter=  5 NonCon=     1 RMS=3.07D-08 Max=2.12D-07 NDo=     1
 LinEq1:  Iter=  6 NonCon=     0 RMS=2.03D-09 Max=1.53D-08 NDo=     1
 Linear equations converged to 2.245D-09 2.245D-08 after     6 iterations.
     Minimum is close to point  2 DX=  1.20D-04 DF=  0.00D+00 DXR=  1.20D-04 DFR=  0.00D+00 which will be used.
 SCF Done:  E(RB3LYP) =  -104.160367331     a.u. after    2 cycles
            Convg  =    0.5961D-07                     9 Fock formations.
              S**2 =  0.0000                  -V/T =  2.2114
   4 Symmetry operations used in ECPInt.
 ECPInt:  NShTT=     136 NPrTT=     462 LenC2=     137 LenP2D=     432.
 LDataN:  DoStor=T MaxTD1= 7 Len=  274
 Calling FoFJK, ICntrl=      2127 FMM=F ISym2X=1 I1Cent= 0 IOpClX= 0 NMat=1 NMatS=1 NMatT=0.
 ***** Axes restored to original set *****
 -------------------------------------------------------------------
 Center     Atomic                   Forces (Hartrees/Bohr)
 Number     Number              X              Y              Z
 -------------------------------------------------------------------
      1        8           0.000000001    0.000020559    0.000000000
      2        1           0.000000000   -0.000001821    0.000000000
      3       19          -0.000000001   -0.000018739    0.000000000
 -------------------------------------------------------------------
 Cartesian Forces:  Max     0.000020559 RMS     0.000009292

 GradGradGradGradGradGradGradGradGradGradGradGradGradGradGradGradGradGrad
 Berny optimization.
 Using GEDIIS/GDIIS optimizer.
 Internal  Forces:  Max     0.000018739 RMS     0.000009413
 Search for a local minimum.
 Step number   2 out of a maximum of   20
 All quantities printed in internal units (Hartrees-Bohrs-Radians)
 Mixed Optimization -- En-DIIS/RFO-DIIS
 Swapping is turned off.
 Update second derivatives using D2CorX and points    1    2
 DE= -4.04D-07 DEPred=-4.35D-07 R= 9.30D-01
 Trust test= 9.30D-01 RLast= 3.38D-03 DXMaxT set to 3.00D-01
 The second derivative matrix:
                          R1        R2        A1        A2
           R1           0.53942
           R2          -0.00010   0.07603
           A1           0.00000   0.00000   0.03169
           A2           0.00000   0.00000   0.00000   0.03169
 ITU=  0  0
     Eigenvalues ---    0.03169   0.03169   0.07603   0.53942
 En-DIIS/RFO-DIIS/Sim-DIIS IScMMF=       -3 using points:     2    1
 RFO step:  Lambda=-3.72809011D-09.
 DidBck=F Rises=F RFO-DIIS coefs:    0.92758    0.07242
 Iteration  1 RMS(Cart)=  0.00009995 RMS(Int)=  0.00000001
 Iteration  2 RMS(Cart)=  0.00000001 RMS(Int)=  0.00000001
 ClnCor:  largest displacement from symmetrization is 9.75D-09 for atom     1.
 Variable       Old X    -DE/DX   Delta X   Delta X   Delta X     New X
                                 (Linear)    (Quad)   (Total)
    R1        1.82386   0.00000   0.00003  -0.00003   0.00000   1.82386
    R2        4.37827   0.00002   0.00024   0.00000   0.00025   4.37852
    A1        3.14159   0.00000   0.00000   0.00000   0.00000   3.14159
    A2        3.14159   0.00000   0.00000   0.00000   0.00000   3.14159
         Item               Value     Threshold  Converged?
 Maximum Force            0.000019     0.000450     YES
 RMS     Force            0.000009     0.000300     YES
 Maximum Displacement     0.000163     0.001800     YES
 RMS     Displacement     0.000100     0.001200     YES
 Predicted change in Energy=-2.312315D-09
 Optimization completed.
    -- Stationary point found.
                           ----------------------------
                           !   Optimized Parameters   !
                           ! (Angstroms and Degrees)  !
 --------------------------                            --------------------------
 ! Name  Definition              Value          Derivative Info.                !
 --------------------------------------------------------------------------------
 ! R1    R(1,2)                  0.9651         -DE/DX =    0.0                 !
 ! R2    R(1,3)                  2.3169         -DE/DX =    0.0                 !
 ! A1    L(2,1,3,-3,-1)        180.0            -DE/DX =    0.0                 !
 ! A2    L(2,1,3,-1,-2)        180.0            -DE/DX =    0.0                 !
 --------------------------------------------------------------------------------
 GradGradGradGradGradGradGradGradGradGradGradGradGradGradGradGradGradGrad

                          Input orientation:                          
 ---------------------------------------------------------------------
 Center     Atomic      Atomic             Coordinates (Angstroms)
 Number     Number       Type             X           Y           Z
 ---------------------------------------------------------------------
      1          8           0        0.000081    1.538372    0.000000
      2          1           0        0.000132    2.503517    0.000000
      3         19           0       -0.000041   -0.778509    0.000000
 ---------------------------------------------------------------------
                    Distance matrix (angstroms):
                    1          2          3
     1  O    0.000000
     2  H    0.965145   0.000000
     3  K    2.316881   3.282026   0.000000
 Stoichiometry    HKO
 Framework group  C*V[C*(HOK)]
 Deg. of freedom     2
 Full point group                 C*V     NOp   4
 Largest Abelian subgroup         C2V     NOp   4
 Largest concise Abelian subgroup C1      NOp   1
                         Standard orientation:                         
 ---------------------------------------------------------------------
 Center     Atomic      Atomic             Coordinates (Angstroms)
 Number     Number       Type             X           Y           Z
 ---------------------------------------------------------------------
      1          8           0        0.000000    0.000000    1.537700
      2          1           0        0.000000    0.000000    2.502844
      3         19           0        0.000000    0.000000   -0.779181
 ---------------------------------------------------------------------
 Rotational constants (GHZ):           0.0000000           7.4758514           7.4758514

 **********************************************************************

            Population analysis using the SCF Density.

 **********************************************************************

 Orbital symmetries:
       Occupied  (SG) (SG) (SG) (PI) (PI) (SG) (SG) (PI) (PI)
       Virtual   (SG) (PI) (PI) (SG) (SG) (SG) (PI) (PI) (PI) (PI)
                 (SG) (SG) (SG) (SG) (SG) (SG) (PI) (PI) (PI) (PI)
                 (SG) (SG) (PI) (PI) (DLTA) (DLTA) (SG) (SG)
 The electronic state is 1-SG.
 Alpha  occ. eigenvalues --  -18.98193  -1.38996  -0.79844  -0.73329  -0.73329
 Alpha  occ. eigenvalues --   -0.71844  -0.30023  -0.15321  -0.15321
 Alpha virt. eigenvalues --   -0.05369   0.00654   0.00654   0.02250   0.03662
 Alpha virt. eigenvalues --    0.18087   0.23751   0.23751   0.26149   0.26149
 Alpha virt. eigenvalues --    0.27793   0.34226   0.36708   0.89651   1.17706
 Alpha virt. eigenvalues --    1.22767   1.26790   1.26790   1.43096   1.43096
 Alpha virt. eigenvalues --    1.58282   1.75491   1.89700   1.89700   1.96077
 Alpha virt. eigenvalues --    1.96077   2.65432  20.24389
          Condensed to atoms (all electrons):
               1          2          3
     1  O    9.307209   0.214468  -0.115857
     2  H    0.214468   0.324362   0.006592
     3  K   -0.115857   0.006592   8.158024
 Mulliken charges:
               1
     1  O   -1.405820
     2  H    0.454579
     3  K    0.951241
 Sum of Mulliken charges =   0.00000
 Mulliken charges with hydrogens summed into heavy atoms:
               1
     1  O   -0.951241
     3  K    0.951241
 Electronic spatial extent (au):  <R**2>=            150.3381
 Charge=              0.0000 electrons
 Dipole moment (field-independent basis, Debye):
    X=              0.0000    Y=              0.0000    Z=             -8.6799  Tot=              8.6799
 Quadrupole moment (field-independent basis, Debye-Ang):
   XX=            -18.6295   YY=            -18.6295   ZZ=            -17.7591
   XY=              0.0000   XZ=              0.0000   YZ=              0.0000
 Traceless Quadrupole moment (field-independent basis, Debye-Ang):
   XX=             -0.2902   YY=             -0.2902   ZZ=              0.5803
   XY=              0.0000   XZ=              0.0000   YZ=              0.0000
 Octapole moment (field-independent basis, Debye-Ang**2):
  XXX=              0.0000  YYY=              0.0000  ZZZ=            -15.9768  XYY=              0.0000
  XXY=              0.0000  XXZ=             -9.2292  XZZ=              0.0000  YZZ=              0.0000
  YYZ=             -9.2292  XYZ=              0.0000
 Hexadecapole moment (field-independent basis, Debye-Ang**3):
 XXXX=            -23.8074 YYYY=            -23.8074 ZZZZ=           -139.1115 XXXY=              0.0000
 XXXZ=              0.0000 YYYX=              0.0000 YYYZ=              0.0000 ZZZX=              0.0000
 ZZZY=              0.0000 XXYY=             -7.9358 XXZZ=            -37.1782 YYZZ=            -37.1782
 XXYZ=              0.0000 YYXZ=              0.0000 ZZXY=              0.0000
 N-N= 2.228185424662D+01 E-N=-2.831982209172D+02  KE= 8.598010793615D+01
 Symmetry A1   KE= 7.225705438028D+01
 Symmetry A2   KE= 2.132699763789D-38
 Symmetry B1   KE= 6.861526777998D+00
 Symmetry B2   KE= 6.861526777875D+00
 Evaluate density.
 Using the total density.
 Monte-Carlo method of calculating molar volume:
 based on  0.001 e/bohr**3 density envelope.
 Number of points per bohr**3 =   20 CutOff= 1.00D-04
 Using the SCF density.
 There are       695 points.  Will hold       695 in memory.
 LenV=  8321468502 MDV=  8321499136.
 Box volume =42126.571 fraction occupied=0.007
 Integrated density= 1.4324320495275865D+01 error=-3.6756795047241351D+00
 Molar volume =  303.069 bohr**3/mol ( 27.046 cm**3/mol)
 Recommended a0 for SCRF calculation =  2.93 angstrom (  5.53 bohr)
 1\1\GINC-IP-172-31-20-208\FOpt\RB3LYP\Gen\H1K1O1\UBUNTU\20-Sep-2023\0\
 \# opt freq b3lyp/gen scf=(qc,maxcycle=1000) empiricaldispersion=gd3 p
 seudo=read volume\\NaOH\\0,1\O,0.0000812995,1.5383721767,0.\H,0.000132
 4397,2.5035166881,0.\K,-0.0000414652,-0.7785088371,0.\\Version=EM64L-G
 16RevB.01\State=1-SG\HF=-104.1603673\RMSD=2.655e-09\RMSF=9.292e-06\Dip
 ole=-0.0001809,-3.4149373,0.\Quadrupole=-0.2157209,0.4314417,-0.215720
 9,0.0000343,0.,0.\PG=C*V [C*(H1O1K1)]\\@


 THE CHYMISTS ARE A STRANGE CLASS OF MORTALS IMPELLED
 BY AN ALMOST INSANE IMPULSE TO SEEK THEIR PLEASURE
 AMONG SMOKE AND VAPOR, SOOT AND FLAME, POISONS AND
 POVERTY; YET AMONG ALL THESE EVILS I SEEM TO LIVE
 SO SWEETLY, THAT I MAY DIE IF I WOULD CHANGE PLACES
 WITH THE PERSIAN KING.
   --  JOHANN JOACHIM BECHER, 1635-1682
 ACTA LABORATORII CHYMICA MONACENSIS, 1669
 Job cpu time:       0 days  0 hours  3 minutes 37.4 seconds.
 Elapsed time:       0 days  0 hours  0 minutes  8.5 seconds.
 File lengths (MBytes):  RWF=      6 Int=      0 D2E=      0 Chk=      1 Scr=      1
 Normal termination of Gaussian 16 at Wed Sep 20 06:38:40 2023.
 Link1:  Proceeding to internal job step number  2.
 ------------------------------------------------------------------
 #N Geom=AllCheck Guess=TCheck SCRF=Check GenChk RB3LYP/ChkBas Freq
 ------------------------------------------------------------------
 1/10=4,29=7,30=1,38=1,40=1/1,3;
 2/12=2,40=1/2;
 3/5=7,6=2,11=2,14=-4,16=1,17=8,25=1,30=1,67=1,70=2,71=2,74=-5,82=7,116=1,124=31,140=1/1,2,3;
 4/5=101/1;
 5/5=2,7=1000,8=3,38=6,98=1/8;
 8/6=4,10=90,11=11/1;
 11/6=1,8=1,9=11,15=111,16=1/1,2,10;
 10/6=1/2;
 6/7=2,8=2,9=2,10=2,28=1/1;
 7/8=1,10=1,25=1/1,2,3,16;
 1/10=4,30=1/3;
 99//99;
 Structure from the checkpoint file:  "KOH-6-31-GEN-1-vol.chk"
 ----
 NaOH
 ----
 Charge =  0 Multiplicity = 1
 Redundant internal coordinates found in file.  (old form).
 O,0,0.0000812995,1.5383721767,0.
 H,0,0.0001324397,2.5035166881,0.
 K,0,-0.0000414652,-0.7785088371,0.
 Recover connectivity data from disk.

 GradGradGradGradGradGradGradGradGradGradGradGradGradGradGradGradGradGrad
 Berny optimization.
 Initialization pass.
                           ----------------------------
                           !    Initial Parameters    !
                           ! (Angstroms and Degrees)  !
 --------------------------                            --------------------------
 ! Name  Definition              Value          Derivative Info.                !
 --------------------------------------------------------------------------------
 ! R1    R(1,2)                  0.9651         calculate D2E/DX2 analytically  !
 ! R2    R(1,3)                  2.3169         calculate D2E/DX2 analytically  !
 ! A1    L(2,1,3,-3,-1)        180.0            calculate D2E/DX2 analytically  !
 ! A2    L(2,1,3,-1,-2)        180.0            calculate D2E/DX2 analytically  !
 --------------------------------------------------------------------------------
 Trust Radius=3.00D-01 FncErr=1.00D-07 GrdErr=1.00D-07 EigMax=2.50D+02 EigMin=1.00D-04
 Number of steps in this run=      2 maximum allowed number of steps=      2.
 GradGradGradGradGradGradGradGradGradGradGradGradGradGradGradGradGradGrad

                          Input orientation:                          
 ---------------------------------------------------------------------
 Center     Atomic      Atomic             Coordinates (Angstroms)
 Number     Number       Type             X           Y           Z
 ---------------------------------------------------------------------
      1          8           0        0.000081    1.538372    0.000000
      2          1           0        0.000132    2.503517    0.000000
      3         19           0       -0.000041   -0.778509    0.000000
 ---------------------------------------------------------------------
                    Distance matrix (angstroms):
                    1          2          3
     1  O    0.000000
     2  H    0.965145   0.000000
     3  K    2.316881   3.282026   0.000000
 Stoichiometry    HKO
 Framework group  C*V[C*(HOK)]
 Deg. of freedom     2
 Full point group                 C*V     NOp   4
 Largest Abelian subgroup         C2V     NOp   4
 Largest concise Abelian subgroup C1      NOp   1
                         Standard orientation:                         
 ---------------------------------------------------------------------
 Center     Atomic      Atomic             Coordinates (Angstroms)
 Number     Number       Type             X           Y           Z
 ---------------------------------------------------------------------
      1          8           0        0.000000    0.000000    1.537700
      2          1           0        0.000000    0.000000    2.502844
      3         19           0        0.000000    0.000000   -0.779181
 ---------------------------------------------------------------------
 Rotational constants (GHZ):           0.0000000           7.4758514           7.4758514
 Basis read from chk: "KOH-6-31-GEN-1-vol.chk" (5D, 7F)
 Pseudo-potential data read from chk file.
 There are    21 symmetry adapted cartesian basis functions of A1  symmetry.
 There are     1 symmetry adapted cartesian basis functions of A2  symmetry.
 There are     8 symmetry adapted cartesian basis functions of B1  symmetry.
 There are     8 symmetry adapted cartesian basis functions of B2  symmetry.
 There are    20 symmetry adapted basis functions of A1  symmetry.
 There are     1 symmetry adapted basis functions of A2  symmetry.
 There are     8 symmetry adapted basis functions of B1  symmetry.
 There are     8 symmetry adapted basis functions of B2  symmetry.
    37 basis functions,    61 primitive gaussians,    38 cartesian basis functions
     9 alpha electrons        9 beta electrons
       nuclear repulsion energy        22.2822682920 Hartrees.
 NAtoms=    3 NActive=    3 NUniq=    3 SFac= 1.00D+00 NAtFMM=   60 NAOKFM=F Big=F
 Integral buffers will be    131072 words long.
 Raffenetti 2 integral format.
 Two-electron integral symmetry is turned on.
 Nuclear repulsion after empirical dispersion term =       22.2818542466 Hartrees.
 One-electron integrals computed using PRISM.
   4 Symmetry operations used in ECPInt.
 ECPInt:  NShTT=     136 NPrTT=     462 LenC2=     137 LenP2D=     432.
 LDataN:  DoStor=T MaxTD1= 6 Len=  172
 NBasis=    37 RedAO= T EigKep=  1.52D-02  NBF=    20     1     8     8
 NBsUse=    37 1.00D-06 EigRej= -1.00D+00 NBFU=    20     1     8     8
 Initial guess from the checkpoint file:  "KOH-6-31-GEN-1-vol.chk"
 B after Tr=     0.000000    0.000000    0.000000
         Rot=    1.000000    0.000000    0.000000    0.000000 Ang=   0.00 deg.
 Initial guess orbital symmetries:
       Occupied  (SG) (SG) (SG) (PI) (PI) (SG) (SG) (PI) (PI)
       Virtual   (SG) (PI) (PI) (SG) (SG) (SG) (PI) (PI) (PI) (PI)
                 (SG) (SG) (SG) (SG) (SG) (SG) (PI) (PI) (PI) (PI)
                 (SG) (SG) (PI) (PI) (DLTA) (DLTA) (SG) (SG)
 Keep R1 ints in memory in symmetry-blocked form, NReq=27903894.
 SCF Done:  E(RB3LYP) =  -104.160367331     a.u. after    1 cycles
            Convg  =    0.5961D-07                     1 Fock formations.
              S**2 =  0.0000                  -V/T =  2.2114
 DoSCS=F DFT=T ScalE2(SS,OS)=  1.000000  1.000000
 Range of M.O.s used for correlation:     1    37
 NBasis=    37 NAE=     9 NBE=     9 NFC=     0 NFV=     0
 NROrb=     37 NOA=     9 NOB=     9 NVA=    28 NVB=    28

 **** Warning!!: The smallest alpha delta epsilon is  0.99523959D-01

   4 Symmetry operations used in ECPInt.
 ECPInt:  NShTT=     136 NPrTT=     462 LenC2=     137 LenP2D=     432.
 LDataN:  DoStor=T MaxTD1= 7 Len=  274
 Symmetrizing basis deriv contribution to polar:
 IMax=3 JMax=2 DiffMx= 0.00D+00
 G2DrvN: will do     4 centers at a time, making    1 passes.
 Calling FoFCou, ICntrl=  3107 FMM=F I1Cent=   0 AccDes= 0.00D+00.
 End of G2Drv F.D. properties file   721 does not exist.
 End of G2Drv F.D. properties file   722 does not exist.
 End of G2Drv F.D. properties file   788 does not exist.
          IDoAtm=111
          Differentiating once with respect to electric field.
                with respect to dipole field.
          Differentiating once with respect to nuclear coordinates.
 Keep R1 ints in memory in symmetry-blocked form, NReq=27794076.
          There are    12 degrees of freedom in the 1st order CPHF.  IDoFFX=6 NUNeed=     3.
      9 vectors produced by pass  0 Test12= 2.10D-15 8.33D-09 XBig12= 1.95D+01 3.00D+00.
 AX will form     9 AO Fock derivatives at one time.
      9 vectors produced by pass  1 Test12= 2.10D-15 8.33D-09 XBig12= 2.87D-01 2.77D-01.
      9 vectors produced by pass  2 Test12= 2.10D-15 8.33D-09 XBig12= 7.17D-03 3.43D-02.
      9 vectors produced by pass  3 Test12= 2.10D-15 8.33D-09 XBig12= 8.18D-05 3.06D-03.
      9 vectors produced by pass  4 Test12= 2.10D-15 8.33D-09 XBig12= 3.38D-07 3.75D-04.
      5 vectors produced by pass  5 Test12= 2.10D-15 8.33D-09 XBig12= 2.98D-10 6.26D-06.
      3 vectors produced by pass  6 Test12= 2.10D-15 8.33D-09 XBig12= 1.85D-13 1.57D-07.
 InvSVY:  IOpt=1 It=  1 EMax= 2.22D-16
 Solved reduced A of dimension    53 with     9 vectors.
 Isotropic polarizability for W=    0.000000       18.55 Bohr**3.
 End of Minotr F.D. properties file   721 does not exist.
 End of Minotr F.D. properties file   722 does not exist.
 End of Minotr F.D. properties file   788 does not exist.

 **********************************************************************

            Population analysis using the SCF Density.

 **********************************************************************

 Orbital symmetries:
       Occupied  (SG) (SG) (SG) (PI) (PI) (SG) (SG) (PI) (PI)
       Virtual   (SG) (PI) (PI) (SG) (SG) (SG) (PI) (PI) (PI) (PI)
                 (SG) (SG) (SG) (SG) (SG) (SG) (PI) (PI) (PI) (PI)
                 (SG) (SG) (PI) (PI) (DLTA) (DLTA) (SG) (SG)
 The electronic state is 1-SG.
 Alpha  occ. eigenvalues --  -18.98193  -1.38996  -0.79844  -0.73329  -0.73329
 Alpha  occ. eigenvalues --   -0.71844  -0.30023  -0.15321  -0.15321
 Alpha virt. eigenvalues --   -0.05369   0.00654   0.00654   0.02250   0.03662
 Alpha virt. eigenvalues --    0.18087   0.23751   0.23751   0.26149   0.26149
 Alpha virt. eigenvalues --    0.27793   0.34226   0.36708   0.89651   1.17706
 Alpha virt. eigenvalues --    1.22767   1.26790   1.26790   1.43096   1.43096
 Alpha virt. eigenvalues --    1.58282   1.75491   1.89700   1.89700   1.96077
 Alpha virt. eigenvalues --    1.96077   2.65432  20.24389
          Condensed to atoms (all electrons):
               1          2          3
     1  O    9.307209   0.214468  -0.115857
     2  H    0.214468   0.324362   0.006592
     3  K   -0.115857   0.006592   8.158024
 Mulliken charges:
               1
     1  O   -1.405820
     2  H    0.454579
     3  K    0.951241
 Sum of Mulliken charges =   0.00000
 Mulliken charges with hydrogens summed into heavy atoms:
               1
     1  O   -0.951241
     3  K    0.951241
 APT charges:
               1
     1  O   -1.078960
     2  H    0.167415
     3  K    0.911546
 Sum of APT charges =   0.00000
 APT charges with hydrogens summed into heavy atoms:
               1
     1  O   -0.911546
     3  K    0.911546
 Electronic spatial extent (au):  <R**2>=            150.3381
 Charge=              0.0000 electrons
 Dipole moment (field-independent basis, Debye):
    X=              0.0000    Y=              0.0000    Z=             -8.6799  Tot=              8.6799
 Quadrupole moment (field-independent basis, Debye-Ang):
   XX=            -18.6295   YY=            -18.6295   ZZ=            -17.7591
   XY=              0.0000   XZ=              0.0000   YZ=              0.0000
 Traceless Quadrupole moment (field-independent basis, Debye-Ang):
   XX=             -0.2902   YY=             -0.2902   ZZ=              0.5803
   XY=              0.0000   XZ=              0.0000   YZ=              0.0000
 Octapole moment (field-independent basis, Debye-Ang**2):
  XXX=              0.0000  YYY=              0.0000  ZZZ=            -15.9768  XYY=              0.0000
  XXY=              0.0000  XXZ=             -9.2292  XZZ=              0.0000  YZZ=              0.0000
  YYZ=             -9.2292  XYZ=              0.0000
 Hexadecapole moment (field-independent basis, Debye-Ang**3):
 XXXX=            -23.8074 YYYY=            -23.8074 ZZZZ=           -139.1115 XXXY=              0.0000
 XXXZ=              0.0000 YYYX=              0.0000 YYYZ=              0.0000 ZZZX=              0.0000
 ZZZY=              0.0000 XXYY=             -7.9358 XXZZ=            -37.1782 YYZZ=            -37.1782
 XXYZ=              0.0000 YYXZ=              0.0000 ZZXY=              0.0000
 N-N= 2.228185424662D+01 E-N=-2.831982209172D+02  KE= 8.598010793615D+01
 Symmetry A1   KE= 7.225705438028D+01
 Symmetry A2   KE= 2.132699763789D-38
 Symmetry B1   KE= 6.861526777998D+00
 Symmetry B2   KE= 6.861526777875D+00
  Exact polarizability:  18.698   0.000  18.698   0.000   0.000  18.250
 Approx polarizability:  16.751   0.000  16.751   0.000   0.000  19.309
   4 Symmetry operations used in ECPInt.
 ECPInt:  NShTT=     136 NPrTT=     462 LenC2=     137 LenP2D=     432.
 LDataN:  DoStor=T MaxTD1= 8 Len=  415
 Calling FoFJK, ICntrl=    100127 FMM=F ISym2X=1 I1Cent= 0 IOpClX= 0 NMat=1 NMatS=1 NMatT=0.
 Full mass-weighted force constant matrix:
 Low frequencies ---   -6.2060   -6.2060    0.0012    0.0013    0.0014  354.4507
 Low frequencies ---  354.4507  412.3331 3840.5998
 Diagonal vibrational polarizability:
       27.8360731      27.8360731      11.6403284
 Harmonic frequencies (cm**-1), IR intensities (KM/Mole), Raman scattering
 activities (A**4/AMU), depolarization ratios for plane and unpolarized
 incident light, reduced masses (AMU), force constants (mDyne/A),
 and normal coordinates:
                      1                      2                      3
                     PI                     PI                     SG
 Frequencies --    354.4507               354.4507               412.3331
 Red. masses --      1.1306                 1.1306                11.0659
 Frc consts  --      0.0837                 0.0837                 1.1085
 IR Inten    --    129.9531               129.9531                73.5402
  Atom  AN      X      Y      Z        X      Y      Z        X      Y      Z
     1   8    -0.09   0.00   0.00     0.00  -0.09   0.00     0.00   0.00   0.67
     2   1     1.00   0.00   0.00     0.00   1.00   0.00     0.00   0.00   0.68
     3  19     0.01   0.00   0.00     0.00   0.01   0.00     0.00   0.00  -0.29
                      4
                     SG
 Frequencies --   3840.5998
 Red. masses --      1.0679
 Frc consts  --      9.2803
 IR Inten    --      0.0564
  Atom  AN      X      Y      Z
     1   8     0.00   0.00  -0.06
     2   1     0.00   0.00   1.00
     3  19     0.00   0.00   0.00

 -------------------
 - Thermochemistry -
 -------------------
 Temperature   298.150 Kelvin.  Pressure   1.00000 Atm.
 Atom     1 has atomic number  8 and mass  15.99491
 Atom     2 has atomic number  1 and mass   1.00783
 Atom     3 has atomic number 19 and mass  38.96371
 Molecular mass:    55.96645 amu.
 Principal axes and moments of inertia in atomic units:
                           1         2         3
     Eigenvalues --     0.00000 241.40945 241.40945
           X            0.00000   0.92404   0.38230
           Y            0.00000  -0.38230   0.92404
           Z            1.00000   0.00000   0.00000
 This molecule is a prolate symmetric top.
 Rotational symmetry number  1.
 Rotational temperature (Kelvin)      0.35878
 Rotational constant (GHZ):           7.475851
 Zero-point vibrational energy      29678.4 (Joules/Mol)
                                    7.09330 (Kcal/Mol)
 Warning -- explicit consideration of   3 degrees of freedom as
           vibrations may cause significant error
 Vibrational temperatures:    509.98   509.98   593.26  5525.77
          (Kelvin)
 
 Zero-point correction=                           0.011304 (Hartree/Particle)
 Thermal correction to Energy=                    0.014675
 Thermal correction to Enthalpy=                  0.015619
 Thermal correction to Gibbs Free Energy=        -0.011248
 Sum of electronic and zero-point Energies=           -104.149063
 Sum of electronic and thermal Energies=              -104.145693
 Sum of electronic and thermal Enthalpies=            -104.144748
 Sum of electronic and thermal Free Energies=         -104.171615
 
                     E (Thermal)             CV                S
                      KCal/Mol        Cal/Mol-Kelvin    Cal/Mol-Kelvin
 Total                    9.209              9.544             56.545
 Electronic               0.000              0.000              0.000
 Translational            0.889              2.981             37.988
 Rotational               0.592              1.987             15.346
 Vibrational              7.727              4.576              3.211
 Vibration     1          0.730              1.566              1.146
 Vibration     2          0.730              1.566              1.146
 Vibration     3          0.776              1.443              0.918
                       Q            Log10(Q)             Ln(Q)
 Total Bot       0.149133D+06          5.173574         11.912594
 Total V=0       0.236047D+11         10.372998         23.884710
 Vib (Bot)       0.109050D-04         -4.962373        -11.426286
 Vib (Bot)    1  0.519012D+00         -0.284823         -0.655829
 Vib (Bot)    2  0.519012D+00         -0.284823         -0.655829
 Vib (Bot)    3  0.428325D+00         -0.368226         -0.847873
 Vib (V=0)       0.172604D+01          0.237051          0.545830
 Vib (V=0)    1  0.122068D+01          0.086600          0.199404
 Vib (V=0)    2  0.122068D+01          0.086600          0.199404
 Vib (V=0)    3  0.115838D+01          0.063851          0.147021
 Electronic      0.100000D+01          0.000000          0.000000
 Translational   0.164568D+08          7.216345         16.616250
 Rotational      0.831001D+03          2.919601          6.722631
 ***** Axes restored to original set *****
 -------------------------------------------------------------------
 Center     Atomic                   Forces (Hartrees/Bohr)
 Number     Number              X              Y              Z
 -------------------------------------------------------------------
      1        8           0.000000001    0.000020559    0.000000000
      2        1           0.000000000   -0.000001821    0.000000000
      3       19          -0.000000001   -0.000018739    0.000000000
 -------------------------------------------------------------------
 Cartesian Forces:  Max     0.000020559 RMS     0.000009292
 FormGI is forming the generalized inverse of G from B-inverse, IUseBI=4.

 GradGradGradGradGradGradGradGradGradGradGradGradGradGradGradGradGradGrad
 Berny optimization.
 Internal  Forces:  Max     0.000018739 RMS     0.000009413
 Search for a local minimum.
 Step number   1 out of a maximum of    2
 All quantities printed in internal units (Hartrees-Bohrs-Radians)
 Second derivative matrix not updated -- analytic derivatives used.
 The second derivative matrix:
                          R1        R2        A1        A2
           R1           0.52908
           R2           0.00111   0.07618
           A1           0.00000   0.00000   0.01407
           A2           0.00000   0.00000   0.00000   0.01407
 ITU=  0
     Eigenvalues ---    0.01407   0.01407   0.07618   0.52909
 Angle between quadratic step and forces=   4.63 degrees.
 Linear search not attempted -- first point.
 Iteration  1 RMS(Cart)=  0.00009964 RMS(Int)=  0.00000000
 Iteration  2 RMS(Cart)=  0.00000000 RMS(Int)=  0.00000001
 ClnCor:  largest displacement from symmetrization is 2.12D-11 for atom     1.
 Variable       Old X    -DE/DX   Delta X   Delta X   Delta X     New X
                                 (Linear)    (Quad)   (Total)
    R1        1.82386   0.00000   0.00000   0.00000   0.00000   1.82385
    R2        4.37827   0.00002   0.00000   0.00025   0.00025   4.37852
    A1        3.14159   0.00000   0.00000   0.00000   0.00000   3.14159
    A2        3.14159   0.00000   0.00000   0.00000   0.00000   3.14159
         Item               Value     Threshold  Converged?
 Maximum Force            0.000019     0.000450     YES
 RMS     Force            0.000009     0.000300     YES
 Maximum Displacement     0.000163     0.001800     YES
 RMS     Displacement     0.000100     0.001200     YES
 Predicted change in Energy=-2.308657D-09
 Optimization completed.
    -- Stationary point found.
                           ----------------------------
                           !   Optimized Parameters   !
                           ! (Angstroms and Degrees)  !
 --------------------------                            --------------------------
 ! Name  Definition              Value          Derivative Info.                !
 --------------------------------------------------------------------------------
 ! R1    R(1,2)                  0.9651         -DE/DX =    0.0                 !
 ! R2    R(1,3)                  2.3169         -DE/DX =    0.0                 !
 ! A1    L(2,1,3,-3,-1)        180.0            -DE/DX =    0.0                 !
 ! A2    L(2,1,3,-1,-2)        180.0            -DE/DX =    0.0                 !
 --------------------------------------------------------------------------------
 GradGradGradGradGradGradGradGradGradGradGradGradGradGradGradGradGradGrad


 ----------------------------------------------------------------------

 Electric dipole moment (input orientation):
 (Debye = 10**-18 statcoulomb cm , SI units = C m)
                  (au)            (Debye)         (10**-30 SI)
   Tot        0.341494D+01      0.867990D+01      0.289530D+02
   x         -0.180948D-03     -0.459923D-03     -0.153414D-02
   y         -0.341494D+01     -0.867990D+01     -0.289530D+02
   z          0.000000D+00      0.000000D+00      0.000000D+00

 Dipole polarizability, Alpha (input orientation).
 (esu units = cm**3 , SI units = C**2 m**2 J**-1)
 Alpha(0;0):
               (au)            (10**-24 esu)      (10**-40 SI)
   iso        0.185486D+02      0.274862D+01      0.305826D+01
   aniso      0.448681D+00      0.664877D-01      0.739775D-01
   xx         0.186982D+02      0.277079D+01      0.308292D+01
   yx        -0.237743D-04     -0.352299D-05     -0.391985D-05
   yy         0.182495D+02      0.270430D+01      0.300894D+01
   zx         0.000000D+00      0.000000D+00      0.000000D+00
   zy         0.000000D+00      0.000000D+00      0.000000D+00
   zz         0.186982D+02      0.277079D+01      0.308292D+01

 ----------------------------------------------------------------------

 Dipole orientation:
     8         -0.00000040          0.00000000         -2.90710210
     1         -0.00000040          0.00000000         -4.73096090
    19         -0.00000040          0.00000000          1.47116849

 Electric dipole moment (dipole orientation):
 (Debye = 10**-18 statcoulomb cm , SI units = C m)
                  (au)            (Debye)         (10**-30 SI)
   Tot        0.341494D+01      0.867990D+01      0.289530D+02
   x          0.000000D+00      0.000000D+00      0.000000D+00
   y          0.000000D+00      0.000000D+00      0.000000D+00
   z          0.341494D+01      0.867990D+01      0.289530D+02

 Dipole polarizability, Alpha (dipole orientation).
 (esu units = cm**3 , SI units = C**2 m**2 J**-1)
 Alpha(0;0):
               (au)            (10**-24 esu)      (10**-40 SI)
   iso        0.185486D+02      0.274862D+01      0.305826D+01
   aniso      0.448681D+00      0.664877D-01      0.739775D-01
   xx         0.186982D+02      0.277079D+01      0.308292D+01
   yx         0.000000D+00      0.000000D+00      0.000000D+00
   yy         0.186982D+02      0.277079D+01      0.308292D+01
   zx         0.000000D+00      0.000000D+00      0.000000D+00
   zy         0.000000D+00      0.000000D+00      0.000000D+00
   zz         0.182495D+02      0.270430D+01      0.300894D+01

 ----------------------------------------------------------------------
 1\1\GINC-IP-172-31-20-208\Freq\RB3LYP\Gen\H1K1O1\UBUNTU\20-Sep-2023\0\
 \#N Geom=AllCheck Guess=TCheck SCRF=Check GenChk RB3LYP/ChkBas Freq\\N
 aOH\\0,1\O,0.0000812995,1.5383721767,0.\H,0.0001324397,2.5035166881,0.
 \K,-0.0000414652,-0.7785088371,0.\\Version=EM64L-G16RevB.01\State=1-SG
 \HF=-104.1603673\RMSD=2.655e-09\RMSF=9.292e-06\ZeroPoint=0.0113039\The
 rmal=0.0146747\Dipole=-0.0001809,-3.4149373,0.\DipoleDeriv=-1.1704878,
 0.0000145,0.,0.0000145,-0.8959052,0.,0.,0.,-1.1704878,0.2756716,-0.000
 0172,0.,-0.0000172,-0.0490992,0.,0.,0.,0.2756716,0.8948162,0.0000027,0
 .,0.0000027,0.9450044,0.,0.,0.,0.8948162\Polar=18.6981951,-0.0000238,1
 8.249514,0.,0.,18.6981951\Quadrupole=-0.2157209,0.4314417,-0.2157209,0
 .0000343,0.,0.\PG=C*V [C*(H1O1K1)]\NImag=0\\0.00848168,0.00003150,0.60
 304774,0.,0.,0.00848168,-0.00600141,-0.00002766,0.,0.00423727,-0.00002
 766,-0.52797369,0.,0.00002781,0.52908398,0.,0.,-0.00600141,0.,0.,0.004
 23727,-0.00248027,-0.00000385,0.,0.00176414,-0.00000015,0.,0.00071613,
 -0.00000385,-0.07507405,0.,-0.00000015,-0.00111029,0.,0.00000400,0.076
 18433,0.,0.,-0.00248027,0.,0.,0.00176414,0.,0.,0.00071613\\0.,-0.00002
 056,0.,0.,0.00000182,0.,0.,0.00001874,0.\\\@


 A MAN THINKING OR WORKING IS ALWAYS ALONE, 
 LET HIM BE WHERE HE WILL.

                                    -- THOREAU
 Job cpu time:       0 days  0 hours  1 minutes 25.0 seconds.
 Elapsed time:       0 days  0 hours  0 minutes  2.7 seconds.
 File lengths (MBytes):  RWF=      6 Int=      0 D2E=      0 Chk=      1 Scr=      1
 Normal termination of Gaussian 16 at Wed Sep 20 06:38:43 2023.
