 Entering Link 1 = C:\G09W\l1.exe PID=       676.
  
 Copyright (c) 1988,1990,1992,1993,1995,1998,2003,2009,2013,
            Gaussian, Inc.  All Rights Reserved.
  
 This is part of the Gaussian(R) 09 program.  It is based on
 the Gaussian(R) 03 system (copyright 2003, Gaussian, Inc.),
 the Gaussian(R) 98 system (copyright 1998, Gaussian, Inc.),
 the Gaussian(R) 94 system (copyright 1995, Gaussian, Inc.),
 the Gaussian 92(TM) system (copyright 1992, Gaussian, Inc.),
 the Gaussian 90(TM) system (copyright 1990, Gaussian, Inc.),
 the Gaussian 88(TM) system (copyright 1988, Gaussian, Inc.),
 the Gaussian 86(TM) system (copyright 1986, Carnegie Mellon
 University), and the Gaussian 82(TM) system (copyright 1983,
 Carnegie Mellon University). Gaussian is a federally registered
 trademark of Gaussian, Inc.
  
 This software contains proprietary and confidential information,
 including trade secrets, belonging to Gaussian, Inc.
  
 This software is provided under written license and may be
 used, copied, transmitted, or stored only in accord with that
 written license.
  
 The following legend is applicable only to US Government
 contracts under FAR:
  
                    RESTRICTED RIGHTS LEGEND
  
 Use, reproduction and disclosure by the US Government is
 subject to restrictions as set forth in subparagraphs (a)
 and (c) of the Commercial Computer Software - Restricted
 Rights clause in FAR 52.227-19.
  
 Gaussian, Inc.
 340 Quinnipiac St., Bldg. 40, Wallingford CT 06492
  
  
 ---------------------------------------------------------------
 Warning -- This program may not be used in any manner that
 competes with the business of Gaussian, Inc. or will provide
 assistance to any competitor of Gaussian, Inc.  The licensee
 of this program is prohibited from giving any competitor of
 Gaussian, Inc. access to this program.  By using this program,
 the user acknowledges that Gaussian, Inc. is engaged in the
 business of creating and licensing software in the field of
 computational chemistry and represents and warrants to the
 licensee that it is not a competitor of Gaussian, Inc. and that
 it will not use this program in any manner prohibited above.
 ---------------------------------------------------------------
  

 Cite this work as:
 Gaussian 09, Revision D.01,
 M. J. Frisch, G. W. Trucks, H. B. Schlegel, G. E. Scuseria, 
 M. A. Robb, J. R. Cheeseman, G. Scalmani, V. Barone, B. Mennucci, 
 G. A. Petersson, H. Nakatsuji, M. Caricato, X. Li, H. P. Hratchian, 
 A. F. Izmaylov, J. Bloino, G. Zheng, J. L. Sonnenberg, M. Hada, 
 M. Ehara, K. Toyota, R. Fukuda, J. Hasegawa, M. Ishida, T. Nakajima, 
 Y. Honda, O. Kitao, H. Nakai, T. Vreven, J. A. Montgomery, Jr., 
 J. E. Peralta, F. Ogliaro, M. Bearpark, J. J. Heyd, E. Brothers, 
 K. N. Kudin, V. N. Staroverov, T. Keith, R. Kobayashi, J. Normand, 
 K. Raghavachari, A. Rendell, J. C. Burant, S. S. Iyengar, J. Tomasi, 
 M. Cossi, N. Rega, J. M. Millam, M. Klene, J. E. Knox, J. B. Cross, 
 V. Bakken, C. Adamo, J. Jaramillo, R. Gomperts, R. E. Stratmann, 
 O. Yazyev, A. J. Austin, R. Cammi, C. Pomelli, J. W. Ochterski, 
 R. L. Martin, K. Morokuma, V. G. Zakrzewski, G. A. Voth, 
 P. Salvador, J. J. Dannenberg, S. Dapprich, A. D. Daniels, 
 O. Farkas, J. B. Foresman, J. V. Ortiz, J. Cioslowski, 
 and D. J. Fox, Gaussian, Inc., Wallingford CT, 2013.
 
 ******************************************
 Gaussian 09:  EM64W-G09RevD.01 13-Apr-2013
                24-Aug-2023 
 ******************************************
 %nprocshared=2
 Will use up to    2 processors via shared memory.
 %mem=4GB
 %chk=D:\ML\molecule_21.chk
 --------------------------------------------------------------------
 # opt freq b3lyp/6-31+g(d) geom=connectivity empiricaldispersion=gd3
 --------------------------------------------------------------------
 1/14=-1,18=20,19=15,26=3,38=1,57=2/1,3;
 2/9=110,12=2,17=6,18=5,40=1/2;
 3/5=1,6=6,7=11,11=2,16=1,25=1,30=1,71=1,74=-5,124=31/1,2,3;
 4//1;
 5/5=2,38=5/2;
 6/7=2,8=2,9=2,10=2,28=1/1;
 7//1,2,3,16;
 1/14=-1,18=20,19=15,26=3/3(2);
 2/9=110/2;
 99//99;
 2/9=110/2;
 3/5=1,6=6,7=11,11=2,16=1,25=1,30=1,71=1,74=-5,124=31/1,2,3;
 4/5=5,16=3,69=1/1;
 5/5=2,38=5/2;
 7//1,2,3,16;
 1/14=-1,18=20,19=15,26=3/3(-5);
 2/9=110/2;
 6/7=2,8=2,9=2,10=2,19=2,28=1/1;
 99/9=1/99;
 -------------------
 Title Card Required
 -------------------
 Symbolic Z-matrix:
 Charge =  0 Multiplicity = 1
 C                    -5.39151   1.06295  -0.41536 
 C                    -4.51164   0.09537  -0.9179 
 C                    -3.24269  -0.06554  -0.3436 
 C                    -2.85284   0.74495   0.7318 
 C                    -3.7324    1.71396   1.23411 
 C                    -5.00166   1.87227   0.66094 
 H                    -6.36055   1.18507  -0.85253 
 H                    -4.80781  -0.52162  -1.73955 
 H                    -1.88323   0.62465   1.16848 
 H                    -3.43548   2.33317   2.05449 
 H                    -5.67265   2.61132   1.04416 
 C                    -2.28487  -1.12674  -0.89443 
 C                    -1.52964  -1.96352  -1.32878 
 C                    -0.56599  -3.03128  -1.88306 
 C                     0.70257  -3.19308  -1.3088 
 C                    -0.95546  -3.83989  -2.95979 
 C                     1.58216  -4.16077  -1.8132 
 H                     0.99917  -2.57928  -0.48518 
 C                    -0.07379  -4.80524  -3.46645 
 H                    -1.92531  -3.7213   -3.39658 
 C                     1.19459  -4.96575  -2.8925 
 H                     2.55037  -4.28478  -1.37426 
 H                    -0.36898  -5.42055  -4.29046 
 C                     2.16206  -6.02711  -3.44768 
 H                     2.76236  -5.59267  -4.21921 
 H                     2.79407  -6.38067  -2.65996 
 H                     1.60158  -6.84528  -3.84935 
 

 GradGradGradGradGradGradGradGradGradGradGradGradGradGradGradGradGradGrad
 Berny optimization.
 Initialization pass.
                           ----------------------------
                           !    Initial Parameters    !
                           ! (Angstroms and Degrees)  !
 --------------------------                            --------------------------
 ! Name  Definition              Value          Derivative Info.                !
 --------------------------------------------------------------------------------
 ! R1    R(1,2)                  1.401          estimate D2E/DX2                !
 ! R2    R(1,6)                  1.4019         estimate D2E/DX2                !
 ! R3    R(1,7)                  1.0701         estimate D2E/DX2                !
 ! R4    R(2,3)                  1.4021         estimate D2E/DX2                !
 ! R5    R(2,8)                  1.0693         estimate D2E/DX2                !
 ! R6    R(3,4)                  1.4019         estimate D2E/DX2                !
 ! R7    R(3,12)                 1.532          estimate D2E/DX2                !
 ! R8    R(4,5)                  1.4018         estimate D2E/DX2                !
 ! R9    R(4,9)                  1.0702         estimate D2E/DX2                !
 ! R10   R(5,6)                  1.4016         estimate D2E/DX2                !
 ! R11   R(5,10)                 1.0699         estimate D2E/DX2                !
 ! R12   R(6,11)                 1.0692         estimate D2E/DX2                !
 ! R13   R(12,13)                1.208          estimate D2E/DX2                !
 ! R14   R(13,14)                1.5414         estimate D2E/DX2                !
 ! R15   R(14,15)                1.4019         estimate D2E/DX2                !
 ! R16   R(14,16)                1.4017         estimate D2E/DX2                !
 ! R17   R(15,17)                1.4016         estimate D2E/DX2                !
 ! R18   R(15,18)                1.0691         estimate D2E/DX2                !
 ! R19   R(16,19)                1.4021         estimate D2E/DX2                !
 ! R20   R(16,20)                1.0703         estimate D2E/DX2                !
 ! R21   R(17,21)                1.4011         estimate D2E/DX2                !
 ! R22   R(17,22)                1.0703         estimate D2E/DX2                !
 ! R23   R(19,21)                1.4014         estimate D2E/DX2                !
 ! R24   R(19,23)                1.0699         estimate D2E/DX2                !
 ! R25   R(21,24)                1.5397         estimate D2E/DX2                !
 ! R26   R(24,25)                1.0697         estimate D2E/DX2                !
 ! R27   R(24,26)                1.07           estimate D2E/DX2                !
 ! R28   R(24,27)                1.07           estimate D2E/DX2                !
 ! A1    A(2,1,6)              119.9618         estimate D2E/DX2                !
 ! A2    A(2,1,7)              120.0652         estimate D2E/DX2                !
 ! A3    A(6,1,7)              119.9731         estimate D2E/DX2                !
 ! A4    A(1,2,3)              120.0466         estimate D2E/DX2                !
 ! A5    A(1,2,8)              120.0095         estimate D2E/DX2                !
 ! A6    A(3,2,8)              119.9439         estimate D2E/DX2                !
 ! A7    A(2,3,4)              119.968          estimate D2E/DX2                !
 ! A8    A(2,3,12)             119.8715         estimate D2E/DX2                !
 ! A9    A(4,3,12)             120.1605         estimate D2E/DX2                !
 ! A10   A(3,4,5)              120.0034         estimate D2E/DX2                !
 ! A11   A(3,4,9)              119.9976         estimate D2E/DX2                !
 ! A12   A(5,4,9)              119.9989         estimate D2E/DX2                !
 ! A13   A(4,5,6)              119.9832         estimate D2E/DX2                !
 ! A14   A(4,5,10)             120.0488         estimate D2E/DX2                !
 ! A15   A(6,5,10)             119.968          estimate D2E/DX2                !
 ! A16   A(1,6,5)              120.0369         estimate D2E/DX2                !
 ! A17   A(1,6,11)             119.9779         estimate D2E/DX2                !
 ! A18   A(5,6,11)             119.9852         estimate D2E/DX2                !
 ! A19   A(13,14,15)           119.8925         estimate D2E/DX2                !
 ! A20   A(13,14,16)           120.1404         estimate D2E/DX2                !
 ! A21   A(15,14,16)           119.9671         estimate D2E/DX2                !
 ! A22   A(14,15,17)           120.0101         estimate D2E/DX2                !
 ! A23   A(14,15,18)           120.0224         estimate D2E/DX2                !
 ! A24   A(17,15,18)           119.9675         estimate D2E/DX2                !
 ! A25   A(14,16,19)           120.0014         estimate D2E/DX2                !
 ! A26   A(14,16,20)           120.0889         estimate D2E/DX2                !
 ! A27   A(19,16,20)           119.9096         estimate D2E/DX2                !
 ! A28   A(15,17,21)           120.0191         estimate D2E/DX2                !
 ! A29   A(15,17,22)           120.0078         estimate D2E/DX2                !
 ! A30   A(21,17,22)           119.973          estimate D2E/DX2                !
 ! A31   A(16,19,21)           119.9989         estimate D2E/DX2                !
 ! A32   A(16,19,23)           120.0498         estimate D2E/DX2                !
 ! A33   A(21,19,23)           119.9512         estimate D2E/DX2                !
 ! A34   A(17,21,19)           120.0025         estimate D2E/DX2                !
 ! A35   A(17,21,24)           119.999          estimate D2E/DX2                !
 ! A36   A(19,21,24)           119.9985         estimate D2E/DX2                !
 ! A37   A(21,24,25)           109.4332         estimate D2E/DX2                !
 ! A38   A(21,24,26)           109.4787         estimate D2E/DX2                !
 ! A39   A(21,24,27)           109.47           estimate D2E/DX2                !
 ! A40   A(25,24,26)           109.493          estimate D2E/DX2                !
 ! A41   A(25,24,27)           109.4959         estimate D2E/DX2                !
 ! A42   A(26,24,27)           109.4565         estimate D2E/DX2                !
 ! A43   L(3,12,13,8,-1)       179.9993         estimate D2E/DX2                !
 ! A44   L(12,13,14,18,-1)     180.0027         estimate D2E/DX2                !
 ! A45   L(3,12,13,8,-2)       180.0            estimate D2E/DX2                !
 ! A46   L(12,13,14,18,-2)     180.0            estimate D2E/DX2                !
 ! D1    D(6,1,2,3)              0.1135         estimate D2E/DX2                !
 ! D2    D(6,1,2,8)           -179.9313         estimate D2E/DX2                !
 ! D3    D(7,1,2,3)           -179.9136         estimate D2E/DX2                !
 ! D4    D(7,1,2,8)              0.0416         estimate D2E/DX2                !
 ! D5    D(2,1,6,5)              0.0083         estimate D2E/DX2                !
 ! D6    D(2,1,6,11)           179.9506         estimate D2E/DX2                !
 ! D7    D(7,1,6,5)           -179.9646         estimate D2E/DX2                !
 ! D8    D(7,1,6,11)            -0.0223         estimate D2E/DX2                !
 ! D9    D(1,2,3,4)             -0.1776         estimate D2E/DX2                !
 ! D10   D(1,2,3,12)           179.8746         estimate D2E/DX2                !
 ! D11   D(8,2,3,4)            179.8672         estimate D2E/DX2                !
 ! D12   D(8,2,3,12)            -0.0806         estimate D2E/DX2                !
 ! D13   D(2,3,4,5)              0.1198         estimate D2E/DX2                !
 ! D14   D(2,3,4,9)           -179.806          estimate D2E/DX2                !
 ! D15   D(12,3,4,5)          -179.9325         estimate D2E/DX2                !
 ! D16   D(12,3,4,9)             0.1417         estimate D2E/DX2                !
 ! D17   D(2,3,14,15)         -179.9659         estimate D2E/DX2                !
 ! D18   D(2,3,14,16)            0.0542         estimate D2E/DX2                !
 ! D19   D(4,3,14,15)            0.0865         estimate D2E/DX2                !
 ! D20   D(4,3,14,16)         -179.8934         estimate D2E/DX2                !
 ! D21   D(3,4,5,6)              0.0018         estimate D2E/DX2                !
 ! D22   D(3,4,5,10)          -179.9731         estimate D2E/DX2                !
 ! D23   D(9,4,5,6)            179.9276         estimate D2E/DX2                !
 ! D24   D(9,4,5,10)            -0.0473         estimate D2E/DX2                !
 ! D25   D(4,5,6,1)             -0.066          estimate D2E/DX2                !
 ! D26   D(4,5,6,11)           179.9917         estimate D2E/DX2                !
 ! D27   D(10,5,6,1)           179.909          estimate D2E/DX2                !
 ! D28   D(10,5,6,11)           -0.0333         estimate D2E/DX2                !
 ! D29   D(13,14,15,17)       -179.8269         estimate D2E/DX2                !
 ! D30   D(13,14,15,18)          0.247          estimate D2E/DX2                !
 ! D31   D(16,14,15,17)          0.153          estimate D2E/DX2                !
 ! D32   D(16,14,15,18)       -179.7731         estimate D2E/DX2                !
 ! D33   D(13,14,16,19)        179.648          estimate D2E/DX2                !
 ! D34   D(13,14,16,20)         -0.3214         estimate D2E/DX2                !
 ! D35   D(15,14,16,19)         -0.3319         estimate D2E/DX2                !
 ! D36   D(15,14,16,20)        179.6987         estimate D2E/DX2                !
 ! D37   D(14,15,17,21)          0.0732         estimate D2E/DX2                !
 ! D38   D(14,15,17,22)       -179.9531         estimate D2E/DX2                !
 ! D39   D(18,15,17,21)        179.9993         estimate D2E/DX2                !
 ! D40   D(18,15,17,22)         -0.0269         estimate D2E/DX2                !
 ! D41   D(14,16,19,21)          0.2848         estimate D2E/DX2                !
 ! D42   D(14,16,19,23)       -179.788          estimate D2E/DX2                !
 ! D43   D(20,16,19,21)       -179.7458         estimate D2E/DX2                !
 ! D44   D(20,16,19,23)          0.1814         estimate D2E/DX2                !
 ! D45   D(15,17,21,19)         -0.1204         estimate D2E/DX2                !
 ! D46   D(15,17,21,24)        179.9023         estimate D2E/DX2                !
 ! D47   D(22,17,21,19)        179.9058         estimate D2E/DX2                !
 ! D48   D(22,17,21,24)         -0.0714         estimate D2E/DX2                !
 ! D49   D(16,19,21,17)         -0.0586         estimate D2E/DX2                !
 ! D50   D(16,19,21,24)        179.9187         estimate D2E/DX2                !
 ! D51   D(23,19,21,17)       -179.9858         estimate D2E/DX2                !
 ! D52   D(23,19,21,24)         -0.0086         estimate D2E/DX2                !
 ! D53   D(17,21,24,25)        -90.0474         estimate D2E/DX2                !
 ! D54   D(17,21,24,26)         29.9606         estimate D2E/DX2                !
 ! D55   D(17,21,24,27)        149.9464         estimate D2E/DX2                !
 ! D56   D(19,21,24,25)         89.9754         estimate D2E/DX2                !
 ! D57   D(19,21,24,26)       -150.0166         estimate D2E/DX2                !
 ! D58   D(19,21,24,27)        -30.0308         estimate D2E/DX2                !
 --------------------------------------------------------------------------------
 Trust Radius=3.00D-01 FncErr=1.00D-07 GrdErr=1.00D-06
 Number of steps in this run=    142 maximum allowed number of steps=    162.
 GradGradGradGradGradGradGradGradGradGradGradGradGradGradGradGradGradGrad

                          Input orientation:                          
 ---------------------------------------------------------------------
 Center     Atomic      Atomic             Coordinates (Angstroms)
 Number     Number       Type             X           Y           Z
 ---------------------------------------------------------------------
      1          6           0       -5.391512    1.062951   -0.415356
      2          6           0       -4.511645    0.095372   -0.917895
      3          6           0       -3.242687   -0.065537   -0.343602
      4          6           0       -2.852843    0.744951    0.731795
      5          6           0       -3.732397    1.713960    1.234109
      6          6           0       -5.001659    1.872271    0.660944
      7          1           0       -6.360550    1.185069   -0.852527
      8          1           0       -4.807808   -0.521619   -1.739546
      9          1           0       -1.883231    0.624647    1.168482
     10          1           0       -3.435477    2.333165    2.054491
     11          1           0       -5.672647    2.611320    1.044163
     12          6           0       -2.284874   -1.126743   -0.894434
     13          6           0       -1.529636   -1.963522   -1.328781
     14          6           0       -0.565994   -3.031279   -1.883063
     15          6           0        0.702574   -3.193082   -1.308803
     16          6           0       -0.955455   -3.839888   -2.959790
     17          6           0        1.582158   -4.160771   -1.813201
     18          1           0        0.999167   -2.579278   -0.485181
     19          6           0       -0.073785   -4.805243   -3.466446
     20          1           0       -1.925309   -3.721299   -3.396577
     21          6           0        1.194590   -4.965751   -2.892502
     22          1           0        2.550369   -4.284781   -1.374264
     23          1           0       -0.368981   -5.420546   -4.290455
     24          6           0        2.162062   -6.027115   -3.447679
     25          1           0        2.762356   -5.592673   -4.219209
     26          1           0        2.794065   -6.380668   -2.659964
     27          1           0        1.601585   -6.845284   -3.849346
 ---------------------------------------------------------------------
                    Distance matrix (angstroms):
                    1          2          3          4          5
     1  C    0.000000
     2  C    1.401042   0.000000
     3  C    2.428184   1.402126   0.000000
     4  C    2.803911   2.427973   1.401909   0.000000
     5  C    2.428417   2.803243   2.428085   1.401754   0.000000
     6  C    1.401930   2.426977   2.803247   2.427608   1.401644
     7  H    1.070078   2.147128   3.397659   3.873989   3.397199
     8  H    2.145937   1.069346   2.146223   3.396117   3.872588
     9  H    3.874105   3.397302   2.147294   1.070195   2.147168
    10  H    3.397008   3.873104   3.397321   2.147419   1.069861
    11  H    2.146318   3.395231   3.872487   3.395910   2.146137
    12  C    3.830858   2.540202   1.531986   2.543708   3.833486
    13  C    4.990788   3.646951   2.739976   3.651394   4.994440
    14  C    6.496345   5.125979   4.281385   5.130992   6.500782
    15  C    7.486651   6.176959   5.126231   5.684465   7.086215
    16  C    7.084530   5.683493   5.130458   6.184548   7.493025
    17  C    8.824586   7.486706   6.496907   7.086068   8.487819
    18  H    7.356051   6.140851   4.932775   5.231588   6.616310
    19  C    8.486640   7.085601   6.500685   7.493533   8.830666
    20  H    6.617498   5.234499   4.941735   6.152330   7.365519
    21  C    9.265972   7.878779   7.085085   7.882218   9.269448
    22  H    9.622432   8.322623   7.240427   7.676483   9.069821
    23  H    9.070718   7.678618   7.246514   8.331022   9.629878
    24  C   10.794465   9.403351   8.624791   9.406282  10.797594
    25  H   11.191612   9.806305   9.034938   9.808587  11.194078
    26  H   11.289348   9.917021   9.038185   9.703919  11.103221
    27  H   11.101165   9.702458   9.040033   9.921716  11.293961
                    6          7          8          9         10
     6  C    0.000000
     7  H    2.146957   0.000000
     8  H    3.395679   2.471961   0.000000
     9  H    3.396874   4.944182   4.280619   0.000000
    10  H    2.146467   4.280763   4.942448   2.472552   0.000000
    11  H    1.069241   2.470797   4.279286   4.280421   2.470437
    12  C    4.335229   4.685869   2.728660   2.735746   4.689457
    13  C    5.543217   5.786032   3.604750   3.613858   5.791397
    14  C    7.084624   7.239922   4.930718   4.940935   7.246760
    15  C    7.878831   8.322506   6.138938   5.234346   7.679494
    16  C    7.881005   7.675011   5.228817   6.151054   8.330673
    17  C    9.266372   9.622240   7.353946   6.618125   9.072316
    18  H    7.559088   8.274702   6.287158   4.616054   7.088590
    19  C    9.268683   9.068617   6.613818   7.364805   9.630087
    20  H    7.564089   7.086325   4.614380   6.303077   8.285607
    21  C    9.888328   9.953603   7.557010   7.564200   9.959139
    22  H    9.954119  10.468808   8.272701   7.086948   9.559493
    23  H    9.958074   9.557844   7.085888   8.284763  10.477680
    24  C   11.428035  11.462343   9.044738   9.050926  11.467371
    25  H   11.824602  11.853259   9.443077   9.447949  11.857122
    26  H   11.828472  12.013083   9.641789   9.252487  11.703169
    27  H   11.829680  11.698850   9.247720   9.649995  12.019618
                   11         12         13         14         15
    11  H    0.000000
    12  C    5.404469   0.000000
    13  C    6.612457   1.207990   0.000000
    14  C    8.153863   2.749399   1.541409   0.000000
    15  C    8.937057   3.655996   2.548525   1.401863   0.000000
    16  C    8.938771   3.659809   2.551593   1.401738   2.427587
    17  C   10.327534   5.000340   3.840030   2.428001   1.401609
    18  H    8.590362   3.614177   2.735994   2.146651   1.069148
    19  C   10.329484   5.003550   3.842459   2.428233   2.803073
    20  H    8.594462   3.622393   2.742648   2.148160   3.397585
    21  C   10.957568   5.553101   4.345114   2.803713   2.427455
    22  H   11.001045   5.795085   4.694332   3.397331   2.147193
    23  H   11.004449   5.800030   4.697835   3.397491   3.872993
    24  C   12.497274   7.092809   5.884824   4.343425   3.838832
    25  H   12.890224   7.514864   6.320325   4.805853   4.297813
    26  H   12.894247   7.517742   6.322786   4.807491   4.044833
    27  H   12.895280   7.519161   6.323717   4.807421   4.538850
                   16         17         18         19         20
    16  C    0.000000
    17  C    2.803055   0.000000
    18  H    3.396083   2.145842   0.000000
    19  C    1.402124   2.427079   3.872220   0.000000
    20  H    1.070263   3.873312   4.281706   2.146615   0.000000
    21  C    2.427919   1.401105   3.395385   1.401410   3.396546
    22  H    3.873322   1.070269   2.470917   3.396217   4.943577
    23  H    2.147813   3.395698   4.942140   1.069920   2.471561
    24  C    3.839389   2.547753   4.692153   2.548006   4.693186
    25  H    4.298897   3.038434   5.111981   3.038157   5.113997
    26  H    4.539203   2.667146   4.733065   3.370007   5.466931
    27  H    4.045018   3.369403   5.466198   2.667442   4.733209
                   21         22         23         24         25
    21  C    0.000000
    22  H    2.146371   0.000000
    23  H    2.146128   4.279806   0.000000
    24  C    1.539713   2.735975   2.735759   0.000000
    25  H    2.147341   3.138349   3.136874   1.069743   0.000000
    26  H    2.148112   2.470861   3.685810   1.070011   1.747337
    27  H    2.147985   3.685431   2.471354   1.069987   1.747348
                   26         27
    26  H    0.000000
    27  H    1.747143   0.000000
 Stoichiometry    C15H12
 Framework group  C1[X(C15H12)]
 Deg. of freedom    75
 Full point group                 C1      NOp   1
 Largest Abelian subgroup         C1      NOp   1
 Largest concise Abelian subgroup C1      NOp   1
                         Standard orientation:                         
 ---------------------------------------------------------------------
 Center     Atomic      Atomic             Coordinates (Angstroms)
 Number     Number       Type             X           Y           Z
 ---------------------------------------------------------------------
      1          6           0       -4.764631    1.215192   -0.000431
      2          6           0       -3.363592    1.212491    0.000738
      3          6           0       -2.663883   -0.002566    0.000459
      4          6           0       -3.366866   -1.215479    0.002773
      5          6           0       -4.768618   -1.213219    0.002827
      6          6           0       -5.467126    0.001971    0.000526
      7          1           0       -5.298937    2.142329   -0.001614
      8          1           0       -2.826982    2.137450    0.001120
      9          1           0       -2.833282   -2.143162    0.005700
     10          1           0       -5.305830   -2.138423    0.005027
     11          1           0       -6.536366    0.003731    0.000433
     12          6           0       -1.131899   -0.000837   -0.001168
     13          6           0        0.076090    0.000540   -0.002450
     14          6           0        1.617496    0.002371   -0.004085
     15          6           0        2.317592   -1.212160   -0.005089
     16          6           0        2.319898    1.215426   -0.004145
     17          6           0        3.719199   -1.213375   -0.002912
     18          1           0        1.782747   -2.137905   -0.008711
     19          6           0        3.722008    1.213698    0.001825
     20          1           0        1.787385    2.143798   -0.008249
     21          6           0        4.421201   -0.000830    0.001820
     22          1           0        4.253659   -2.140643   -0.004437
     23          1           0        4.258905    2.139149    0.005210
     24          6           0        5.960906   -0.002711    0.006484
     25          1           0        6.313759   -0.004478    1.016356
     26          1           0        6.318171   -0.876030   -0.498096
     27          1           0        6.320138    0.871110   -0.495772
 ---------------------------------------------------------------------
 Rotational constants (GHZ):      2.7848908      0.1864420      0.1749298
 Standard basis: 6-31+G(d) (6D, 7F)
 There are   309 symmetry adapted cartesian basis functions of A   symmetry.
 There are   309 symmetry adapted basis functions of A   symmetry.
   309 basis functions,   528 primitive gaussians,   309 cartesian basis functions
    51 alpha electrons       51 beta electrons
       nuclear repulsion energy       773.5792104280 Hartrees.
 NAtoms=   27 NActive=   27 NUniq=   27 SFac= 1.00D+00 NAtFMM=   60 NAOKFM=F Big=F
 Integral buffers will be    131072 words long.
 Raffenetti 2 integral format.
 Two-electron integral symmetry is turned on.
 Nuclear repulsion after empirical dispersion term =      773.5623299867 Hartrees.
 One-electron integrals computed using PRISM.
 NBasis=   309 RedAO= T EigKep=  2.63D-06  NBF=   309
 NBsUse=   305 1.00D-06 EigRej=  7.03D-07 NBFU=   305
 ExpMin= 4.38D-02 ExpMax= 3.05D+03 ExpMxC= 4.57D+02 IAcc=2 IRadAn=         4 AccDes= 0.00D+00
 Harris functional with IExCor=  402 and IRadAn=       4 diagonalized for initial guess.
 HarFok:  IExCor=  402 AccDes= 0.00D+00 IRadAn=         4 IDoV= 1 UseB2=F ITyADJ=14
 ICtDFT=  3500011 ScaDFX=  1.000000  1.000000  1.000000  1.000000
 FoFCou: FMM=F IPFlag=           0 FMFlag=      100000 FMFlg1=           0
         NFxFlg=           0 DoJE=T BraDBF=F KetDBF=T FulRan=T
         wScrn=  0.000000 ICntrl=     500 IOpCl=  0 I1Cent=   200000004 NGrid=           0
         NMat0=    1 NMatS0=      1 NMatT0=    0 NMatD0=    1 NMtDS0=    0 NMtDT0=    0
 Petite list used in FoFCou.
 Requested convergence on RMS density matrix=1.00D-08 within 128 cycles.
 Requested convergence on MAX density matrix=1.00D-06.
 Requested convergence on             energy=1.00D-06.
 No special actions if energy rises.
 SCF Done:  E(RB3LYP) =  -578.801068354     A.U. after   14 cycles
            NFock= 14  Conv=0.33D-08     -V/T= 2.0102

 **********************************************************************

            Population analysis using the SCF density.

 **********************************************************************

 Orbital symmetries:
       Occupied  (A) (A) (A) (A) (A) (A) (A) (A) (A) (A) (A) (A)
                 (A) (A) (A) (A) (A) (A) (A) (A) (A) (A) (A) (A)
                 (A) (A) (A) (A) (A) (A) (A) (A) (A) (A) (A) (A)
                 (A) (A) (A) (A) (A) (A) (A) (A) (A) (A) (A) (A)
                 (A) (A) (A)
       Virtual   (A) (A) (A) (A) (A) (A) (A) (A) (A) (A) (A) (A)
                 (A) (A) (A) (A) (A) (A) (A) (A) (A) (A) (A) (A)
                 (A) (A) (A) (A) (A) (A) (A) (A) (A) (A) (A) (A)
                 (A) (A) (A) (A) (A) (A) (A) (A) (A) (A) (A) (A)
                 (A) (A) (A) (A) (A) (A) (A) (A) (A) (A) (A) (A)
                 (A) (A) (A) (A) (A) (A) (A) (A) (A) (A) (A) (A)
                 (A) (A) (A) (A) (A) (A) (A) (A) (A) (A) (A) (A)
                 (A) (A) (A) (A) (A) (A) (A) (A) (A) (A) (A) (A)
                 (A) (A) (A) (A) (A) (A) (A) (A) (A) (A) (A) (A)
                 (A) (A) (A) (A) (A) (A) (A) (A) (A) (A) (A) (A)
                 (A) (A) (A) (A) (A) (A) (A) (A) (A) (A) (A) (A)
                 (A) (A) (A) (A) (A) (A) (A) (A) (A) (A) (A) (A)
                 (A) (A) (A) (A) (A) (A) (A) (A) (A) (A) (A) (A)
                 (A) (A) (A) (A) (A) (A) (A) (A) (A) (A) (A) (A)
                 (A) (A) (A) (A) (A) (A) (A) (A) (A) (A) (A) (A)
                 (A) (A) (A) (A) (A) (A) (A) (A) (A) (A) (A) (A)
                 (A) (A) (A) (A) (A) (A) (A) (A) (A) (A) (A) (A)
                 (A) (A) (A) (A) (A) (A) (A) (A) (A) (A) (A) (A)
                 (A) (A) (A) (A) (A) (A) (A) (A) (A) (A) (A) (A)
                 (A) (A) (A) (A) (A) (A) (A) (A) (A) (A) (A) (A)
                 (A) (A) (A) (A) (A) (A) (A) (A) (A) (A) (A) (A)
                 (A) (A)
 The electronic state is 1-A.
 Alpha  occ. eigenvalues --  -10.23265 -10.23054 -10.21014 -10.20350 -10.20328
 Alpha  occ. eigenvalues --  -10.20312 -10.20289 -10.20237 -10.20220 -10.20137
 Alpha  occ. eigenvalues --  -10.19996 -10.19857 -10.19849 -10.19735 -10.18579
 Alpha  occ. eigenvalues --   -0.86828  -0.86591  -0.79269  -0.77386  -0.75701
 Alpha  occ. eigenvalues --   -0.75649  -0.73385  -0.69410  -0.62145  -0.62084
 Alpha  occ. eigenvalues --   -0.61782  -0.59625  -0.54714  -0.52773  -0.48597
 Alpha  occ. eigenvalues --   -0.47304  -0.47018  -0.45994  -0.44632  -0.43442
 Alpha  occ. eigenvalues --   -0.43417  -0.43384  -0.42555  -0.40170  -0.38311
 Alpha  occ. eigenvalues --   -0.37205  -0.36552  -0.36041  -0.35656  -0.35154
 Alpha  occ. eigenvalues --   -0.31166  -0.27775  -0.26825  -0.26212  -0.26150
 Alpha  occ. eigenvalues --   -0.22443
 Alpha virt. eigenvalues --   -0.04593  -0.02141  -0.01951  -0.00805   0.00263
 Alpha virt. eigenvalues --    0.00839   0.02001   0.02129   0.02807   0.03587
 Alpha virt. eigenvalues --    0.04502   0.04716   0.04758   0.05049   0.05601
 Alpha virt. eigenvalues --    0.06206   0.06697   0.06938   0.07122   0.07707
 Alpha virt. eigenvalues --    0.08557   0.09049   0.09184   0.09376   0.09458
 Alpha virt. eigenvalues --    0.10264   0.10526   0.12117   0.12297   0.12543
 Alpha virt. eigenvalues --    0.12753   0.14192   0.14549   0.14793   0.14811
 Alpha virt. eigenvalues --    0.15295   0.15527   0.15784   0.15850   0.15975
 Alpha virt. eigenvalues --    0.17029   0.17121   0.17653   0.17827   0.19269
 Alpha virt. eigenvalues --    0.19577   0.19769   0.20014   0.21008   0.21306
 Alpha virt. eigenvalues --    0.21426   0.21781   0.21916   0.22353   0.22790
 Alpha virt. eigenvalues --    0.23527   0.23533   0.24173   0.24304   0.24976
 Alpha virt. eigenvalues --    0.25638   0.26408   0.26503   0.27018   0.27318
 Alpha virt. eigenvalues --    0.27763   0.28330   0.28375   0.28649   0.29078
 Alpha virt. eigenvalues --    0.29521   0.30809   0.32415   0.33228   0.33524
 Alpha virt. eigenvalues --    0.34126   0.34320   0.34778   0.35646   0.36720
 Alpha virt. eigenvalues --    0.36971   0.39821   0.39862   0.40756   0.43416
 Alpha virt. eigenvalues --    0.43871   0.48113   0.55840   0.58147   0.59580
 Alpha virt. eigenvalues --    0.59856   0.64511   0.65808   0.66444   0.66724
 Alpha virt. eigenvalues --    0.67135   0.68195   0.69916   0.70048   0.70687
 Alpha virt. eigenvalues --    0.71000   0.71052   0.71659   0.71871   0.73631
 Alpha virt. eigenvalues --    0.73647   0.73896   0.75171   0.75474   0.75508
 Alpha virt. eigenvalues --    0.76073   0.76779   0.77427   0.78555   0.78674
 Alpha virt. eigenvalues --    0.79598   0.80126   0.81296   0.82173   0.82871
 Alpha virt. eigenvalues --    0.84359   0.86068   0.86957   0.87715   0.90557
 Alpha virt. eigenvalues --    0.92507   0.94178   0.94735   0.96068   0.96740
 Alpha virt. eigenvalues --    0.96868   0.98240   0.98517   1.00725   1.02321
 Alpha virt. eigenvalues --    1.02379   1.03444   1.06177   1.08475   1.09860
 Alpha virt. eigenvalues --    1.11335   1.12694   1.13997   1.14529   1.16158
 Alpha virt. eigenvalues --    1.17265   1.17908   1.19992   1.21671   1.22487
 Alpha virt. eigenvalues --    1.24088   1.24435   1.25685   1.26428   1.28610
 Alpha virt. eigenvalues --    1.28882   1.32512   1.33828   1.35874   1.39117
 Alpha virt. eigenvalues --    1.42170   1.42661   1.44512   1.44905   1.45132
 Alpha virt. eigenvalues --    1.45622   1.46562   1.47602   1.48028   1.49648
 Alpha virt. eigenvalues --    1.49777   1.54189   1.55687   1.56693   1.60011
 Alpha virt. eigenvalues --    1.69598   1.78599   1.80880   1.83183   1.84281
 Alpha virt. eigenvalues --    1.84899   1.86540   1.88328   1.89975   1.91474
 Alpha virt. eigenvalues --    1.92211   1.92764   1.92853   1.96559   1.98935
 Alpha virt. eigenvalues --    2.00383   2.00800   2.07864   2.08054   2.09896
 Alpha virt. eigenvalues --    2.10238   2.11630   2.12603   2.13856   2.14165
 Alpha virt. eigenvalues --    2.16582   2.16889   2.17710   2.20205   2.20713
 Alpha virt. eigenvalues --    2.27012   2.28161   2.29310   2.29562   2.29590
 Alpha virt. eigenvalues --    2.32766   2.37293   2.39141   2.40226   2.48600
 Alpha virt. eigenvalues --    2.49458   2.51086   2.58869   2.60881   2.61892
 Alpha virt. eigenvalues --    2.63119   2.63993   2.66010   2.66657   2.73525
 Alpha virt. eigenvalues --    2.73757   2.74874   2.76839   2.79782   2.80417
 Alpha virt. eigenvalues --    2.81031   2.89834   2.90117   2.96659   3.04563
 Alpha virt. eigenvalues --    3.17212   3.30277   3.39480   3.54694   4.18465
 Alpha virt. eigenvalues --    4.21514   4.23636   4.23764   4.25002   4.25327
 Alpha virt. eigenvalues --    4.31156   4.34644   4.39568   4.41065   4.43221
 Alpha virt. eigenvalues --    4.54723   4.62911   4.74765   4.89020
          Condensed to atoms (all electrons):
               1          2          3          4          5          6
     1  C    8.087814  -5.538224   0.827137   3.506254  -1.373961   0.580695
     2  C   -5.538224  20.447612  -1.828380 -10.576870   3.472195  -0.364111
     3  C    0.827137  -1.828380   8.537342  -1.917470   0.844310   0.221666
     4  C    3.506254 -10.576870  -1.917470  20.352441  -5.432980  -0.369780
     5  C   -1.373961   3.472195   0.844310  -5.432980   8.009175   0.583340
     6  C    0.580695  -0.364111   0.221666  -0.369780   0.583340   5.417038
     7  H    0.305693  -0.031603   0.007886   0.001547   0.003866   0.010661
     8  H   -0.070937   0.324459  -0.016996   0.020787  -0.004543   0.005634
     9  H   -0.004305   0.020992  -0.015965   0.324105  -0.071939   0.005206
    10  H    0.003879   0.001397   0.007914  -0.030789   0.305237   0.010400
    11  H   -0.009208   0.010100  -0.000422   0.009591  -0.009078   0.290653
    12  C   -0.204683   0.531659  -0.975573   0.569743  -0.213556  -0.178582
    13  C   -0.051772  -0.033055   0.019536  -0.036752  -0.048959   0.016727
    14  C    0.072806  -0.185636   0.401316  -0.169581   0.065854  -0.013140
    15  C    0.050894  -0.341677  -0.171229   0.428295  -0.071085   0.000349
    16  C   -0.073242   0.428545  -0.162421  -0.341010   0.049952   0.000572
    17  C   -0.014995   0.047464   0.046115  -0.062712   0.021280   0.000547
    18  H    0.000012   0.000058   0.000926   0.001553   0.000037   0.000021
    19  C    0.020919  -0.060415   0.041892   0.046887  -0.014447   0.000555
    20  H    0.000051   0.001650   0.000920   0.000002   0.000007   0.000021
    21  C    0.001528   0.000588  -0.012796   0.000984   0.001372  -0.000349
    22  H   -0.000001  -0.000022  -0.000056   0.000059   0.000001   0.000000
    23  H    0.000001   0.000059  -0.000057  -0.000022  -0.000001   0.000000
    24  C    0.000104  -0.000237   0.001457  -0.000235   0.000096  -0.000023
    25  H    0.000000   0.000000   0.000000   0.000000   0.000000   0.000000
    26  H    0.000000   0.000000   0.000001   0.000000   0.000000   0.000000
    27  H    0.000000   0.000000   0.000001   0.000000   0.000000   0.000000
               7          8          9         10         11         12
     1  C    0.305693  -0.070937  -0.004305   0.003879  -0.009208  -0.204683
     2  C   -0.031603   0.324459   0.020992   0.001397   0.010100   0.531659
     3  C    0.007886  -0.016996  -0.015965   0.007914  -0.000422  -0.975573
     4  C    0.001547   0.020787   0.324105  -0.030789   0.009591   0.569743
     5  C    0.003866  -0.004543  -0.071939   0.305237  -0.009078  -0.213556
     6  C    0.010661   0.005634   0.005206   0.010400   0.290653  -0.178582
     7  H    0.535206  -0.004818   0.000017  -0.000171  -0.005024  -0.004472
     8  H   -0.004818   0.529872  -0.000153   0.000017  -0.000154   0.022549
     9  H    0.000017  -0.000153   0.529714  -0.004797  -0.000153   0.023301
    10  H   -0.000171   0.000017  -0.004797   0.535158  -0.005030  -0.004407
    11  H   -0.005024  -0.000154  -0.000153  -0.005030   0.540058  -0.000195
    12  C   -0.004472   0.022549   0.023301  -0.004407  -0.000195   6.344196
    13  C   -0.000376   0.000776   0.000468  -0.000372   0.000131   0.679967
    14  C   -0.000106   0.000696   0.000674  -0.000105  -0.000015  -0.602427
    15  C   -0.000028   0.000260   0.000897   0.000072  -0.000001   0.096655
    16  C    0.000072   0.000819   0.000212  -0.000027  -0.000001   0.102337
    17  C   -0.000001  -0.000020   0.000014   0.000003   0.000000  -0.050311
    18  H    0.000000   0.000000   0.000000   0.000000   0.000000  -0.002731
    19  C    0.000003   0.000006  -0.000023  -0.000001   0.000000  -0.048014
    20  H    0.000000   0.000000   0.000000   0.000000   0.000000  -0.003034
    21  C    0.000000  -0.000002  -0.000002   0.000000   0.000000  -0.060698
    22  H    0.000000   0.000000   0.000000   0.000000   0.000000   0.000931
    23  H    0.000000   0.000000   0.000000   0.000000   0.000000   0.000925
    24  C    0.000000  -0.000001  -0.000001   0.000000   0.000000  -0.016587
    25  H    0.000000   0.000000   0.000000   0.000000   0.000000  -0.000019
    26  H    0.000000   0.000000   0.000000   0.000000   0.000000   0.000018
    27  H    0.000000   0.000000   0.000000   0.000000   0.000000   0.000019
              13         14         15         16         17         18
     1  C   -0.051772   0.072806   0.050894  -0.073242  -0.014995   0.000012
     2  C   -0.033055  -0.185636  -0.341677   0.428545   0.047464   0.000058
     3  C    0.019536   0.401316  -0.171229  -0.162421   0.046115   0.000926
     4  C   -0.036752  -0.169581   0.428295  -0.341010  -0.062712   0.001553
     5  C   -0.048959   0.065854  -0.071085   0.049952   0.021280   0.000037
     6  C    0.016727  -0.013140   0.000349   0.000572   0.000547   0.000021
     7  H   -0.000376  -0.000106  -0.000028   0.000072  -0.000001   0.000000
     8  H    0.000776   0.000696   0.000260   0.000819  -0.000020   0.000000
     9  H    0.000468   0.000674   0.000897   0.000212   0.000014   0.000000
    10  H   -0.000372  -0.000105   0.000072  -0.000027   0.000003   0.000000
    11  H    0.000131  -0.000015  -0.000001  -0.000001   0.000000   0.000000
    12  C    0.679967  -0.602427   0.096655   0.102337  -0.050311  -0.002731
    13  C    5.471068   0.325786  -0.205113  -0.182929   0.073452   0.025774
    14  C    0.325786   6.318084  -0.327063  -0.343526   0.432175  -0.021518
    15  C   -0.205113  -0.327063  10.130848  -2.867656  -2.074345   0.368597
    16  C   -0.182929  -0.343526  -2.867656  10.051039   0.815140   0.022941
    17  C    0.073452   0.432175  -2.074345   0.815140   8.096230  -0.110524
    18  H    0.025774  -0.021518   0.368597   0.022941  -0.110524   0.528476
    19  C    0.065106   0.424444   0.804275  -1.999687  -0.996762  -0.008270
    20  H    0.026564  -0.020200   0.023228   0.367531  -0.008110  -0.000161
    21  C   -0.126655  -0.198443   0.284055   0.266188  -0.026274   0.005382
    22  H   -0.003682   0.029358  -0.085597  -0.003357   0.297504  -0.004335
    23  H   -0.003596   0.029394  -0.003372  -0.085257   0.042641   0.000019
    24  C    0.023736  -0.205470   0.040893   0.034176  -0.085514   0.002223
    25  H    0.000114  -0.000485   0.000553   0.000465  -0.011896   0.000002
    26  H    0.000324  -0.001376   0.004201  -0.005401  -0.012731  -0.000004
    27  H    0.000334  -0.001129  -0.005777   0.003563   0.025393   0.000002
              19         20         21         22         23         24
     1  C    0.020919   0.000051   0.001528  -0.000001   0.000001   0.000104
     2  C   -0.060415   0.001650   0.000588  -0.000022   0.000059  -0.000237
     3  C    0.041892   0.000920  -0.012796  -0.000056  -0.000057   0.001457
     4  C    0.046887   0.000002   0.000984   0.000059  -0.000022  -0.000235
     5  C   -0.014447   0.000007   0.001372   0.000001  -0.000001   0.000096
     6  C    0.000555   0.000021  -0.000349   0.000000   0.000000  -0.000023
     7  H    0.000003   0.000000   0.000000   0.000000   0.000000   0.000000
     8  H    0.000006   0.000000  -0.000002   0.000000   0.000000  -0.000001
     9  H   -0.000023   0.000000  -0.000002   0.000000   0.000000  -0.000001
    10  H   -0.000001   0.000000   0.000000   0.000000   0.000000   0.000000
    11  H    0.000000   0.000000   0.000000   0.000000   0.000000   0.000000
    12  C   -0.048014  -0.003034  -0.060698   0.000931   0.000925  -0.016587
    13  C    0.065106   0.026564  -0.126655  -0.003682  -0.003596   0.023736
    14  C    0.424444  -0.020200  -0.198443   0.029358   0.029394  -0.205470
    15  C    0.804275   0.023228   0.284055  -0.085597  -0.003372   0.040893
    16  C   -1.999687   0.367531   0.266188  -0.003357  -0.085257   0.034176
    17  C   -0.996762  -0.008110  -0.026274   0.297504   0.042641  -0.085514
    18  H   -0.008270  -0.000161   0.005382  -0.004335   0.000019   0.002223
    19  C    8.031813  -0.111249  -0.018638   0.042554   0.297489  -0.081710
    20  H   -0.111249   0.528318   0.004988   0.000019  -0.004315   0.002239
    21  C   -0.018638   0.004988   6.404269   0.023787   0.023279  -0.703578
    22  H    0.042554   0.000019   0.023787   0.543218  -0.000165  -0.021374
    23  H    0.297489  -0.004315   0.023279  -0.000165   0.543097  -0.021292
    24  C   -0.081710   0.002239  -0.703578  -0.021374  -0.021292   6.402421
    25  H   -0.012050   0.000002  -0.048223   0.000361   0.000365   0.406367
    26  H    0.024775   0.000002  -0.133185   0.002918   0.000087   0.465325
    27  H   -0.012220  -0.000004  -0.132916   0.000088   0.002907   0.464643
              25         26         27
     1  C    0.000000   0.000000   0.000000
     2  C    0.000000   0.000000   0.000000
     3  C    0.000000   0.000001   0.000001
     4  C    0.000000   0.000000   0.000000
     5  C    0.000000   0.000000   0.000000
     6  C    0.000000   0.000000   0.000000
     7  H    0.000000   0.000000   0.000000
     8  H    0.000000   0.000000   0.000000
     9  H    0.000000   0.000000   0.000000
    10  H    0.000000   0.000000   0.000000
    11  H    0.000000   0.000000   0.000000
    12  C   -0.000019   0.000018   0.000019
    13  C    0.000114   0.000324   0.000334
    14  C   -0.000485  -0.001376  -0.001129
    15  C    0.000553   0.004201  -0.005777
    16  C    0.000465  -0.005401   0.003563
    17  C   -0.011896  -0.012731   0.025393
    18  H    0.000002  -0.000004   0.000002
    19  C   -0.012050   0.024775  -0.012220
    20  H    0.000002   0.000002  -0.000004
    21  C   -0.048223  -0.133185  -0.132916
    22  H    0.000361   0.002918   0.000088
    23  H    0.000365   0.000087   0.002907
    24  C    0.406367   0.465325   0.464643
    25  H    0.489886  -0.028293  -0.028324
    26  H   -0.028293   0.499299  -0.026197
    27  H   -0.028324  -0.026197   0.499338
 Mulliken charges:
               1
     1  C   -0.116459
     2  C   -0.326549
     3  C    0.142945
     4  C   -0.324048
     5  C   -0.116174
     6  C   -0.218100
     7  H    0.181647
     8  H    0.191750
     9  H    0.191739
    10  H    0.181625
    11  H    0.178748
    12  C   -0.007012
    13  C   -0.036604
    14  C   -0.010368
    15  C   -0.081127
    16  C   -0.079038
    17  C   -0.443762
    18  H    0.191521
    19  C   -0.437233
    20  H    0.191531
    21  C    0.445337
    22  H    0.177790
    23  H    0.177814
    24  C   -0.707659
    25  H    0.231176
    26  H    0.210235
    27  H    0.210278
 Sum of Mulliken charges =   0.00000
 Mulliken charges with hydrogens summed into heavy atoms:
               1
     1  C    0.065187
     2  C   -0.134800
     3  C    0.142945
     4  C   -0.132309
     5  C    0.065450
     6  C   -0.039352
    12  C   -0.007012
    13  C   -0.036604
    14  C   -0.010368
    15  C    0.110393
    16  C    0.112492
    17  C   -0.265972
    19  C   -0.259419
    21  C    0.445337
    24  C   -0.055970
 Electronic spatial extent (au):  <R**2>=           5903.1330
 Charge=              0.0000 electrons
 Dipole moment (field-independent basis, Debye):
    X=              0.6367    Y=             -0.0001    Z=              0.0343  Tot=              0.6376
 Quadrupole moment (field-independent basis, Debye-Ang):
   XX=            -67.2098   YY=            -78.7553   ZZ=            -95.7222
   XY=              0.0043   XZ=              0.1728   YZ=             -0.0042
 Traceless Quadrupole moment (field-independent basis, Debye-Ang):
   XX=             13.3526   YY=              1.8071   ZZ=            -15.1597
   XY=              0.0043   XZ=              0.1728   YZ=             -0.0042
 Octapole moment (field-independent basis, Debye-Ang**2):
  XXX=             -3.2058  YYY=              0.0064  ZZZ=              0.6577  XYY=             -2.5177
  XXY=              0.0084  XXZ=              1.0429  XZZ=              9.5963  YZZ=             -0.0076
  YYZ=             -0.5414  XYZ=              0.1035
 Hexadecapole moment (field-independent basis, Debye-Ang**3):
 XXXX=          -6817.7319 YYYY=           -574.4535 ZZZZ=           -125.7132 XXXY=              0.1039
 XXXZ=              5.2202 YYYX=              0.0641 YYYZ=             -0.0166 ZZZX=              4.0921
 ZZZY=             -0.0090 XXYY=          -1244.4234 XXZZ=          -1400.5968 YYZZ=           -139.0044
 XXYZ=             -0.0820 YYXZ=             -3.6261 ZZXY=             -0.0610
 N-N= 7.735623299867D+02 E-N=-2.885575287089D+03  KE= 5.729368400184D+02
 Calling FoFJK, ICntrl=      2127 FMM=F ISym2X=0 I1Cent= 0 IOpClX= 0 NMat=1 NMatS=1 NMatT=0.
 ***** Axes restored to original set *****
 -------------------------------------------------------------------
 Center     Atomic                   Forces (Hartrees/Bohr)
 Number     Number              X              Y              Z
 -------------------------------------------------------------------
      1        6           0.015845515   -0.002249127    0.006776837
      2        6          -0.001988022    0.008966271    0.008520116
      3        6           0.033661216   -0.037425115   -0.019729867
      4        6          -0.010868536    0.005503896   -0.000575454
      5        6          -0.004084099   -0.010602803   -0.013507873
      6        6           0.008658823   -0.009614640   -0.005063404
      7        1          -0.010629038    0.000864398   -0.005331768
      8        1          -0.002509560   -0.007288385   -0.009047416
      9        1           0.010312284   -0.002004267    0.004026848
     10        1           0.003973966    0.006637328    0.009280739
     11        1          -0.008026399    0.008826108    0.004605913
     12        6          -0.042289464    0.047256029    0.024627919
     13        6           0.044461364   -0.049876198   -0.025741782
     14        6          -0.035969441    0.040035306    0.020969385
     15        6           0.002021263   -0.009110494   -0.009194652
     16        6           0.011393681   -0.005155116    0.000041160
     17        6          -0.020268330    0.006427199   -0.005642038
     18        1           0.002464863    0.007386523    0.009278659
     19        6           0.001612001    0.015120750    0.016784658
     20        1          -0.010391598    0.002099244   -0.003907409
     21        6           0.011098775   -0.013810549   -0.006022538
     22        1           0.010718461   -0.001357560    0.005333338
     23        1          -0.003888680   -0.007127375   -0.009230445
     24        6          -0.023332072    0.023619609    0.014144511
     25        1           0.012027457    0.004860617   -0.013958003
     26        1           0.012082069   -0.007437108    0.010353717
     27        1          -0.006086502   -0.014544542   -0.007791151
 -------------------------------------------------------------------
 Cartesian Forces:  Max     0.049876198 RMS     0.016620451

 GradGradGradGradGradGradGradGradGradGradGradGradGradGradGradGradGradGrad
 Berny optimization.
 FormGI is forming the generalized inverse of G from B-inverse, IUseBI=4.
 Internal  Forces:  Max     0.058844542 RMS     0.008383168
 Search for a local minimum.
 Step number   1 out of a maximum of  142
 All quantities printed in internal units (Hartrees-Bohrs-Radians)
 Mixed Optimization -- RFO/linear search
 Second derivative matrix not updated -- first step.
 ITU=  0
     Eigenvalues ---    0.00230   0.00230   0.00230   0.00241   0.01331
     Eigenvalues ---    0.01474   0.01611   0.02062   0.02063   0.02064
     Eigenvalues ---    0.02064   0.02065   0.02065   0.02066   0.02066
     Eigenvalues ---    0.02066   0.02066   0.02067   0.02068   0.02070
     Eigenvalues ---    0.02071   0.02072   0.03888   0.04629   0.07245
     Eigenvalues ---    0.07249   0.16000   0.16000   0.16000   0.16000
     Eigenvalues ---    0.16000   0.16000   0.16000   0.16000   0.16000
     Eigenvalues ---    0.16000   0.16000   0.16000   0.22000   0.22000
     Eigenvalues ---    0.22000   0.22981   0.23485   0.24000   0.25000
     Eigenvalues ---    0.25000   0.25000   0.28395   0.28544   0.29241
     Eigenvalues ---    0.37196   0.37197   0.37206   0.37220   0.37229
     Eigenvalues ---    0.37232   0.37240   0.37248   0.37263   0.37313
     Eigenvalues ---    0.37326   0.37338   0.41219   0.41248   0.41392
     Eigenvalues ---    0.41624   0.45293   0.45296   0.45304   0.45334
     Eigenvalues ---    0.45335   0.45363   0.45407   0.45407   1.00909
 RFO step:  Lambda=-2.77211570D-02 EMin= 2.30000000D-03
 Linear search not attempted -- first point.
 Iteration  1 RMS(Cart)=  0.07740659 RMS(Int)=  0.00013285
 Iteration  2 RMS(Cart)=  0.00011196 RMS(Int)=  0.00004314
 Iteration  3 RMS(Cart)=  0.00000006 RMS(Int)=  0.00004314
 Variable       Old X    -DE/DX   Delta X   Delta X   Delta X     New X
                                 (Linear)    (Quad)   (Total)
    R1        2.64759  -0.00429   0.00000  -0.00886  -0.00886   2.63872
    R2        2.64926  -0.00205   0.00000  -0.00452  -0.00451   2.64475
    R3        2.02215   0.01190   0.00000   0.02976   0.02976   2.05192
    R4        2.64963   0.00048   0.00000   0.00128   0.00128   2.65092
    R5        2.02077   0.01185   0.00000   0.02957   0.02957   2.05034
    R6        2.64922   0.00037   0.00000   0.00102   0.00102   2.65024
    R7        2.89503  -0.05527   0.00000  -0.17265  -0.17265   2.72238
    R8        2.64893  -0.00472   0.00000  -0.00984  -0.00984   2.63909
    R9        2.02237   0.01121   0.00000   0.02804   0.02804   2.05042
   R10        2.64872  -0.00195   0.00000  -0.00433  -0.00433   2.64439
   R11        2.02174   0.01206   0.00000   0.03014   0.03014   2.05188
   R12        2.02057   0.01279   0.00000   0.03189   0.03189   2.05246
   R13        2.28277   0.01276   0.00000   0.01231   0.01231   2.29508
   R14        2.91284  -0.05884   0.00000  -0.18881  -0.18881   2.72403
   R15        2.64914  -0.00075   0.00000  -0.00147  -0.00149   2.64765
   R16        2.64890  -0.00086   0.00000  -0.00175  -0.00177   2.64713
   R17        2.64866  -0.00441   0.00000  -0.00913  -0.00913   2.63952
   R18        2.02040   0.01207   0.00000   0.03010   0.03010   2.05049
   R19        2.64963  -0.00478   0.00000  -0.00998  -0.00998   2.63965
   R20        2.02250   0.01124   0.00000   0.02813   0.02813   2.05064
   R21        2.64770   0.00066   0.00000   0.00132   0.00134   2.64904
   R22        2.02252   0.01204   0.00000   0.03013   0.03013   2.05264
   R23        2.64828   0.00043   0.00000   0.00080   0.00082   2.64910
   R24        2.02186   0.01228   0.00000   0.03069   0.03069   2.05255
   R25        2.90964  -0.00881   0.00000  -0.02812  -0.02812   2.88151
   R26        2.02152   0.01879   0.00000   0.04693   0.04693   2.06846
   R27        2.02203   0.01722   0.00000   0.04304   0.04304   2.06507
   R28        2.02198   0.01723   0.00000   0.04308   0.04308   2.06507
    A1        2.09373   0.00116   0.00000   0.00429   0.00429   2.09802
    A2        2.09553  -0.00128   0.00000  -0.00590  -0.00590   2.08963
    A3        2.09393   0.00013   0.00000   0.00161   0.00161   2.09553
    A4        2.09521  -0.00155   0.00000  -0.00555  -0.00556   2.08965
    A5        2.09456   0.00168   0.00000   0.00759   0.00760   2.10216
    A6        2.09342  -0.00013   0.00000  -0.00204  -0.00204   2.09138
    A7        2.09384   0.00082   0.00000   0.00398   0.00397   2.09781
    A8        2.09215  -0.00001   0.00000  -0.00055  -0.00055   2.09161
    A9        2.09720  -0.00081   0.00000  -0.00343  -0.00343   2.09377
   A10        2.09445  -0.00137   0.00000  -0.00500  -0.00500   2.08945
   A11        2.09435  -0.00026   0.00000  -0.00252  -0.00252   2.09183
   A12        2.09438   0.00163   0.00000   0.00752   0.00752   2.10190
   A13        2.09410   0.00117   0.00000   0.00418   0.00418   2.09828
   A14        2.09525  -0.00131   0.00000  -0.00594  -0.00594   2.08931
   A15        2.09384   0.00014   0.00000   0.00176   0.00176   2.09560
   A16        2.09504  -0.00022   0.00000  -0.00189  -0.00188   2.09316
   A17        2.09401   0.00012   0.00000   0.00100   0.00100   2.09501
   A18        2.09414   0.00010   0.00000   0.00089   0.00088   2.09502
   A19        2.09252   0.00036   0.00000   0.00136   0.00138   2.09390
   A20        2.09685  -0.00034   0.00000  -0.00116  -0.00114   2.09571
   A21        2.09382  -0.00001   0.00000  -0.00020  -0.00024   2.09358
   A22        2.09457  -0.00105   0.00000  -0.00443  -0.00445   2.09012
   A23        2.09479  -0.00048   0.00000  -0.00314  -0.00313   2.09166
   A24        2.09383   0.00153   0.00000   0.00757   0.00758   2.10140
   A25        2.09442  -0.00096   0.00000  -0.00429  -0.00431   2.09011
   A26        2.09595  -0.00064   0.00000  -0.00383  -0.00382   2.09213
   A27        2.09282   0.00160   0.00000   0.00812   0.00813   2.10095
   A28        2.09473   0.00385   0.00000   0.01506   0.01508   2.10981
   A29        2.09453  -0.00225   0.00000  -0.00926  -0.00927   2.08526
   A30        2.09392  -0.00160   0.00000  -0.00580  -0.00581   2.08811
   A31        2.09438   0.00400   0.00000   0.01546   0.01548   2.10986
   A32        2.09526  -0.00241   0.00000  -0.00992  -0.00993   2.08533
   A33        2.09354  -0.00159   0.00000  -0.00554  -0.00555   2.08799
   A34        2.09444  -0.00582   0.00000  -0.02158  -0.02155   2.07289
   A35        2.09438   0.00292   0.00000   0.01084   0.01080   2.10518
   A36        2.09437   0.00290   0.00000   0.01074   0.01070   2.10507
   A37        1.90997   0.00288   0.00000   0.01435   0.01422   1.92419
   A38        1.91076   0.00363   0.00000   0.01984   0.01965   1.93041
   A39        1.91061   0.00368   0.00000   0.02008   0.01988   1.93049
   A40        1.91101  -0.00352   0.00000  -0.01976  -0.01989   1.89112
   A41        1.91106  -0.00353   0.00000  -0.01979  -0.01992   1.89115
   A42        1.91038  -0.00313   0.00000  -0.01470  -0.01495   1.89542
   A43        3.14158  -0.00003   0.00000  -0.00046  -0.00046   3.14112
   A44        3.14164  -0.00003   0.00000  -0.00090  -0.00090   3.14074
   A45        3.14159  -0.00003   0.00000  -0.00033  -0.00032   3.14128
   A46        3.14159   0.00011   0.00000   0.00326   0.00324   3.14483
    D1        0.00198  -0.00006   0.00000  -0.00116  -0.00116   0.00082
    D2       -3.14039  -0.00002   0.00000  -0.00048  -0.00048  -3.14088
    D3       -3.14008  -0.00004   0.00000  -0.00081  -0.00081  -3.14090
    D4        0.00073  -0.00001   0.00000  -0.00013  -0.00013   0.00059
    D5        0.00014   0.00000   0.00000   0.00003   0.00004   0.00018
    D6        3.14073   0.00003   0.00000   0.00062   0.00062   3.14135
    D7       -3.14097  -0.00002   0.00000  -0.00031  -0.00031  -3.14129
    D8       -0.00039   0.00001   0.00000   0.00027   0.00027  -0.00012
    D9       -0.00310   0.00008   0.00000   0.00170   0.00170  -0.00140
   D10        3.13940   0.00004   0.00000   0.00088   0.00088   3.14028
   D11        3.13927   0.00005   0.00000   0.00102   0.00103   3.14030
   D12       -0.00141   0.00001   0.00000   0.00019   0.00020  -0.00121
   D13        0.00209  -0.00005   0.00000  -0.00113  -0.00113   0.00096
   D14       -3.13821  -0.00008   0.00000  -0.00162  -0.00162  -3.13983
   D15       -3.14042  -0.00001   0.00000  -0.00030  -0.00030  -3.14071
   D16        0.00247  -0.00004   0.00000  -0.00079  -0.00079   0.00168
   D17       -3.14100  -0.00001   0.00000  -0.00059  -0.00061   3.14158
   D18        0.00095  -0.00001   0.00000   0.00007   0.00009   0.00104
   D19        0.00151   0.00000   0.00000  -0.00018  -0.00019   0.00131
   D20       -3.13973   0.00001   0.00000   0.00049   0.00051  -3.13923
   D21        0.00003   0.00000   0.00000   0.00002   0.00001   0.00005
   D22       -3.14112  -0.00001   0.00000  -0.00015  -0.00015  -3.14127
   D23        3.14033   0.00002   0.00000   0.00050   0.00050   3.14083
   D24       -0.00083   0.00002   0.00000   0.00034   0.00034  -0.00048
   D25       -0.00115   0.00002   0.00000   0.00053   0.00053  -0.00062
   D26        3.14145   0.00000   0.00000  -0.00005  -0.00005   3.14140
   D27        3.14000   0.00003   0.00000   0.00069   0.00069   3.14070
   D28       -0.00058   0.00000   0.00000   0.00011   0.00011  -0.00047
   D29       -3.13857  -0.00015   0.00000  -0.00310  -0.00311   3.14150
   D30        0.00431  -0.00007   0.00000  -0.00163  -0.00164   0.00267
   D31        0.00267  -0.00008   0.00000  -0.00177  -0.00176   0.00091
   D32       -3.13763   0.00000   0.00000  -0.00031  -0.00029  -3.13793
   D33        3.13545   0.00023   0.00000   0.00482   0.00482   3.14027
   D34       -0.00561   0.00008   0.00000   0.00183   0.00184  -0.00377
   D35       -0.00579   0.00017   0.00000   0.00349   0.00347  -0.00233
   D36        3.13633   0.00002   0.00000   0.00051   0.00049   3.13682
   D37        0.00128   0.00003   0.00000   0.00020   0.00021   0.00149
   D38       -3.14077   0.00003   0.00000   0.00039   0.00041  -3.14037
   D39        3.14158  -0.00005   0.00000  -0.00128  -0.00127   3.14031
   D40       -0.00047  -0.00005   0.00000  -0.00108  -0.00108  -0.00155
   D41        0.00497  -0.00019   0.00000  -0.00357  -0.00359   0.00138
   D42       -3.13789  -0.00013   0.00000  -0.00236  -0.00238  -3.14027
   D43       -3.13716  -0.00004   0.00000  -0.00059  -0.00060  -3.13776
   D44        0.00317   0.00002   0.00000   0.00061   0.00061   0.00378
   D45       -0.00210  -0.00005   0.00000  -0.00028  -0.00032  -0.00242
   D46        3.13989  -0.00048   0.00000  -0.01059  -0.01055   3.12934
   D47        3.13995  -0.00005   0.00000  -0.00048  -0.00051   3.13944
   D48       -0.00125  -0.00048   0.00000  -0.01079  -0.01074  -0.01199
   D49       -0.00102   0.00013   0.00000   0.00195   0.00200   0.00097
   D50        3.14017   0.00055   0.00000   0.01226   0.01223  -3.13079
   D51       -3.14134   0.00006   0.00000   0.00075   0.00078  -3.14056
   D52       -0.00015   0.00049   0.00000   0.01106   0.01101   0.01086
   D53       -1.57162   0.00022   0.00000   0.00519   0.00525  -1.56637
   D54        0.52291  -0.00011   0.00000   0.00192   0.00193   0.52484
   D55        2.61706   0.00053   0.00000   0.00836   0.00846   2.62552
   D56        1.57037  -0.00021   0.00000  -0.00511  -0.00516   1.56520
   D57       -2.61828  -0.00054   0.00000  -0.00838  -0.00849  -2.62677
   D58       -0.52414   0.00011   0.00000  -0.00194  -0.00195  -0.52609
         Item               Value     Threshold  Converged?
 Maximum Force            0.058845     0.000450     NO 
 RMS     Force            0.008383     0.000300     NO 
 Maximum Displacement     0.155857     0.001800     NO 
 RMS     Displacement     0.077450     0.001200     NO 
 Predicted change in Energy=-1.504542D-02
 GradGradGradGradGradGradGradGradGradGradGradGradGradGradGradGradGradGrad

                          Input orientation:                          
 ---------------------------------------------------------------------
 Center     Atomic      Atomic             Coordinates (Angstroms)
 Number     Number       Type             X           Y           Z
 ---------------------------------------------------------------------
      1          6           0       -5.322401    0.992556   -0.453538
      2          6           0       -4.450825    0.024426   -0.956406
      3          6           0       -3.181910   -0.135833   -0.380185
      4          6           0       -2.788382    0.673436    0.695491
      5          6           0       -3.665876    1.639714    1.192140
      6          6           0       -4.932789    1.801181    0.620260
      7          1           0       -6.304835    1.116147   -0.899150
      8          1           0       -4.748649   -0.604095   -1.789154
      9          1           0       -1.804995    0.545837    1.135908
     10          1           0       -3.360944    2.266400    2.024764
     11          1           0       -5.612876    2.553500    1.009037
     12          6           0       -2.281388   -1.135009   -0.896032
     13          6           0       -1.522492   -1.977301   -1.331503
     14          6           0       -0.619506   -2.974178   -1.849928
     15          6           0        0.648390   -3.136199   -1.276171
     16          6           0       -1.008629   -3.782089   -2.926084
     17          6           0        1.519707   -4.103616   -1.782027
     18          1           0        0.946672   -2.511735   -0.440432
     19          6           0       -0.127678   -4.744911   -3.424157
     20          1           0       -1.992619   -3.658468   -3.366573
     21          6           0        1.144208   -4.916856   -2.860321
     22          1           0        2.501161   -4.226143   -1.333037
     23          1           0       -0.433520   -5.368096   -4.259531
     24          6           0        2.106186   -5.960259   -3.418012
     25          1           0        2.723187   -5.522266   -4.208945
     26          1           0        2.767726   -6.332521   -2.631901
     27          1           0        1.555512   -6.804996   -3.839150
 ---------------------------------------------------------------------
                    Distance matrix (angstroms):
                    1          2          3          4          5
     1  C    0.000000
     2  C    1.396351   0.000000
     3  C    2.420815   1.402804   0.000000
     4  C    2.800599   2.431808   1.402447   0.000000
     5  C    2.423045   2.800277   2.420536   1.396549   0.000000
     6  C    1.399541   2.423844   2.796156   2.424035   1.399352
     7  H    1.085827   2.152320   3.404326   3.886426   3.407597
     8  H    2.159249   1.084992   2.158503   3.412945   3.885253
     9  H    3.885621   3.413219   2.158496   1.085035   2.159308
    10  H    3.407635   3.886086   3.403903   2.152285   1.085809
    11  H    2.158715   3.407278   3.882273   3.407450   2.158550
    12  C    3.737659   2.460568   1.440622   2.461801   3.738497
    13  C    4.902059   3.566896   2.655124   3.568976   4.903638
    14  C    6.308891   4.946617   4.096617   4.948563   6.310511
    15  C    7.305730   6.007811   4.947342   5.496560   6.893098
    16  C    6.893428   5.497082   4.949742   6.011242   7.308671
    17  C    8.634252   7.305453   6.309808   6.893327   8.289860
    18  H    7.182026   5.985926   4.763794   5.038478   6.416807
    19  C    8.290250   6.893908   6.311712   7.308169   8.636694
    20  H    6.419131   5.041368   4.768846   5.991577   7.186960
    21  C    9.084646   7.703607   6.908297   7.704573   9.085591
    22  H    9.445447   8.157163   7.066531   7.489998   8.877902
    23  H    8.879450   7.491908   7.069622   8.160743   9.448717
    24  C   10.597814   9.212511   8.433048   9.213231  10.598575
    25  H   11.012605   9.633860   8.862462   9.634190  11.012983
    26  H   11.128889   9.763480   8.880728   9.540718  10.934855
    27  H   10.934801   9.540823   8.881742   9.765210  11.130584
                    6          7          8          9         10
     6  C    0.000000
     7  H    2.158793   0.000000
     8  H    3.409477   2.484562   0.000000
     9  H    3.409528   4.971446   4.306209   0.000000
    10  H    2.158647   4.305676   4.971060   2.484227   0.000000
    11  H    1.086117   2.487161   4.306642   4.306596   2.487031
    12  C    4.236777   4.610405   2.677110   2.679734   4.611516
    13  C    5.451278   5.712018   3.535991   3.540360   5.714318
    14  C    6.892771   7.068076   4.761388   4.765617   7.070529
    15  C    7.689195   8.159162   5.983539   5.039306   7.493932
    16  C    7.690806   7.493395   5.037858   5.988733   8.162628
    17  C    9.070409   9.447161   7.179067   6.417585   8.881978
    18  H    7.368471   8.121348   6.155877   4.405140   6.889363
    19  C    9.071809   8.881718   6.416616   7.183286   9.450039
    20  H    7.372056   6.890597   4.406036   6.163093   8.126678
    21  C    9.704451   9.784250   7.380588   7.382998   9.785685
    22  H    9.767682  10.308922   8.117082   6.885525   9.369750
    23  H    9.770073   9.370694   6.886132   8.121965  10.312503
    24  C   11.229192  11.276766   8.850449   8.852390  11.277910
    25  H   11.643370  11.684538   9.266722   9.267888  11.684994
    26  H   11.663258  11.865767   9.487939   9.078434  11.540648
    27  H   11.664076  11.540067   9.077230   9.490993  11.867909
                   11         12         13         14         15
    11  H    0.000000
    12  C    5.322894   0.000000
    13  C    6.537395   1.214501   0.000000
    14  C    7.978888   2.655996   1.441497   0.000000
    15  C    8.763464   3.568314   2.461470   1.401073   0.000000
    16  C    8.764928   3.570442   2.462520   1.400802   2.425922
    17  C   10.147954   4.903666   3.738872   2.420015   1.396775
    18  H    8.413396   3.538830   2.678880   2.157184   1.085075
    19  C   10.149256   4.905229   3.739568   2.419832   2.793578
    20  H    8.416696   3.543276   2.681203   2.157291   3.408441
    21  C   10.790567   5.467679   4.253182   2.811686   2.434360
    22  H   10.829888   5.711292   4.609455   3.401933   2.150342
    23  H   10.832139   5.713735   4.610499   3.401708   3.879733
    24  C   12.315307   6.992441   5.777956   4.336469   3.832488
    25  H   12.725379   7.434325   6.234760   4.819886   4.312686
    26  H   12.745677   7.451236   6.250195   4.833558   4.067685
    27  H   12.746456   7.452013   6.250523   4.833515   4.566377
                   16         17         18         19         20
    16  C    0.000000
    17  C    2.793694   0.000000
    18  H    3.408147   2.159244   0.000000
    19  C    1.396845   2.412826   3.878649   0.000000
    20  H    1.085150   3.878837   4.303107   2.159092   0.000000
    21  C    2.434487   1.401812   3.417527   1.401846   3.417531
    22  H    3.879897   1.086211   2.480398   3.398926   4.965036
    23  H    2.150407   3.398828   4.964800   1.086162   2.480120
    24  C    3.832557   2.543133   4.701359   2.543081   4.701180
    25  H    4.312818   3.057918   5.140136   3.057385   5.140249
    26  H    4.566410   2.692183   4.766254   3.395812   5.509191
    27  H    4.067736   3.395657   5.509452   2.692452   4.765837
                   21         22         23         24         25
    21  C    0.000000
    22  H    2.156618   0.000000
    23  H    2.156532   4.298927   0.000000
    24  C    1.524831   2.740489   2.740240   0.000000
    25  H    2.162980   3.162289   3.160874   1.094579   0.000000
    26  H    2.166123   2.488961   3.718503   1.092787   1.773574
    27  H    2.166183   3.718243   2.489507   1.092785   1.773587
                   26         27
    26  H    0.000000
    27  H    1.774865   0.000000
 Stoichiometry    C15H12
 Framework group  C1[X(C15H12)]
 Deg. of freedom    75
 Full point group                 C1      NOp   1
 Largest Abelian subgroup         C1      NOp   1
 Largest concise Abelian subgroup C1      NOp   1
                         Standard orientation:                         
 ---------------------------------------------------------------------
 Center     Atomic      Atomic             Coordinates (Angstroms)
 Number     Number       Type             X           Y           Z
 ---------------------------------------------------------------------
      1          6           0       -4.661252    1.211756    0.002069
      2          6           0       -3.264907    1.215333    0.000458
      3          6           0       -2.566159   -0.001059   -0.000360
      4          6           0       -3.265885   -1.216475    0.002128
      5          6           0       -4.662422   -1.211288    0.004257
      6          6           0       -5.362311    0.000464    0.003859
      7          1           0       -5.202094    2.153302    0.002046
      8          1           0       -2.717533    2.152129   -0.000261
      9          1           0       -2.719806   -2.154078    0.003141
     10          1           0       -5.204030   -2.152371    0.006487
     11          1           0       -6.448427    0.000952    0.005338
     12          6           0       -1.125541   -0.000187   -0.003663
     13          6           0        0.088958    0.001128   -0.006138
     14          6           0        1.530454    0.001455   -0.005325
     15          6           0        2.230668   -1.212096   -0.006131
     16          6           0        2.232172    1.213825   -0.004944
     17          6           0        3.627431   -1.206501   -0.005450
     18          1           0        1.685313   -2.150159   -0.009877
     19          6           0        3.628995    1.206323   -0.002548
     20          1           0        1.688495    2.152947   -0.008807
     21          6           0        4.342138   -0.000573   -0.002174
     22          1           0        4.165710   -2.149957   -0.007240
     23          1           0        4.168599    2.148964   -0.001010
     24          6           0        5.866876   -0.001507    0.014628
     25          1           0        6.234355   -0.002366    1.045677
     26          1           0        6.256486   -0.888899   -0.490270
     27          1           0        6.257647    0.885965   -0.489229
 ---------------------------------------------------------------------
 Rotational constants (GHZ):      2.7851011      0.1950407      0.1824853
 Standard basis: 6-31+G(d) (6D, 7F)
 There are   309 symmetry adapted cartesian basis functions of A   symmetry.
 There are   309 symmetry adapted basis functions of A   symmetry.
   309 basis functions,   528 primitive gaussians,   309 cartesian basis functions
    51 alpha electrons       51 beta electrons
       nuclear repulsion energy       782.1568816608 Hartrees.
 NAtoms=   27 NActive=   27 NUniq=   27 SFac= 1.00D+00 NAtFMM=   60 NAOKFM=F Big=F
 Integral buffers will be    131072 words long.
 Raffenetti 2 integral format.
 Two-electron integral symmetry is turned on.
 Nuclear repulsion after empirical dispersion term =      782.1397346884 Hartrees.
 One-electron integrals computed using PRISM.
 NBasis=   309 RedAO= T EigKep=  2.22D-06  NBF=   309
 NBsUse=   305 1.00D-06 EigRej=  5.93D-07 NBFU=   305
 Initial guess from the checkpoint file:  "D:\ML\molecule_21.chk"
 B after Tr=     0.000000    0.000000    0.000000
         Rot=    1.000000    0.000011    0.000005   -0.000052 Ang=   0.01 deg.
 ExpMin= 4.38D-02 ExpMax= 3.05D+03 ExpMxC= 4.57D+02 IAcc=2 IRadAn=         4 AccDes= 0.00D+00
 Harris functional with IExCor=  402 and IRadAn=       4 diagonalized for initial guess.
 HarFok:  IExCor=  402 AccDes= 0.00D+00 IRadAn=         4 IDoV= 1 UseB2=F ITyADJ=14
 ICtDFT=  3500011 ScaDFX=  1.000000  1.000000  1.000000  1.000000
 FoFCou: FMM=F IPFlag=           0 FMFlag=      100000 FMFlg1=           0
         NFxFlg=           0 DoJE=T BraDBF=F KetDBF=T FulRan=T
         wScrn=  0.000000 ICntrl=     500 IOpCl=  0 I1Cent=   200000004 NGrid=           0
         NMat0=    1 NMatS0=      1 NMatT0=    0 NMatD0=    1 NMtDS0=    0 NMtDT0=    0
 Petite list used in FoFCou.
 Requested convergence on RMS density matrix=1.00D-08 within 128 cycles.
 Requested convergence on MAX density matrix=1.00D-06.
 Requested convergence on             energy=1.00D-06.
 No special actions if energy rises.
 SCF Done:  E(RB3LYP) =  -578.817658242     A.U. after   13 cycles
            NFock= 13  Conv=0.47D-08     -V/T= 2.0101
 Calling FoFJK, ICntrl=      2127 FMM=F ISym2X=0 I1Cent= 0 IOpClX= 0 NMat=1 NMatS=1 NMatT=0.
 ***** Axes restored to original set *****
 -------------------------------------------------------------------
 Center     Atomic                   Forces (Hartrees/Bohr)
 Number     Number              X              Y              Z
 -------------------------------------------------------------------
      1        6           0.001436732   -0.000804255   -0.000046500
      2        6          -0.006147349    0.004669559    0.001366151
      3        6           0.012289400   -0.013931195   -0.007341102
      4        6          -0.003274749    0.005893228    0.004207254
      5        6           0.000565789   -0.001255515   -0.001017095
      6        6           0.000005381   -0.000068611   -0.000073769
      7        1          -0.000757669    0.000136235   -0.000321432
      8        1           0.000406761   -0.000617967   -0.000352011
      9        1           0.000555059   -0.000576848   -0.000197684
     10        1           0.000182501    0.000507314    0.000654801
     11        1          -0.000363610    0.000394747    0.000210102
     12        6          -0.007719904    0.008751419    0.004524414
     13        6           0.008135512   -0.009122830   -0.004733547
     14        6          -0.013558567    0.015126456    0.008045316
     15        6           0.007329217   -0.005405007   -0.001765625
     16        6           0.003984582   -0.006693807   -0.005186480
     17        6          -0.003437059    0.002950704    0.000743520
     18        1          -0.000253247    0.000487711    0.000378212
     19        6          -0.001955676    0.003491682    0.002288892
     20        1          -0.000493212    0.000441162    0.000096871
     21        6           0.005441742   -0.006941237   -0.002819586
     22        1           0.000986120   -0.000386879    0.000513909
     23        1          -0.000315178   -0.000927023   -0.000723651
     24        6          -0.007454156    0.007460965    0.004579168
     25        1           0.001926609   -0.000624687   -0.001690753
     26        1           0.001921009   -0.001215266    0.000004246
     27        1           0.000563962   -0.001740056   -0.001343622
 -------------------------------------------------------------------
 Cartesian Forces:  Max     0.015126456 RMS     0.004705076

 GradGradGradGradGradGradGradGradGradGradGradGradGradGradGradGradGradGrad
 Berny optimization.
 Using GEDIIS/GDIIS optimizer.
 FormGI is forming the generalized inverse of G from B-inverse, IUseBI=4.
 Internal  Forces:  Max     0.008617385 RMS     0.001862628
 Search for a local minimum.
 Step number   2 out of a maximum of  142
 All quantities printed in internal units (Hartrees-Bohrs-Radians)
 Mixed Optimization -- RFO/linear search
 Update second derivatives using D2CorX and points    1    2
 DE= -1.66D-02 DEPred=-1.50D-02 R= 1.10D+00
 TightC=F SS=  1.41D+00  RLast= 2.92D-01 DXNew= 5.0454D-01 8.7707D-01
 Trust test= 1.10D+00 RLast= 2.92D-01 DXMaxT set to 5.05D-01
 ITU=  1  0
 Use linear search instead of GDIIS.
 DSYEVD-2 returned Info=        2963 IAlg= 4 N=    75 NDim=    75 NE2=     7136296 trying  DSYEV.
     Eigenvalues ---    0.00230   0.00230   0.00230   0.00241   0.01318
     Eigenvalues ---    0.01473   0.01617   0.02062   0.02063   0.02064
     Eigenvalues ---    0.02064   0.02065   0.02065   0.02066   0.02066
     Eigenvalues ---    0.02066   0.02066   0.02067   0.02068   0.02071
     Eigenvalues ---    0.02071   0.02072   0.03859   0.04629   0.07008
     Eigenvalues ---    0.07068   0.15735   0.16000   0.16000   0.16000
     Eigenvalues ---    0.16000   0.16000   0.16000   0.16000   0.16000
     Eigenvalues ---    0.16000   0.16000   0.16006   0.21978   0.22000
     Eigenvalues ---    0.22000   0.22127   0.23050   0.23725   0.24999
     Eigenvalues ---    0.24999   0.25000   0.27385   0.28772   0.29470
     Eigenvalues ---    0.37055   0.37200   0.37202   0.37217   0.37229
     Eigenvalues ---    0.37230   0.37238   0.37247   0.37261   0.37318
[...]
 0324,0.00001145,0.00000632,-0.00000282,0.00000719,0.00000467,0.0002641
 7,-0.00012487,0.00004038,-0.00194186,-0.00091309,0.00161420,-0.0174482
 9,0.00521985,-0.00808344,0.00077851,0.00029255,-0.00523174,0.03300146,
 -0.05233576,0.00216141,-0.00005635,-0.00086607,-0.00030697,-0.00089385
 ,0.00039553,-0.00052464,0.02030284,0.00194222,0.00982427,-0.03720289,0
 .04782408,0.00001547,0.00002270,-0.00001132,-0.00002388,-0.00001471,-0
 .00001676,-0.00002037,-0.00010721,0.00005899,-0.00005914,0.00002959,-0
 .00002757,0.00000863,0.00001264,0.00002673,-0.00000263,-0.00000098,0.0
 0000443,-0.00000876,0.00000256,0.00000192,0.00003906,-0.00003534,0.000
 03121,0.00000329,-0.00000524,0.00000070,-0.00000506,0.00000899,0.00000
 979,-0.00000260,0.00000632,0.00000572,0.00051126,-0.00034226,-0.000047
 91,0.00007241,0.00242415,-0.00108632,-0.02239392,0.00321538,-0.0057574
 2,-0.00133613,-0.00571956,-0.00076316,-0.10822727,0.00157355,-0.095259
 08,0.00053164,-0.00023877,-0.00056544,-0.00125220,0.00008727,-0.000229
 25,0.01161886,-0.00148127,0.00838864,0.11869554,0.00261508,0.09412140,
 -0.00004476,0.00011276,0.00007437,0.00023949,-0.00009676,0.00002717,-0
 .00042820,0.00038899,0.00029835,-0.00002434,-0.00012727,-0.00014918,-0
 .00004828,0.00004149,-0.00000157,0.00001697,-0.00006438,-0.00004746,0.
 00000495,-0.00000147,0.00000302,-0.00000970,0.00000097,-0.00000745,0.0
 0000492,0.00000635,0.00000592,-0.00000018,-0.00000471,-0.00000426,0.00
 000379,-0.00000160,-0.00000302,0.00163374,-0.00104328,-0.00045140,-0.0
 0258086,0.00155021,0.00084750,-0.03013728,-0.01685014,-0.03107912,0.05
 127056,-0.01201098,0.01420087,-0.03992165,0.05112036,0.02715141,-0.132
 60814,0.00607918,-0.03324585,-0.00138198,0.00521460,0.00028463,-0.2739
 6867,0.01032248,-0.10551588,0.00088507,0.00386337,-0.00007373,0.589221
 52,-0.00001352,-0.00005947,-0.00008489,-0.00020102,0.00005390,-0.00008
 996,0.00032103,-0.00049826,-0.00012929,0.00003875,0.00018116,0.0001728
 7,0.00012686,-0.00003685,0.00001989,-0.00000965,-0.00001161,-0.0000077
 0,0.00000816,-0.00000400,0.00000352,0.00000437,0.00000566,0.00000414,-
 0.00000522,0.00000146,-0.00000570,-0.00000077,-0.00000689,-0.00000522,
 0.00000503,-0.00000046,-0.00000495,-0.00104841,0.00169564,0.00070332,0
 .00156731,-0.00318596,-0.00077077,-0.01646842,-0.00439764,-0.00874764,
 0.01964310,-0.02834432,-0.02381264,0.02018245,0.01148568,0.01737719,-0
 .03827611,-0.16189794,-0.12218441,0.00439466,0.00135518,-0.00355713,0.
 05431080,-0.10089296,-0.00542579,0.00428628,0.00041376,-0.00468993,-0.
 11002139,0.42636783,0.00002468,-0.00003061,0.00000324,-0.00010593,0.00
 003135,-0.00000747,0.00031212,-0.00019492,-0.00024034,-0.00004905,0.00
 012733,0.00012108,0.00007363,-0.00008547,-0.00002372,-0.00007042,0.000
 05010,-0.00000327,-0.00000748,0.00000325,-0.00000151,0.00000644,-0.000
 00503,0.00000351,-0.00000027,-0.00000808,-0.00000390,0.00000156,0.0000
 0741,0.00000701,-0.00000530,0.00000069,0.00000567,-0.00044161,0.000694
 39,0.00095321,0.00084359,-0.00075384,-0.00169399,-0.03123094,-0.008355
 83,-0.03185889,0.04529536,-0.04159144,-0.01184873,-0.00424130,0.035886
 43,0.03951272,-0.07745447,-0.09683335,-0.21103102,-0.00042267,-0.00346
 691,0.00389861,-0.06115865,-0.03114987,-0.13068032,0.00079389,-0.00518
 639,0.00257118,0.11838079,0.20822228,0.45514070,0.00000759,-0.00000419
 ,0.00000776,-0.00002935,0.00004244,0.00003017,0.00014107,-0.00010307,-
 0.00001739,-0.00007979,0.00004626,0.00000499,0.00000202,0.00000576,0.0
 0000188,-0.00002908,0.00003161,0.00001700,-0.00001334,0.00000757,-0.00
 000196,0.00001633,-0.00000502,0.00000161,0.00000311,-0.00000915,-0.000
 00909,-0.00000363,0.00001511,0.00001227,-0.00000565,0.00000790,0.00000
 358,-0.00018384,0.00013046,0.00012722,-0.00062410,0.00007610,-0.000590
 11,0.00108445,0.00420303,0.00072888,-0.01437306,0.00041893,-0.00926680
 ,0.00044782,-0.00015225,0.00044839,-0.28115766,0.03197621,-0.10810109,
 0.00008106,-0.00090241,0.00154797,0.00211793,0.00012285,-0.00233161,-0
 .00021140,-0.00025996,0.00022533,-0.00550334,0.00247487,-0.00281668,0.
 29776153,-0.00000042,-0.00000010,0.00000492,0.00001015,-0.00003647,-0.
 00001383,-0.00011624,0.00004741,-0.00000534,0.00006396,-0.00003756,-0.
 00000823,-0.00000872,-0.00000169,-0.00000984,0.00001180,-0.00001290,-0
 .00000600,0.00000727,-0.00000346,-0.00000129,-0.00000905,0.00000557,-0
 .00000336,-0.00000075,0.00000751,0.00000340,0.00000491,-0.00000848,-0.
 00000737,0.00000286,-0.00000281,-0.00000237,0.00012665,-0.00028866,-0.
 00006529,0.00092753,0.00029150,0.00038936,0.00371524,0.00049799,-0.004
 90857,0.02085427,0.00129285,0.01010691,-0.00001736,-0.00089401,-0.0003
 3073,0.03211210,-0.05236996,0.00223002,-0.00133081,-0.00155053,0.00197
 777,0.00054042,0.00050347,-0.00557200,-0.00026280,-0.00039896,0.000541
 04,-0.01662181,0.00527771,-0.00785195,-0.03732549,0.04849293,0.0000083
 3,0.00000392,0.00000331,0.00000054,0.00000402,-0.00001242,-0.00002317,
 0.00000033,-0.00003210,0.00001469,-0.00001433,0.00000070,-0.00001034,-
 0.00000269,-0.00000436,-0.00000528,0.00000663,0.00000321,-0.00000184,-
 0.00000114,-0.00000049,-0.00000241,-0.00000203,0.00000067,-0.00000032,
 -0.00000171,0.00000146,0.00000189,-0.00000164,0.00000091,-0.00000163,0
 .00000094,0.00000106,0.00010915,-0.00004666,-0.00014405,0.00032985,-0.
 00014975,0.00051335,0.00022959,-0.00461771,0.00266012,0.01166610,-0.00
 150373,0.00798306,0.00056243,-0.00034226,-0.00066338,-0.10807637,0.001
 76175,-0.09651591,0.00107003,0.00223386,-0.00126246,-0.00153322,-0.005
 83638,-0.00073451,0.00020092,0.00053275,-0.00037949,-0.02298023,0.0036
 9327,-0.00572095,0.11845683,0.00249620,0.09584105,-0.00000990,-0.00000
 355,-0.00001218,-0.00001512,0.00003845,0.00002761,-0.00001694,-0.00005
 905,-0.00005831,-0.00001891,0.00000462,0.00000273,0.00000410,0.0000019
 7,0.00000822,-0.00000019,0.00000032,0.00000085,-0.00000438,0.00000515,
 0.00000163,0.00000387,-0.00000030,0.00000018,-0.00000030,-0.00000295,-
 0.00000564,-0.00000174,0.00000298,0.00000093,-0.00000037,0.00000073,-0
 .00000026,-0.00022048,0.00013455,0.00010523,0.00055343,0.00052803,0.00
 056204,-0.00117843,0.00445716,-0.00020472,-0.00097463,0.00045264,0.000
 28783,0.00941345,0.01241278,0.01649386,-0.00434652,0.00295386,-0.00289
 343,-0.00001847,-0.00032462,0.00023699,-0.07991105,-0.04094410,-0.0665
 5872,0.00008293,-0.00130442,0.00105939,-0.00403237,-0.01772000,-0.0224
 4864,-0.00029217,-0.00095861,-0.00126628,0.08114052,0.00000333,0.00000
 542,0.00000528,0.00003200,-0.00006884,-0.00005920,-0.00005140,0.000116
 57,0.00010060,0.00004274,-0.00004412,-0.00000185,-0.00000246,0.0000038
 1,0.00000735,0.00002279,-0.00002624,-0.00001303,0.00001536,-0.00000816
 ,-0.00000148,-0.00000896,0.00000829,-0.00000053,-0.00000104,0.00001276
 ,0.00000866,0.00000316,-0.00000836,-0.00000883,0.00000578,-0.00000489,
 -0.00000317,0.00015807,-0.00026856,-0.00002702,-0.00039437,-0.00023992
 ,-0.00089876,0.00496103,0.00145159,-0.00318327,0.00038620,-0.00026576,
 0.00055243,-0.00800029,-0.00919558,-0.01709763,0.00237505,0.00338773,-
 0.00148541,-0.00032337,-0.00047944,0.00041150,-0.04140007,-0.14263178,
 -0.13143120,-0.00084986,-0.00151947,0.00225211,0.00222123,0.00450673,0
 .00217519,0.00007842,0.00034808,0.00012011,0.04135436,0.14554437,-0.00
 000434,-0.00000119,0.00000373,0.00001899,-0.00005263,-0.00004179,-0.00
 004566,0.00009659,0.00005284,0.00004094,-0.00002721,-0.00001514,0.0000
 0274,0.00001293,0.00000645,0.00002244,-0.00002474,-0.00001250,0.000011
 64,-0.00000655,0.00000070,-0.00000843,0.00000455,0.00000310,-0.0000038
 3,0.00000692,0.00000921,0.00000130,-0.00000857,-0.00000630,0.00000472,
 -0.00000514,-0.00000207,0.00011126,-0.00002659,-0.00012493,-0.00033449
 ,-0.00042813,-0.00013033,0.00029167,-0.00346834,0.00396830,0.00014629,
 0.00063860,0.00013040,-0.00444828,-0.00545862,-0.00531454,-0.00362679,
 -0.00138563,0.00284841,0.00026186,0.00041876,-0.00049317,-0.06645515,-
 0.13128896,-0.20749960,0.00152790,0.00202255,-0.00129486,-0.00262600,-
 0.00851165,-0.00641989,-0.00014048,-0.00044544,-0.00036924,0.07375095,
 0.14593359,0.21540509,0.00003023,-0.00002308,-0.00000667,-0.00007248,0
 .00003224,-0.00000355,0.00015717,-0.00013863,-0.00011705,-0.00002551,0
 .00005226,0.00004439,0.00001769,-0.00002084,-0.00000133,-0.00002595,0.
 00003299,0.00001462,-0.00000469,0.00000068,-0.00000273,0.00000374,-0.0
 0000366,-0.00000121,0.00000255,0.00000326,0.00000237,0.,0.00000301,0.0
 0000301,-0.00000279,0.00000133,0.00000183,-0.00031665,0.00037699,0.000
 20448,0.00050219,-0.00082696,0.00005273,-0.00132565,0.00082415,0.00051
 756,0.00154679,-0.00074797,-0.00524343,-0.00129191,-0.00065661,-0.0042
 9495,0.00854628,-0.00140064,-0.00032227,0.00050736,-0.00078634,-0.0003
 1989,-0.02156507,0.02357811,0.01166123,-0.00048799,0.00068597,0.000434
 82,-0.13558314,0.05603213,0.02404835,-0.00009805,-0.00242112,0.0006460
 7,0.00036317,-0.00011524,0.00144221,0.53494857,0.00002491,0.00000793,0
 .00003113,0.00001207,0.00002463,0.00003621,0.00004180,0.00002518,-0.00
 004893,-0.00005123,0.00000142,-0.00002116,-0.00002907,-0.00000957,-0.0
 0001389,-0.00003175,0.00004261,0.00001570,-0.00001257,0.00000484,-0.00
 000319,0.00000658,-0.00000706,-0.00000398,0.00000557,-0.00000473,-0.00
 000320,-0.00000056,0.00000905,0.00000775,-0.00000805,0.00000529,0.0000
 0546,0.00011616,-0.00018389,-0.00003334,-0.00037860,0.00012032,0.00043
 013,0.00005067,-0.00105731,0.00017077,-0.00062410,0.00275720,-0.004216
 14,0.00023166,0.00358947,-0.00188710,0.01481922,-0.01433954,-0.0122509
 4,0.00045577,-0.00027252,-0.00015417,0.00843334,-0.00215985,-0.0019979
 7,-0.00017022,0.00022263,-0.00007841,0.05884603,-0.13892679,-0.0401682
 3,-0.00004185,-0.00058138,0.00268314,-0.00224205,-0.00061311,0.0006668
 6,0.02881010,0.52813152,-0.00001943,0.00002108,-0.00000471,0.00005732,
 -0.00004602,-0.00002071,-0.00019524,0.00012495,0.00012520,0.00003236,-
 0.00005537,-0.00004743,-0.00000404,0.00003171,0.00002585,0.00004160,-0
 .00005056,-0.00002043,0.00001006,-0.00000389,0.00000263,0.00000100,0.0
 0000091,0.00000427,-0.00000320,0.00000658,0.00000489,-0.00000227,-0.00
 000737,-0.00000694,0.00000543,-0.00000382,-0.00000412,0.00031364,-0.00
 029761,-0.00016233,-0.00012971,0.00088788,-0.00000596,0.00083299,-0.00
 061260,-0.00109156,-0.00414083,-0.00280310,0.00030798,-0.00581180,-0.0
 0226804,0.00231269,0.01698398,-0.02004976,-0.00841007,0.00058646,-0.00
 059073,-0.00021553,-0.00608187,0.00689821,0.00951779,-0.00062982,0.000
 75127,0.00028454,0.02289082,-0.03728079,-0.09798992,0.00138574,0.00092
 431,-0.00088979,0.00060182,0.00268467,-0.00131605,0.03935467,-0.006362
 62,0.54719868,0.00001667,0.00000772,0.00001534,-0.00000037,0.00003361,
 0.00003291,0.00004697,-0.00004280,-0.00002637,-0.00003833,0.00001473,-
 0.00000788,-0.00001658,-0.00000585,-0.00001964,-0.00002989,0.00003324,
 0.00001833,-0.00001256,0.00000402,-0.00000160,0.00000527,-0.00000657,-
 0.00000014,0.00000206,-0.00000762,-0.00000325,-0.00000024,0.00000824,0
 .00000930,-0.00000551,0.00000547,0.00000339,0.00002175,-0.00003513,-0.
 00004117,-0.00018902,0.00008547,0.00016656,0.00061894,-0.00005359,0.00
 057475,-0.00095836,0.00123434,-0.00034962,0.00045171,0.00059096,-0.001
 04669,-0.00010583,-0.00124506,-0.00137382,-0.00002785,0.00007579,0.000
 01438,0.00009347,0.00162319,0.00050861,-0.00010392,0.00002061,0.000042
 46,-0.01298460,-0.00492594,0.01562882,-0.00000687,-0.00022371,0.000279
 25,-0.00046780,-0.00055373,0.00028740,-0.12350990,-0.05994561,0.103130
 46,0.13354841,-0.00001913,-0.00000115,-0.00000878,0.00001764,-0.000031
 32,-0.00002031,-0.00006970,0.00007466,0.00003853,0.00003525,-0.0000263
 5,-0.00000618,0.00000705,0.00000854,0.00001538,0.00003007,-0.00003203,
 -0.00001720,0.00000900,-0.00000291,0.00000171,-0.00000253,0.00000487,0
 .00000151,-0.00000325,0.00000476,0.00000087,0.00000026,-0.00000633,-0.
 00000674,0.00000438,-0.00000416,-0.00000262,0.00006036,-0.00007557,-0.
 00004284,-0.00002723,0.00007441,0.00000055,0.00046853,-0.00004062,0.00
 001133,-0.00063446,-0.00049013,0.00081221,-0.00034425,-0.00085369,0.00
 026818,0.00073638,-0.00071766,0.00009419,0.00003161,-0.00000260,-0.000
 07834,-0.00043230,-0.00006935,-0.00037211,0.00005042,-0.00000471,-0.00
 001873,0.01480283,0.00966532,-0.01897502,-0.00012581,0.00018330,-0.000
 40335,0.00018027,0.00024737,0.00007952,-0.05710643,-0.08874925,0.07564
 589,0.06156398,0.09655613,-0.00001302,-0.00000742,-0.00001167,-0.00000
 668,-0.00001900,-0.00002335,-0.00001227,0.00001659,0.00001778,0.000029
 65,-0.00000680,0.00001170,0.00001338,0.00000367,0.00001212,0.00002017,
 -0.00002090,-0.00001089,0.00000796,-0.00000264,0.00000126,-0.00000584,
 0.00000383,-0.00000208,-0.00000157,0.00000554,0.00000202,0.00000053,-0
 .00000692,-0.00000820,0.00000333,-0.00000370,-0.00000230,-0.00008115,0
 .00005299,0.00002645,0.00021273,-0.00011481,-0.00016271,0.00035978,0.0
 0054349,0.00056563,-0.00062762,-0.00050569,0.00044402,0.00037576,-0.00
 128242,-0.00060080,0.00086066,-0.00103194,0.00056738,0.00004271,-0.000
 03911,-0.00006704,-0.00169563,0.00067847,-0.00027406,0.00002071,-0.000
 07185,0.00001117,0.00757551,0.00122577,-0.00794097,0.00014021,0.000345
 69,-0.00053763,0.00008811,0.00018134,-0.00014192,0.10197088,0.07855254
 ,-0.18315603,-0.11500118,-0.08376518,0.19771707,0.00000719,0.00000140,
 0.00000910,-0.00000390,0.00001240,0.00001242,0.00001585,-0.00002793,-0
 .00001253,-0.00002077,0.00000972,-0.00000649,-0.00000729,-0.00000340,-
 0.00000363,-0.00001253,0.00001460,0.00000692,-0.00000524,0.00000246,-0
 .00000148,0.00000648,-0.00000203,-0.00000089,0.00000286,-0.00000259,-0
 .00000357,-0.00000018,0.00000527,0.00000412,-0.00000283,0.00000382,0.0
 0000159,0.00001057,-0.00003255,0.00000529,0.00004371,0.00020571,0.0000
 1252,0.00029180,-0.00013961,-0.00006438,-0.00050411,-0.00014398,0.0006
 1177,-0.00101778,-0.00037056,-0.00017499,0.00067233,-0.00196516,-0.000
 96637,0.00001233,0.00003552,-0.00000084,-0.00101734,0.00367650,0.00179
 147,-0.00024082,0.00019860,0.00016025,-0.01555203,0.00660907,-0.014213
 93,0.00079293,0.00069165,0.00017748,0.00039306,0.00012184,0.00003942,-
 0.14826058,0.05423232,-0.11659043,0.01286050,-0.00597371,0.01326693,0.
 16138591,-0.00001771,0.00000166,-0.00000776,0.00001810,-0.00002334,-0.
 00001447,-0.00005694,0.00006657,0.00003711,0.00002820,-0.00002256,-0.0
 0000495,0.00000487,0.00001154,0.00001195,0.00002360,-0.00002752,-0.000
 01338,0.00000694,-0.00000219,0.00000140,-0.00000406,0.00000311,0.00000
 074,-0.00000324,0.00000253,0.00000135,0.00000043,-0.00000565,-0.000006
 14,0.00000325,-0.00000363,-0.00000212,0.00005352,-0.00006045,-0.000034
 06,-0.00009725,0.00006298,-0.00001612,-0.00023448,-0.00026107,-0.00018
 384,0.00010757,0.00005841,0.00000030,0.00067245,0.00104924,0.00042350,
 0.00099468,0.00105333,0.00079395,-0.00002820,0.00000301,0.00001579,0.0
 0153107,-0.00287948,-0.00234005,0.00015901,-0.00020989,-0.00009006,0.0
 1312147,-0.00684890,0.01603216,-0.00055302,-0.00068946,-0.00080103,0.0
 0008751,-0.00005489,0.00028924,0.05417170,-0.07923730,0.06059655,0.008
 86359,-0.00497101,0.01029071,-0.06299020,0.08216465,0.00000247,0.00000
 210,0.00000222,-0.00000466,0.00000533,0.00000634,0.00001181,-0.0000243
 4,-0.00000083,-0.00000877,0.00000648,-0.00000066,-0.00000216,0.0000012
 9,-0.00000273,-0.00000529,0.00000561,0.00000337,-0.00000260,0.00000079
 ,-0.00000085,0.00000272,-0.00000079,-0.00000043,0.00000058,-0.00000340
 ,-0.00000133,-0.00000002,0.00000245,0.00000228,-0.00000219,0.00000201,
 0.00000112,-0.00000716,0.00000673,-0.00000336,0.00002563,0.00006994,-0
 .00004022,0.00031941,0.00002105,0.00033356,-0.00035912,0.00029072,0.00
 045433,0.00079496,-0.00021541,-0.00014944,0.00098661,-0.00072987,0.000
 27494,-0.00003004,0.00007005,-0.00000616,0.00084284,-0.00141070,-0.000
 77802,0.00012306,-0.00006109,-0.00009107,0.00996151,-0.00559343,0.0106
 3958,-0.00000325,0.00010641,-0.00011253,0.00021898,-0.00005795,0.00011
 496,-0.11857873,0.06217571,-0.18090723,-0.01529992,0.00709981,-0.01713
 632,0.12679071,-0.06594109,0.19582168,0.00000335,-0.00000351,0.0000019
 9,-0.00000296,0.00000294,0.00000313,0.00001335,-0.00000340,-0.00001246
 ,-0.00000070,0.00000473,0.00000099,-0.00000039,-0.00000474,-0.00000359
 ,-0.00000465,0.00000598,0.00000241,-0.00000019,0.,0.00000014,-0.000000
 94,0.00000139,-0.00000114,0.00000018,-0.00000013,0.00000096,-0.0000002
 1,0.00000056,0.00000068,0.00000034,-0.00000036,-0.00000047,-0.00002087
 ,0.00001195,0.00000899,-0.00001101,-0.00008784,0.00001846,0.00018856,0
 .00022305,0.00012889,0.00005187,0.00022004,0.00104132,0.00048532,-0.00
 021170,-0.00017269,-0.00261978,0.00210328,0.00051382,-0.00018251,0.000
 14785,0.00013067,0.00042607,0.00084075,0.00103400,0.00002638,-0.000069
 03,-0.00001271,0.01152851,0.01868557,0.00925809,0.00015551,0.00022808,
 0.00014794,-0.00044477,-0.00008057,-0.00026827,-0.11405537,-0.10255053
 ,-0.05261971,-0.00920810,-0.01325924,-0.00754408,-0.00985012,-0.015862
 85,-0.00577742,0.12352312,-0.00001567,0.00000148,-0.00001031,0.0000127
 2,-0.00003330,-0.00002173,-0.00006866,0.00007205,0.00002703,0.00002996
 ,-0.00002210,-0.00000914,0.00000887,0.00001040,0.00001546,0.00002716,-
 0.00003074,-0.00001477,0.00001053,-0.00000395,0.00000184,-0.00000420,0
 .00000422,0.00000276,-0.00000239,0.00000553,0.00000554,-0.00000022,-0.
 00000643,-0.00000633,0.00000500,-0.00000517,-0.00000249,0.00004648,-0.
 00004052,-0.00002746,0.00001636,-0.00000052,0.00011811,0.00028053,0.00
 010510,0.00043717,-0.00082722,0.00051742,-0.00097501,0.00039197,-0.000
 01245,-0.00042162,0.00351831,-0.00245715,-0.00027662,0.00019208,-0.000
 22587,-0.00009235,-0.00157149,0.00118760,-0.00082380,-0.00000229,-0.00
 003062,0.00003107,-0.01084857,-0.01589797,-0.00857363,-0.00015529,-0.0
 0007186,0.00018747,0.00094424,-0.00020361,0.00096927,-0.10035741,-0.20
 879980,-0.07814175,-0.00711934,-0.01074052,-0.00502224,0.00583082,0.01
 082036,0.00417159,0.10965774,0.22585844,0.00000075,-0.00000138,-0.0000
 0385,-0.00000643,-0.00000699,-0.00000742,0.00000313,-0.00000253,-0.000
 00732,0.00000703,0.00000051,0.00000357,0.00000489,0.00000151,0.0000007
 8,0.00000254,-0.00000320,-0.00000145,0.00000232,-0.00000171,0.00000079
 ,-0.00000304,0.00000049,0.00000110,-0.00000089,0.00000203,0.00000381,-
 0.00000003,-0.00000228,-0.00000135,0.00000118,-0.00000172,-0.00000032,
 -0.00002871,0.00005370,0.00000941,0.00008621,-0.00017157,0.00007761,-0
 .00024115,0.00019163,0.00007304,0.00007551,-0.00034069,-0.00069030,0.0
 0045155,0.00016310,-0.00046558,0.00176048,-0.00195438,0.00040347,0.000
 16600,-0.00011627,-0.00013323,-0.00114082,0.00125982,0.00038653,0.0000
 1526,-0.00001961,0.00001324,-0.00551675,-0.01052036,-0.00739164,0.0001
 3863,0.00010560,0.00037042,0.00000083,-0.00016353,0.00063913,-0.051507
 42,-0.07753213,-0.08553570,0.01245930,0.01964771,0.01069938,-0.0108504
 4,-0.01903968,-0.00842322,0.05412005,0.08845193,0.08997911||0.00001140
 ,-0.00002450,-0.00002183,-0.00004860,0.00004853,0.00002046,0.00006132,
 -0.00006514,-0.00001267,-0.00003999,0.00003890,0.00001523,0.00001627,-
 0.00000912,-0.00000386,0.00000272,0.00000308,0.00000716,0.00000567,0.0
 0000090,0.00000321,0.00000867,-0.00000595,-0.00000147,0.00000408,-0.00
 000593,-0.00000448,-0.00000178,-0.00000332,-0.00000507,-0.00000252,0.0
 0000262,0.00000053,0.00000413,0.00000224,-0.00000501,0.00003608,-0.000
 04549,-0.00003747,-0.00007266,0.00008042,0.00005456,0.00003738,-0.0000
 3911,-0.00001734,0.00002529,-0.00003521,-0.00001611,-0.00001472,0.0000
 1365,0.00001215,-0.00000791,0.00000712,-0.00000043,-0.00000809,0.00000
 998,0.00000822,-0.00000149,0.00000906,0.00000311,-0.00000425,0.0000154
 9,-0.00000887,-0.00000508,0.00000263,0.00000053,-0.00000279,0.00000342
 ,0.00000382,0.00001006,0.00000027,-0.00001007,-0.00001018,-0.00000076,
 0.00001078,-0.00000131,-0.00000195,0.00000245,-0.00000169,-0.00000181,
 0.00000245|||@


 BULLDOZER: SOMEONE WHO SLEEPS THROUGH SPEECHES.
 Job cpu time:       0 days  0 hours 36 minutes 55.0 seconds.
 File lengths (MBytes):  RWF=    264 Int=      0 D2E=      0 Chk=      9 Scr=      1
 Normal termination of Gaussian 09 at Thu Aug 24 13:27:41 2023.
