 Entering Gaussian System, Link 0=C:\G09W\g09.exe
 Input=D:\machine learning\molecule_15.gjf
 Output=D:\machine learning\molecule_15.log
 Initial command:
 C:/G09W\l1.exe ".\Gau-3260.inp" "D:\machine learning\molecule_15.log" /scrdir=".\"
 Entering Link 1 = C:/G09W\l1.exe PID=      2772.
  
 Copyright (c) 1988,1990,1992,1993,1995,1998,2003,2009,2013,
            Gaussian, Inc.  All Rights Reserved.
  
 This is part of the Gaussian(R) 09 program.  It is based on
 the Gaussian(R) 03 system (copyright 2003, Gaussian, Inc.),
 the Gaussian(R) 98 system (copyright 1998, Gaussian, Inc.),
 the Gaussian(R) 94 system (copyright 1995, Gaussian, Inc.),
 the Gaussian 92(TM) system (copyright 1992, Gaussian, Inc.),
 the Gaussian 90(TM) system (copyright 1990, Gaussian, Inc.),
 the Gaussian 88(TM) system (copyright 1988, Gaussian, Inc.),
 the Gaussian 86(TM) system (copyright 1986, Carnegie Mellon
 University), and the Gaussian 82(TM) system (copyright 1983,
 Carnegie Mellon University). Gaussian is a federally registered
 trademark of Gaussian, Inc.
  
 This software contains proprietary and confidential information,
 including trade secrets, belonging to Gaussian, Inc.
  
 This software is provided under written license and may be
 used, copied, transmitted, or stored only in accord with that
 written license.
  
 The following legend is applicable only to US Government
 contracts under FAR:
  
                    RESTRICTED RIGHTS LEGEND
  
 Use, reproduction and disclosure by the US Government is
 subject to restrictions as set forth in subparagraphs (a)
 and (c) of the Commercial Computer Software - Restricted
 Rights clause in FAR 52.227-19.
  
 Gaussian, Inc.
 340 Quinnipiac St., Bldg. 40, Wallingford CT 06492
  
  
 ---------------------------------------------------------------
 Warning -- This program may not be used in any manner that
 competes with the business of Gaussian, Inc. or will provide
 assistance to any competitor of Gaussian, Inc.  The licensee
 of this program is prohibited from giving any competitor of
 Gaussian, Inc. access to this program.  By using this program,
 the user acknowledges that Gaussian, Inc. is engaged in the
 business of creating and licensing software in the field of
 computational chemistry and represents and warrants to the
 licensee that it is not a competitor of Gaussian, Inc. and that
 it will not use this program in any manner prohibited above.
 ---------------------------------------------------------------
  

 Cite this work as:
 Gaussian 09, Revision D.01,
 M. J. Frisch, G. W. Trucks, H. B. Schlegel, G. E. Scuseria, 
 M. A. Robb, J. R. Cheeseman, G. Scalmani, V. Barone, B. Mennucci, 
 G. A. Petersson, H. Nakatsuji, M. Caricato, X. Li, H. P. Hratchian, 
 A. F. Izmaylov, J. Bloino, G. Zheng, J. L. Sonnenberg, M. Hada, 
 M. Ehara, K. Toyota, R. Fukuda, J. Hasegawa, M. Ishida, T. Nakajima, 
 Y. Honda, O. Kitao, H. Nakai, T. Vreven, J. A. Montgomery, Jr., 
 J. E. Peralta, F. Ogliaro, M. Bearpark, J. J. Heyd, E. Brothers, 
 K. N. Kudin, V. N. Staroverov, T. Keith, R. Kobayashi, J. Normand, 
 K. Raghavachari, A. Rendell, J. C. Burant, S. S. Iyengar, J. Tomasi, 
 M. Cossi, N. Rega, J. M. Millam, M. Klene, J. E. Knox, J. B. Cross, 
 V. Bakken, C. Adamo, J. Jaramillo, R. Gomperts, R. E. Stratmann, 
 O. Yazyev, A. J. Austin, R. Cammi, C. Pomelli, J. W. Ochterski, 
 R. L. Martin, K. Morokuma, V. G. Zakrzewski, G. A. Voth, 
 P. Salvador, J. J. Dannenberg, S. Dapprich, A. D. Daniels, 
 O. Farkas, J. B. Foresman, J. V. Ortiz, J. Cioslowski, 
 and D. J. Fox, Gaussian, Inc., Wallingford CT, 2013.
 
 ******************************************
 Gaussian 09:  EM64W-G09RevD.01 13-Apr-2013
                24-Aug-2023 
 ******************************************
 %nprocshared=6
 Will use up to    6 processors via shared memory.
 %mem=8GB
 %chk=D:\machine learning\molecule_15.chk
 --------------------------------------------------
 # opt freq b3lyp/6-31+g(d) empiricaldispersion=gd3
 --------------------------------------------------
 1/14=-1,18=20,19=15,26=3,38=1/1,3;
 2/9=110,12=2,17=6,18=5,40=1/2;
 3/5=1,6=6,7=11,11=2,16=1,25=1,30=1,71=1,74=-5,124=31/1,2,3;
 4//1;
 5/5=2,38=5/2;
 6/7=2,8=2,9=2,10=2,28=1/1;
 7//1,2,3,16;
 1/14=-1,18=20,19=15,26=3/3(2);
 2/9=110/2;
 99//99;
 2/9=110/2;
 3/5=1,6=6,7=11,11=2,16=1,25=1,30=1,71=1,74=-5,124=31/1,2,3;
 4/5=5,16=3,69=1/1;
 5/5=2,38=5/2;
 7//1,2,3,16;
 1/14=-1,18=20,19=15,26=3/3(-5);
 2/9=110/2;
 6/7=2,8=2,9=2,10=2,19=2,28=1/1;
 99/9=1/99;
 -------------------
 Title Card Required
 -------------------
 Symbolic Z-matrix:
 Charge =  0 Multiplicity = 1
 C                    -5.30642  -0.95004   1.13808 
 C                    -3.91026  -0.97885   1.0873 
 C                    -3.24353  -0.49817  -0.05029 
 C                    -3.96927  -0.06568  -1.15526 
 C                    -5.36722  -0.03465  -1.10341 
 C                    -6.03529  -0.47585   0.04315 
 H                    -5.82877  -1.29526   2.03458 
 H                    -3.33932  -1.35081   1.9443 
 H                    -3.4475    0.28095  -2.05001 
 H                    -5.9376    0.33606  -1.95976 
 H                    -7.12782  -0.45137   0.08272 
 C                    -1.70232  -0.51098  -0.00174 
 C                    -0.50316  -0.51544   0.00061 
 C                     1.03814  -0.52118   0.00361 
 C                     1.73324  -0.49899   1.21632 
 C                     1.73531  -0.50038  -1.20582 
 C                     3.13124  -0.50192   1.21672 
 H                     1.18549  -0.5016    2.1622 
 C                     3.13359  -0.50384  -1.20525 
 H                     1.18944  -0.5035   -2.1542 
 C                     3.82894  -0.50274   0.00634 
 H                     3.67742  -0.50148   2.16417 
 H                     3.6812   -0.50459  -2.15173 
 Cl                    5.58894  -0.50344   0.00796 
 

 GradGradGradGradGradGradGradGradGradGradGradGradGradGradGradGradGradGrad
 Berny optimization.
 Initialization pass.
                           ----------------------------
                           !    Initial Parameters    !
                           ! (Angstroms and Degrees)  !
 --------------------------                            --------------------------
 ! Name  Definition              Value          Derivative Info.                !
 --------------------------------------------------------------------------------
 ! R1    R(1,2)                  1.3974         estimate D2E/DX2                !
 ! R2    R(1,6)                  1.3982         estimate D2E/DX2                !
 ! R3    R(1,7)                  1.0935         estimate D2E/DX2                !
 ! R4    R(2,3)                  1.4035         estimate D2E/DX2                !
 ! R5    R(2,8)                  1.0949         estimate D2E/DX2                !
 ! R6    R(3,4)                  1.3909         estimate D2E/DX2                !
 ! R7    R(3,12)                 1.542          estimate D2E/DX2                !
 ! R8    R(4,5)                  1.3993         estimate D2E/DX2                !
 ! R9    R(4,9)                  1.0922         estimate D2E/DX2                !
 ! R10   R(5,6)                  1.3984         estimate D2E/DX2                !
 ! R11   R(5,10)                 1.0937         estimate D2E/DX2                !
 ! R12   R(6,11)                 1.0935         estimate D2E/DX2                !
 ! R13   R(12,13)                1.1992         estimate D2E/DX2                !
 ! R14   R(13,14)                1.5413         estimate D2E/DX2                !
 ! R15   R(14,15)                1.398          estimate D2E/DX2                !
 ! R16   R(14,16)                1.3961         estimate D2E/DX2                !
 ! R17   R(15,17)                1.398          estimate D2E/DX2                !
 ! R18   R(15,18)                1.093          estimate D2E/DX2                !
 ! R19   R(16,19)                1.3983         estimate D2E/DX2                !
 ! R20   R(16,20)                1.0943         estimate D2E/DX2                !
 ! R21   R(17,21)                1.3971         estimate D2E/DX2                !
 ! R22   R(17,22)                1.0936         estimate D2E/DX2                !
 ! R23   R(19,21)                1.3969         estimate D2E/DX2                !
 ! R24   R(19,23)                1.0935         estimate D2E/DX2                !
 ! R25   R(21,24)                1.76           estimate D2E/DX2                !
 ! A1    A(2,1,6)              119.958          estimate D2E/DX2                !
 ! A2    A(2,1,7)              120.0372         estimate D2E/DX2                !
 ! A3    A(6,1,7)              120.0045         estimate D2E/DX2                !
 ! A4    A(1,2,3)              119.8047         estimate D2E/DX2                !
 ! A5    A(1,2,8)              119.971          estimate D2E/DX2                !
 ! A6    A(3,2,8)              120.204          estimate D2E/DX2                !
 ! A7    A(2,3,4)              120.1683         estimate D2E/DX2                !
 ! A8    A(2,3,12)             116.5157         estimate D2E/DX2                !
 ! A9    A(4,3,12)             123.304          estimate D2E/DX2                !
 ! A10   A(3,4,5)              119.9162         estimate D2E/DX2                !
 ! A11   A(3,4,9)              120.0131         estimate D2E/DX2                !
 ! A12   A(5,4,9)              120.0388         estimate D2E/DX2                !
 ! A13   A(4,5,6)              120.0444         estimate D2E/DX2                !
 ! A14   A(4,5,10)             119.9699         estimate D2E/DX2                !
 ! A15   A(6,5,10)             119.9857         estimate D2E/DX2                !
 ! A16   A(1,6,5)              120.0015         estimate D2E/DX2                !
 ! A17   A(1,6,11)             120.0048         estimate D2E/DX2                !
 ! A18   A(5,6,11)             119.9936         estimate D2E/DX2                !
 ! A19   A(13,14,15)           119.9238         estimate D2E/DX2                !
 ! A20   A(13,14,16)           119.8422         estimate D2E/DX2                !
 ! A21   A(15,14,16)           120.1945         estimate D2E/DX2                !
 ! A22   A(14,15,17)           119.8308         estimate D2E/DX2                !
 ! A23   A(14,15,18)           120.098          estimate D2E/DX2                !
 ! A24   A(17,15,18)           120.0575         estimate D2E/DX2                !
 ! A25   A(14,16,19)           119.9314         estimate D2E/DX2                !
 ! A26   A(14,16,20)           120.108          estimate D2E/DX2                !
 ! A27   A(19,16,20)           119.947          estimate D2E/DX2                !
 ! A28   A(15,17,21)           119.944          estimate D2E/DX2                !
 ! A29   A(15,17,22)           119.9792         estimate D2E/DX2                !
 ! A30   A(21,17,22)           120.0767         estimate D2E/DX2                !
 ! A31   A(16,19,21)           119.8756         estimate D2E/DX2                !
 ! A32   A(16,19,23)           120.0284         estimate D2E/DX2                !
 ! A33   A(21,19,23)           120.0958         estimate D2E/DX2                !
 ! A34   A(17,21,19)           120.1873         estimate D2E/DX2                !
 ! A35   A(17,21,24)           119.9076         estimate D2E/DX2                !
 ! A36   A(19,21,24)           119.9051         estimate D2E/DX2                !
 ! A37   L(3,12,13,8,-1)       181.6583         estimate D2E/DX2                !
 ! A38   L(12,13,14,20,-1)     179.9996         estimate D2E/DX2                !
 ! A39   L(3,12,13,8,-2)       179.4663         estimate D2E/DX2                !
 ! A40   L(12,13,14,20,-2)     179.9998         estimate D2E/DX2                !
 ! D1    D(6,1,2,3)              1.6809         estimate D2E/DX2                !
 ! D2    D(6,1,2,8)           -179.9557         estimate D2E/DX2                !
 ! D3    D(7,1,2,3)           -178.1363         estimate D2E/DX2                !
 ! D4    D(7,1,2,8)              0.227          estimate D2E/DX2                !
 ! D5    D(2,1,6,5)              0.1967         estimate D2E/DX2                !
 ! D6    D(2,1,6,11)          -179.8961         estimate D2E/DX2                !
 ! D7    D(7,1,6,5)           -179.986          estimate D2E/DX2                !
 ! D8    D(7,1,6,11)            -0.0788         estimate D2E/DX2                !
 ! D9    D(1,2,3,4)             -3.6992         estimate D2E/DX2                !
 ! D10   D(1,2,3,12)           177.5162         estimate D2E/DX2                !
 ! D11   D(8,2,3,4)            177.9414         estimate D2E/DX2                !
 ! D12   D(8,2,3,12)            -0.8433         estimate D2E/DX2                !
 ! D13   D(2,3,4,5)              3.816          estimate D2E/DX2                !
 ! D14   D(2,3,4,9)           -178.2399         estimate D2E/DX2                !
 ! D15   D(12,3,4,5)          -177.4853         estimate D2E/DX2                !
 ! D16   D(12,3,4,9)             0.4589         estimate D2E/DX2                !
 ! D17   D(2,3,14,15)          -24.1431         estimate D2E/DX2                !
 ! D18   D(2,3,14,16)          158.2445         estimate D2E/DX2                !
 ! D19   D(4,3,14,15)          157.4038         estimate D2E/DX2                !
 ! D20   D(4,3,14,16)          -20.2086         estimate D2E/DX2                !
 ! D21   D(3,4,5,6)             -1.9249         estimate D2E/DX2                !
 ! D22   D(3,4,5,10)           178.0            estimate D2E/DX2                !
 ! D23   D(9,4,5,6)           -179.8685         estimate D2E/DX2                !
 ! D24   D(9,4,5,10)             0.0564         estimate D2E/DX2                !
 ! D25   D(4,5,6,1)             -0.0841         estimate D2E/DX2                !
 ! D26   D(4,5,6,11)          -179.9913         estimate D2E/DX2                !
 ! D27   D(10,5,6,1)           179.991          estimate D2E/DX2                !
 ! D28   D(10,5,6,11)            0.0838         estimate D2E/DX2                !
 ! D29   D(13,14,15,17)       -179.8905         estimate D2E/DX2                !
 ! D30   D(13,14,15,18)          1.4544         estimate D2E/DX2                !
 ! D31   D(16,14,15,17)         -2.1768         estimate D2E/DX2                !
 ! D32   D(16,14,15,18)        179.1681         estimate D2E/DX2                !
 ! D33   D(13,14,16,19)        179.9195         estimate D2E/DX2                !
 ! D34   D(13,14,16,20)         -1.4191         estimate D2E/DX2                !
 ! D35   D(15,14,16,19)          2.2039         estimate D2E/DX2                !
 ! D36   D(15,14,16,20)       -179.1347         estimate D2E/DX2                !
 ! D37   D(14,15,17,21)          1.1475         estimate D2E/DX2                !
 ! D38   D(14,15,17,22)       -178.9793         estimate D2E/DX2                !
 ! D39   D(18,15,17,21)        179.8032         estimate D2E/DX2                !
 ! D40   D(18,15,17,22)         -0.3236         estimate D2E/DX2                !
 ! D41   D(14,16,19,21)         -1.1998         estimate D2E/DX2                !
 ! D42   D(14,16,19,23)        178.9699         estimate D2E/DX2                !
 ! D43   D(20,16,19,21)       -179.8633         estimate D2E/DX2                !
 ! D44   D(20,16,19,23)          0.3064         estimate D2E/DX2                !
 ! D45   D(15,17,21,19)         -0.1518         estimate D2E/DX2                !
 ! D46   D(15,17,21,24)        179.8876         estimate D2E/DX2                !
 ! D47   D(22,17,21,19)        179.9751         estimate D2E/DX2                !
 ! D48   D(22,17,21,24)          0.0145         estimate D2E/DX2                !
 ! D49   D(16,19,21,17)          0.1766         estimate D2E/DX2                !
 ! D50   D(16,19,21,24)       -179.8628         estimate D2E/DX2                !
 ! D51   D(23,19,21,17)       -179.9932         estimate D2E/DX2                !
 ! D52   D(23,19,21,24)         -0.0326         estimate D2E/DX2                !
 --------------------------------------------------------------------------------
 Trust Radius=3.00D-01 FncErr=1.00D-07 GrdErr=1.00D-06
 Number of steps in this run=    127 maximum allowed number of steps=    144.
 GradGradGradGradGradGradGradGradGradGradGradGradGradGradGradGradGradGrad

                          Input orientation:                          
 ---------------------------------------------------------------------
 Center     Atomic      Atomic             Coordinates (Angstroms)
 Number     Number       Type             X           Y           Z
 ---------------------------------------------------------------------
      1          6           0       -5.306420   -0.950037    1.138085
      2          6           0       -3.910257   -0.978854    1.087296
      3          6           0       -3.243530   -0.498173   -0.050288
      4          6           0       -3.969271   -0.065678   -1.155262
      5          6           0       -5.367223   -0.034654   -1.103412
      6          6           0       -6.035290   -0.475849    0.043153
      7          1           0       -5.828773   -1.295255    2.034578
      8          1           0       -3.339319   -1.350808    1.944296
      9          1           0       -3.447499    0.280946   -2.050008
     10          1           0       -5.937596    0.336059   -1.959755
     11          1           0       -7.127821   -0.451371    0.082722
     12          6           0       -1.702325   -0.510980   -0.001736
     13          6           0       -0.503164   -0.515444    0.000607
     14          6           0        1.038137   -0.521178    0.003607
     15          6           0        1.733241   -0.498994    1.216317
     16          6           0        1.735313   -0.500380   -1.205823
     17          6           0        3.131236   -0.501924    1.216721
     18          1           0        1.185494   -0.501600    2.162198
     19          6           0        3.133594   -0.503838   -1.205245
     20          1           0        1.189441   -0.503497   -2.154202
     21          6           0        3.828940   -0.502741    0.006338
     22          1           0        3.677424   -0.501477    2.164168
     23          1           0        3.681197   -0.504590   -2.151735
     24         17           0        5.588939   -0.503439    0.007964
 ---------------------------------------------------------------------
                    Distance matrix (angstroms):
                    1          2          3          4          5
     1  C    0.000000
     2  C    1.397384   0.000000
     3  C    2.423205   1.403451   0.000000
     4  C    2.798124   2.422073   1.390941   0.000000
     5  C    2.421968   2.795257   2.415365   1.399257   0.000000
     6  C    1.398207   2.420541   2.793413   2.423402   1.398420
     7  H    1.093494   2.162905   3.415478   3.891618   3.413082
     8  H    2.163349   1.094883   2.171296   3.414038   3.890139
     9  H    3.890352   3.412318   2.155808   1.092229   2.163558
    10  H    3.413069   3.888910   3.405877   2.164002   1.093653
    11  H    2.163322   3.411763   3.886849   3.414353   2.163394
    12  C    3.805452   2.505965   1.542023   2.582240   3.856430
    13  C    4.955199   3.606095   2.740893   3.681334   5.010897
    14  C    6.459440   5.086300   4.282068   5.159902   6.518499
    15  C    7.054530   5.665332   5.135421   6.191187   7.484206
    16  C    7.435193   6.112265   5.111179   5.721346   7.118525
    17  C    8.449913   7.058812   6.499459   7.498920   8.821857
    18  H    6.587476   5.229709   4.950895   6.145499   7.336235
    19  C    8.770639   7.422750   6.480869   7.116542   8.514363
    20  H    7.296215   6.061368   4.906905   5.272748   6.656861
    21  C    9.216058   7.828813   7.072698   7.896355   9.274699
    22  H    9.053370   7.678571   7.266598   8.347484   9.628117
    23  H    9.581158   8.267189   7.236571   7.727564   9.121058
    24  Cl  10.962913   9.572131   8.832663   9.638677  11.022358
                    6          7          8          9         10
     6  C    0.000000
     7  H    2.163297   0.000000
     8  H    3.412940   2.491710   0.000000
     9  H    3.413316   4.983846   4.316107   0.000000
    10  H    2.163419   4.315986   4.983792   2.492341   0.000000
    11  H    1.093521   2.491869   4.315923   4.316201   2.491665
    12  C    4.333341   4.667894   2.678077   2.805031   4.742240
    13  C    5.532432   5.753890   3.538295   3.675373   5.839617
    14  C    7.073683   7.202672   4.859699   4.998166   7.297294
    15  C    7.856649   7.647721   5.194844   6.173917   8.344249
    16  C    7.870376   8.267250   6.033106   5.308923   7.755100
    17  C    9.241382   9.032166   6.566433   7.386755   9.645513
    18  H    7.525340   7.060178   4.608966   6.310283   8.272277
    19  C    9.253525   9.562783   7.248142   6.681339   9.141181
    20  H    7.551548   8.211460   6.166464   4.703979   7.178949
    21  C    9.864335   9.900164   7.473876   7.601926   9.997716
    22  H    9.941639   9.540161   7.071378   8.314806  10.495562
    23  H    9.961349  10.420647   8.171976   7.172567   9.657366
    24  Cl  11.624315  11.623178   9.175031   9.300952  11.723381
                   11         12         13         14         15
    11  H    0.000000
    12  C    5.426481   0.000000
    13  C    6.625476   1.199171   0.000000
    14  C    8.166640   2.740486   1.541315   0.000000
    15  C    8.933406   3.645121   2.545531   1.397972   0.000000
    16  C    8.956444   3.642429   2.542927   1.396141   2.422141
    17  C   10.321665   4.984779   3.832490   2.419314   1.397998
    18  H    8.569594   3.608627   2.743033   2.163703   1.093035
    19  C   10.342062   4.983432   3.831478   2.419207   2.797315
    20  H    8.612978   3.604924   2.740120   2.163180   3.414109
    21  C   10.957147   5.531276   4.332126   2.790865   2.419920
    22  H   11.004011   5.799390   4.707283   3.410902   2.162932
    23  H   11.037685   5.796968   4.705483   3.410504   3.890801
    24  Cl  12.717086   7.291274   6.092119   4.550838   4.040611
                   16         17         18         19         20
    16  C    0.000000
    17  C    2.795948   0.000000
    18  H    3.412604   2.163294   0.000000
    19  C    1.398285   2.421968   3.890343   0.000000
    20  H    1.094262   3.890205   4.316402   2.163389   0.000000
    21  C    2.419217   1.397075   3.411091   1.396940   3.410995
    22  H    3.889555   1.093608   2.491931   3.413020   4.983813
    23  H    2.163615   3.413057   4.983830   1.093486   2.491757
    24  Cl   4.040262   2.738868   4.902148   2.738721   4.902096
                   21         22         23         24
    21  C    0.000000
    22  H    2.163144   0.000000
    23  H    2.163125   4.315906   0.000000
    24  Cl   1.760000   2.881512   2.881628   0.000000
 Stoichiometry    C14H9Cl
 Framework group  C1[X(C14H9Cl)]
 Deg. of freedom    66
 Full point group                 C1      NOp   1
 Largest Abelian subgroup         C1      NOp   1
 Largest concise Abelian subgroup C1      NOp   1
                         Standard orientation:                         
 ---------------------------------------------------------------------
 Center     Atomic      Atomic             Coordinates (Angstroms)
 Number     Number       Type             X           Y           Z
 ---------------------------------------------------------------------
      1          6           0        5.181507   -1.207643    0.224091
      2          6           0        3.785371   -1.161596    0.261033
      3          6           0        3.120337    0.047883    0.006937
      4          6           0        3.847685    1.214393   -0.205045
      5          6           0        5.245611    1.167727   -0.244356
      6          6           0        5.912016   -0.042996   -0.030734
      7          1           0        5.702560   -2.154349    0.391366
      8          1           0        3.213149   -2.073317    0.461277
      9          1           0        3.327213    2.159652   -0.374035
     10          1           0        5.817265    2.078565   -0.443508
     11          1           0        7.004528   -0.078487   -0.061501
     12          6           0        1.579068   -0.000318    0.009002
     13          6           0        0.379902   -0.001990    0.012006
     14          6           0       -1.161407   -0.004127    0.015865
     15          6           0       -1.857781   -1.189209   -0.239030
     16          6           0       -1.857272    1.187702    0.226871
     17          6           0       -3.255777   -1.188438   -0.237314
     18          1           0       -1.311044   -2.118707   -0.417459
     19          6           0       -3.255555    1.188201    0.229072
     20          1           0       -1.310393    2.117202    0.412241
     21          6           0       -3.952191    0.000181   -0.004912
     22          1           0       -3.802974   -2.117535   -0.419886
     23          1           0       -3.802150    2.117653    0.410913
     24         17           0       -5.712190    0.000629   -0.005901
 ---------------------------------------------------------------------
 Rotational constants (GHZ):      2.8325560      0.1474719      0.1406950
 Standard basis: 6-31+G(d) (6D, 7F)
 There are   307 symmetry adapted cartesian basis functions of A   symmetry.
 There are   307 symmetry adapted basis functions of A   symmetry.
   307 basis functions,   540 primitive gaussians,   307 cartesian basis functions
    55 alpha electrons       55 beta electrons
       nuclear repulsion energy       842.8782609037 Hartrees.
 NAtoms=   24 NActive=   24 NUniq=   24 SFac= 1.00D+00 NAtFMM=   60 NAOKFM=F Big=F
 Integral buffers will be    131072 words long.
 Raffenetti 2 integral format.
 Two-electron integral symmetry is turned on.
 Nuclear repulsion after empirical dispersion term =      842.8621682933 Hartrees.
 One-electron integrals computed using PRISM.
 NBasis=   307 RedAO= T EigKep=  1.04D-06  NBF=   307
 NBsUse=   305 1.00D-06 EigRej=  5.58D-08 NBFU=   305
 ExpMin= 4.38D-02 ExpMax= 2.52D+04 ExpMxC= 3.78D+03 IAcc=2 IRadAn=         4 AccDes= 0.00D+00
 Harris functional with IExCor=  402 and IRadAn=       4 diagonalized for initial guess.
 HarFok:  IExCor=  402 AccDes= 0.00D+00 IRadAn=         4 IDoV= 1 UseB2=F ITyADJ=14
 ICtDFT=  3500011 ScaDFX=  1.000000  1.000000  1.000000  1.000000
 FoFCou: FMM=F IPFlag=           0 FMFlag=      100000 FMFlg1=           0
         NFxFlg=           0 DoJE=T BraDBF=F KetDBF=T FulRan=T
         wScrn=  0.000000 ICntrl=     500 IOpCl=  0 I1Cent=   200000004 NGrid=           0
         NMat0=    1 NMatS0=      1 NMatT0=    0 NMatD0=    1 NMtDS0=    0 NMtDT0=    0
 Petite list used in FoFCou.
 Requested convergence on RMS density matrix=1.00D-08 within 128 cycles.
 Requested convergence on MAX density matrix=1.00D-06.
 Requested convergence on             energy=1.00D-06.
 No special actions if energy rises.
 SCF Done:  E(RB3LYP) =  -999.078286546     A.U. after   15 cycles
            NFock= 15  Conv=0.71D-08     -V/T= 2.0072

 **********************************************************************

            Population analysis using the SCF density.

 **********************************************************************

 Orbital symmetries:
       Occupied  (A) (A) (A) (A) (A) (A) (A) (A) (A) (A) (A) (A)
                 (A) (A) (A) (A) (A) (A) (A) (A) (A) (A) (A) (A)
                 (A) (A) (A) (A) (A) (A) (A) (A) (A) (A) (A) (A)
                 (A) (A) (A) (A) (A) (A) (A) (A) (A) (A) (A) (A)
                 (A) (A) (A) (A) (A) (A) (A)
       Virtual   (A) (A) (A) (A) (A) (A) (A) (A) (A) (A) (A) (A)
                 (A) (A) (A) (A) (A) (A) (A) (A) (A) (A) (A) (A)
                 (A) (A) (A) (A) (A) (A) (A) (A) (A) (A) (A) (A)
                 (A) (A) (A) (A) (A) (A) (A) (A) (A) (A) (A) (A)
                 (A) (A) (A) (A) (A) (A) (A) (A) (A) (A) (A) (A)
                 (A) (A) (A) (A) (A) (A) (A) (A) (A) (A) (A) (A)
                 (A) (A) (A) (A) (A) (A) (A) (A) (A) (A) (A) (A)
                 (A) (A) (A) (A) (A) (A) (A) (A) (A) (A) (A) (A)
                 (A) (A) (A) (A) (A) (A) (A) (A) (A) (A) (A) (A)
                 (A) (A) (A) (A) (A) (A) (A) (A) (A) (A) (A) (A)
                 (A) (A) (A) (A) (A) (A) (A) (A) (A) (A) (A) (A)
                 (A) (A) (A) (A) (A) (A) (A) (A) (A) (A) (A) (A)
                 (A) (A) (A) (A) (A) (A) (A) (A) (A) (A) (A) (A)
                 (A) (A) (A) (A) (A) (A) (A) (A) (A) (A) (A) (A)
                 (A) (A) (A) (A) (A) (A) (A) (A) (A) (A) (A) (A)
                 (A) (A) (A) (A) (A) (A) (A) (A) (A) (A) (A) (A)
                 (A) (A) (A) (A) (A) (A) (A) (A) (A) (A) (A) (A)
                 (A) (A) (A) (A) (A) (A) (A) (A) (A) (A) (A) (A)
                 (A) (A) (A) (A) (A) (A) (A) (A) (A) (A) (A) (A)
                 (A) (A) (A) (A) (A) (A) (A) (A) (A) (A) (A) (A)
                 (A) (A) (A) (A) (A) (A) (A) (A) (A) (A)
 The electronic state is 1-A.
 Alpha  occ. eigenvalues -- -101.56206 -10.26889 -10.24432 -10.23879 -10.22082
 Alpha  occ. eigenvalues --  -10.22081 -10.22018 -10.22017 -10.21139 -10.21038
 Alpha  occ. eigenvalues --  -10.20987 -10.20894 -10.20841 -10.20711 -10.20455
 Alpha  occ. eigenvalues --   -9.47710  -7.24121  -7.23145  -7.23113  -0.90405
 Alpha  occ. eigenvalues --   -0.87340  -0.85466  -0.78789  -0.77318  -0.76420
 Alpha  occ. eigenvalues --   -0.76151  -0.72804  -0.63575  -0.62975  -0.62042
 Alpha  occ. eigenvalues --   -0.61313  -0.55431  -0.53684  -0.49089  -0.48737
 Alpha  occ. eigenvalues --   -0.48090  -0.46674  -0.45577  -0.44667  -0.44350
 Alpha  occ. eigenvalues --   -0.43649  -0.41058  -0.38890  -0.38845  -0.37916
 Alpha  occ. eigenvalues --   -0.36769  -0.36298  -0.35621  -0.32381  -0.31462
 Alpha  occ. eigenvalues --   -0.29105  -0.27771  -0.27024  -0.26784  -0.23551
 Alpha virt. eigenvalues --   -0.05498  -0.03366  -0.02452  -0.02063  -0.00639
 Alpha virt. eigenvalues --    0.00184   0.01012   0.01720   0.02297   0.02523
 Alpha virt. eigenvalues --    0.04066   0.04203   0.04566   0.04912   0.04990
 Alpha virt. eigenvalues --    0.05330   0.06188   0.06650   0.07020   0.07284
 Alpha virt. eigenvalues --    0.07831   0.08652   0.08794   0.08823   0.09198
 Alpha virt. eigenvalues --    0.09383   0.10070   0.11641   0.12046   0.12306
 Alpha virt. eigenvalues --    0.12718   0.12900   0.13586   0.13963   0.14094
 Alpha virt. eigenvalues --    0.14306   0.14962   0.15133   0.15312   0.15519
 Alpha virt. eigenvalues --    0.15901   0.16295   0.16447   0.17339   0.17627
 Alpha virt. eigenvalues --    0.19252   0.19401   0.19719   0.19875   0.20258
 Alpha virt. eigenvalues --    0.20730   0.21183   0.21440   0.21519   0.21723
 Alpha virt. eigenvalues --    0.22249   0.22302   0.23524   0.23741   0.23794
 Alpha virt. eigenvalues --    0.24368   0.24806   0.25493   0.25913   0.26462
 Alpha virt. eigenvalues --    0.27055   0.27245   0.27425   0.28021   0.29017
 Alpha virt. eigenvalues --    0.29719   0.30203   0.30810   0.32148   0.32517
 Alpha virt. eigenvalues --    0.32887   0.32950   0.33908   0.34738   0.35470
 Alpha virt. eigenvalues --    0.36159   0.38507   0.39448   0.42749   0.43640
 Alpha virt. eigenvalues --    0.50411   0.52313   0.53291   0.56182   0.59376
 Alpha virt. eigenvalues --    0.61510   0.61656   0.63773   0.63930   0.65172
 Alpha virt. eigenvalues --    0.66290   0.66536   0.66701   0.68754   0.69098
 Alpha virt. eigenvalues --    0.70010   0.70315   0.70518   0.70965   0.71427
 Alpha virt. eigenvalues --    0.72276   0.72706   0.73369   0.73618   0.73839
 Alpha virt. eigenvalues --    0.74729   0.75085   0.75879   0.77114   0.77850
 Alpha virt. eigenvalues --    0.79395   0.80397   0.80621   0.81319   0.81960
 Alpha virt. eigenvalues --    0.83219   0.85442   0.86287   0.86838   0.87372
 Alpha virt. eigenvalues --    0.89622   0.90517   0.90977   0.92330   0.93003
 Alpha virt. eigenvalues --    0.94602   0.94736   0.95379   0.95707   0.96265
 Alpha virt. eigenvalues --    0.97708   0.99442   1.00295   1.01728   1.07642
 Alpha virt. eigenvalues --    1.07769   1.10128   1.10671   1.12409   1.13671
 Alpha virt. eigenvalues --    1.15252   1.16229   1.17178   1.18416   1.20317
 Alpha virt. eigenvalues --    1.21619   1.22279   1.24278   1.24579   1.25482
 Alpha virt. eigenvalues --    1.28561   1.29215   1.32842   1.34515   1.38612
 Alpha virt. eigenvalues --    1.39227   1.40189   1.41997   1.42628   1.43306
 Alpha virt. eigenvalues --    1.44282   1.44794   1.45921   1.47090   1.47722
 Alpha virt. eigenvalues --    1.48254   1.49360   1.53559   1.55159   1.56259
 Alpha virt. eigenvalues --    1.58423   1.69101   1.78153   1.80654   1.81191
 Alpha virt. eigenvalues --    1.84691   1.85953   1.86101   1.87649   1.89718
 Alpha virt. eigenvalues --    1.93142   1.94519   1.96146   1.96327   1.97248
 Alpha virt. eigenvalues --    1.98123   2.06690   2.07341   2.08032   2.10327
 Alpha virt. eigenvalues --    2.10489   2.12684   2.12831   2.14033   2.15653
 Alpha virt. eigenvalues --    2.16975   2.17583   2.18455   2.19429   2.26681
 Alpha virt. eigenvalues --    2.27670   2.28234   2.29027   2.29577   2.33127
 Alpha virt. eigenvalues --    2.46528   2.47121   2.49823   2.53694   2.59012
 Alpha virt. eigenvalues --    2.60345   2.61895   2.62777   2.63169   2.63929
 Alpha virt. eigenvalues --    2.71683   2.72371   2.73403   2.73705   2.74866
 Alpha virt. eigenvalues --    2.75635   2.81800   2.82249   2.87869   2.94598
 Alpha virt. eigenvalues --    3.03532   3.15548   3.28254   3.36968   3.55142
 Alpha virt. eigenvalues --    4.18033   4.20435   4.22336   4.23257   4.23951
 Alpha virt. eigenvalues --    4.25404   4.31124   4.33995   4.38157   4.39214
 Alpha virt. eigenvalues --    4.39656   4.52650   4.61580   4.73078   4.88587
          Condensed to atoms (all electrons):
               1          2          3          4          5          6
     1  C    8.646084  -7.059899   1.146713   4.810628  -1.642030   0.725815
     2  C   -7.059899  25.100690  -2.460601 -14.739452   4.043607  -0.523545
     3  C    1.146713  -2.460601  16.012369  -4.764951   1.491610   0.210782
     4  C    4.810628 -14.739452  -4.764951  26.052962  -5.927292  -0.184681
     5  C   -1.642030   4.043607   1.491610  -5.927292   7.835384   0.596189
     6  C    0.725815  -0.523545   0.210782  -0.184681   0.596189   5.241835
     7  H    0.305275  -0.035045   0.008399  -0.003168   0.008003   0.021270
     8  H   -0.059660   0.340477  -0.094786   0.010221  -0.007129   0.009749
     9  H   -0.009846   0.034127  -0.040704   0.286236  -0.060598   0.005560
    10  H    0.008026  -0.006234   0.003349  -0.016119   0.294476   0.021505
    11  H   -0.004243   0.014042  -0.000220   0.008958  -0.005592   0.274921
    12  C   -0.787395   2.027407  -5.351742   1.114144  -0.438323  -0.218097
    13  C    0.035925  -0.339348   2.117410  -0.654989   0.034602  -0.004663
    14  C   -0.058287   0.134979  -2.908650   0.217853  -0.042632  -0.011243
    15  C    0.042758  -0.126812   0.079360   0.198637  -0.031884   0.004120
    16  C   -0.030760   0.108803   0.116525  -0.242603   0.036383  -0.001386
    17  C    0.018348   0.022984   0.017188  -0.023233  -0.007820   0.000248
    18  H   -0.000240   0.000923   0.001957  -0.000061   0.000009   0.000018
    19  C   -0.005814  -0.040121  -0.008001   0.062179   0.008473   0.000565
    20  H    0.000005  -0.000162   0.003025   0.001437   0.000024   0.000022
    21  C   -0.000426   0.004079  -0.087947  -0.002665   0.000614  -0.000046
    22  H    0.000001   0.000020  -0.000039  -0.000005  -0.000001   0.000000
    23  H   -0.000001  -0.000007  -0.000030   0.000006   0.000001   0.000000
    24  Cl  -0.000003   0.000009  -0.002809  -0.000017   0.000004  -0.000002
               7          8          9         10         11         12
     1  C    0.305275  -0.059660  -0.009846   0.008026  -0.004243  -0.787395
     2  C   -0.035045   0.340477   0.034127  -0.006234   0.014042   2.027407
     3  C    0.008399  -0.094786  -0.040704   0.003349  -0.000220  -5.351742
     4  C   -0.003168   0.010221   0.286236  -0.016119   0.008958   1.114144
     5  C    0.008003  -0.007129  -0.060598   0.294476  -0.005592  -0.438323
     6  C    0.021270   0.009749   0.005560   0.021505   0.274921  -0.218097
     7  H    0.531060  -0.004535   0.000015  -0.000156  -0.004735  -0.010018
     8  H   -0.004535   0.522616  -0.000142   0.000015  -0.000140   0.065311
     9  H    0.000015  -0.000142   0.524912  -0.004490  -0.000139   0.052795
    10  H   -0.000156   0.000015  -0.004490   0.529035  -0.004681  -0.009561
    11  H   -0.004735  -0.000140  -0.000139  -0.004681   0.534862   0.003624
    12  C   -0.010018   0.065311   0.052795  -0.009561   0.003624  10.100815
    13  C   -0.001231   0.009077   0.010022  -0.001099   0.000460  -1.008870
    14  C   -0.000199   0.010502   0.005939  -0.000176   0.000044   1.873001
    15  C    0.000013   0.000501  -0.000495  -0.000004  -0.000001  -0.470905
    16  C   -0.000005   0.000161   0.001931   0.000014  -0.000001  -0.676641
    17  C    0.000002  -0.000272   0.000028  -0.000001   0.000000   0.064537
    18  H    0.000000   0.000000   0.000000   0.000000   0.000000   0.001625
    19  C   -0.000001   0.000007  -0.000100   0.000002   0.000000   0.166337
    20  H    0.000000   0.000000   0.000000   0.000000   0.000000   0.000121
    21  C    0.000000   0.000046   0.000038   0.000000   0.000000  -0.174741
    22  H    0.000000   0.000000   0.000000   0.000000   0.000000  -0.000189
    23  H    0.000000   0.000000   0.000000   0.000000   0.000000  -0.000603
    24  Cl   0.000000   0.000000   0.000000   0.000000   0.000000  -0.011546
              13         14         15         16         17         18
     1  C    0.035925  -0.058287   0.042758  -0.030760   0.018348  -0.000240
     2  C   -0.339348   0.134979  -0.126812   0.108803   0.022984   0.000923
     3  C    2.117410  -2.908650   0.079360   0.116525   0.017188   0.001957
     4  C   -0.654989   0.217853   0.198637  -0.242603  -0.023233  -0.000061
     5  C    0.034602  -0.042632  -0.031884   0.036383  -0.007820   0.000009
     6  C   -0.004663  -0.011243   0.004120  -0.001386   0.000248   0.000018
     7  H   -0.001231  -0.000199   0.000013  -0.000005   0.000002   0.000000
     8  H    0.009077   0.010502   0.000501   0.000161  -0.000272   0.000000
     9  H    0.010022   0.005939  -0.000495   0.001931   0.000028   0.000000
    10  H   -0.001099  -0.000176  -0.000004   0.000014  -0.000001   0.000000
    11  H    0.000460   0.000044  -0.000001  -0.000001   0.000000   0.000000
    12  C   -1.008870   1.873001  -0.470905  -0.676641   0.064537   0.001625
    13  C    9.837514  -5.166456   0.436718   2.034233  -0.001858   0.025612
    14  C   -5.166456  16.436318  -2.813522  -4.112461   1.069559  -0.014932
    15  C    0.436718  -2.813522  25.728070 -15.049600  -7.766286   0.340829
    16  C    2.034233  -4.112461 -15.049600  26.242604   5.188900   0.023981
    17  C   -0.001858   1.069559  -7.766286   5.188900  10.483504  -0.087555
    18  H    0.025612  -0.014932   0.340829   0.023981  -0.087555   0.512290
    19  C   -0.534295   1.538089   5.354768  -8.040760  -2.948183  -0.008371
    20  H    0.035199  -0.026209   0.023898   0.351933  -0.009421  -0.000149
    21  C   -0.424740  -0.429139   0.438900   0.380070   0.014292   0.003139
    22  H   -0.002382  -0.016253  -0.023443  -0.019570   0.237535  -0.004627
    23  H   -0.000814  -0.020952  -0.022429  -0.016111   0.058949   0.000013
    24  Cl  -0.036880  -0.034299   0.064305   0.076216  -0.122224   0.001213
              19         20         21         22         23         24
     1  C   -0.005814   0.000005  -0.000426   0.000001  -0.000001  -0.000003
     2  C   -0.040121  -0.000162   0.004079   0.000020  -0.000007   0.000009
     3  C   -0.008001   0.003025  -0.087947  -0.000039  -0.000030  -0.002809
     4  C    0.062179   0.001437  -0.002665  -0.000005   0.000006  -0.000017
     5  C    0.008473   0.000024   0.000614  -0.000001   0.000001   0.000004
     6  C    0.000565   0.000022  -0.000046   0.000000   0.000000  -0.000002
     7  H   -0.000001   0.000000   0.000000   0.000000   0.000000   0.000000
     8  H    0.000007   0.000000   0.000046   0.000000   0.000000   0.000000
     9  H   -0.000100   0.000000   0.000038   0.000000   0.000000   0.000000
    10  H    0.000002   0.000000   0.000000   0.000000   0.000000   0.000000
    11  H    0.000000   0.000000   0.000000   0.000000   0.000000   0.000000
    12  C    0.166337   0.000121  -0.174741  -0.000189  -0.000603  -0.011546
    13  C   -0.534295   0.035199  -0.424740  -0.002382  -0.000814  -0.036880
    14  C    1.538089  -0.026209  -0.429139  -0.016253  -0.020952  -0.034299
    15  C    5.354768   0.023898   0.438900  -0.023443  -0.022429   0.064305
    16  C   -8.040760   0.351933   0.380070  -0.019570  -0.016111   0.076216
    17  C   -2.948183  -0.009421   0.014292   0.237535   0.058949  -0.122224
    18  H   -0.008371  -0.000149   0.003139  -0.004627   0.000013   0.001213
    19  C   10.541100  -0.096987   0.077115   0.056547   0.232576  -0.126073
    20  H   -0.096987   0.512324   0.003925   0.000013  -0.004637   0.001204
    21  C    0.077115   0.003925   5.967707   0.061552   0.063365  -0.074727
    22  H    0.056547   0.000013   0.061552   0.505367  -0.000158   0.002642
    23  H    0.232576  -0.004637   0.063365  -0.000158   0.505250   0.002561
    24  Cl  -0.126073   0.001204  -0.074727   0.002642   0.002561  17.013800
 Mulliken charges:
               1
     1  C   -0.080972
     2  C   -0.500922
     3  C    0.511794
     4  C   -0.204025
     5  C   -0.186078
     6  C   -0.168936
     7  H    0.185055
     8  H    0.197981
     9  H    0.194910
    10  H    0.186100
    11  H    0.182840
    12  C   -0.311087
    13  C   -0.399146
    14  C    0.369124
    15  C   -0.407497
    16  C   -0.371858
    17  C   -0.209222
    18  H    0.204328
    19  C   -0.229050
    20  H    0.204434
    21  C    0.179591
    22  H    0.202990
    23  H    0.203019
    24  Cl   0.246626
 Sum of Mulliken charges =   0.00000
 Mulliken charges with hydrogens summed into heavy atoms:
               1
     1  C    0.104083
     2  C   -0.302941
     3  C    0.511794
     4  C   -0.009115
     5  C    0.000022
     6  C    0.013904
    12  C   -0.311087
    13  C   -0.399146
    14  C    0.369124
    15  C   -0.203169
    16  C   -0.167424
    17  C   -0.006232
    19  C   -0.026031
    21  C    0.179591
    24  Cl   0.246626
 Electronic spatial extent (au):  <R**2>=           6941.3958
 Charge=              0.0000 electrons
 Dipole moment (field-independent basis, Debye):
    X=              2.0618    Y=              0.0035    Z=             -0.0250  Tot=              2.0620
 Quadrupole moment (field-independent basis, Debye-Ang):
   XX=            -89.4978   YY=            -83.2295   ZZ=           -100.4268
   XY=              0.0252   XZ=             -0.3278   YZ=              0.1480
 Traceless Quadrupole moment (field-independent basis, Debye-Ang):
   XX=              1.5536   YY=              7.8219   ZZ=             -9.3754
   XY=              0.0252   XZ=             -0.3278   YZ=              0.1480
 Octapole moment (field-independent basis, Debye-Ang**2):
  XXX=            119.9945  YYY=              0.1729  ZZZ=             -0.0910  XYY=             -4.7425
  XXY=              0.0008  XXZ=             -2.6238  XZZ=            -19.1626  YZZ=             -0.0255
  YYZ=              0.0173  XYZ=            -12.2284
 Hexadecapole moment (field-independent basis, Debye-Ang**3):
 XXXX=          -8487.9515 YYYY=           -553.1828 ZZZZ=           -146.1324 XXXY=             -1.5463
 XXXZ=            -20.0460 YYYX=              0.2972 YYYZ=              1.0852 ZZZX=             -0.0583
 ZZZY=              0.2115 XXYY=          -1443.3472 XXZZ=          -1618.6975 YYZZ=           -133.5269
 XXYZ=            -22.5460 YYXZ=             -0.3013 ZZXY=              0.2089
 N-N= 8.428621682933D+02 E-N=-4.025193515928D+03  KE= 9.919274316586D+02
 Calling FoFJK, ICntrl=      2127 FMM=F ISym2X=0 I1Cent= 0 IOpClX= 0 NMat=1 NMatS=1 NMatT=0.
 ***** Axes restored to original set *****
 -------------------------------------------------------------------
 Center     Atomic                   Forces (Hartrees/Bohr)
 Number     Number              X              Y              Z
 -------------------------------------------------------------------
      1        6           0.000012966   -0.002374933    0.002665140
      2        6          -0.003560582    0.000724478    0.008270189
      3        6           0.061729385   -0.010253000    0.015238395
      4        6          -0.000311735    0.009036440   -0.011495444
      5        6          -0.000933141   -0.000781453   -0.001965973
      6        6          -0.005531878    0.000979062   -0.000790284
      7        1           0.002510332    0.000720991   -0.003697846
      8        1          -0.002238791    0.002738939   -0.005377424
      9        1          -0.001403689   -0.001145220    0.003761254
     10        1           0.003084511   -0.002050368    0.003134532
     11        1           0.004347874    0.000145634   -0.000142679
     12        6          -0.088343724    0.002212124   -0.010579548
     13        6           0.089301971   -0.000659282    0.000521427
     14        6          -0.064304852    0.004442730    0.001559750
     15        6           0.002916989   -0.002976607    0.005381650
     16        6           0.002976963   -0.002756987   -0.007552124
     17        6           0.002245271    0.000690178    0.008063269
     18        1           0.002775842    0.000260340   -0.004634098
     19        6           0.002207381    0.000835122   -0.007547823
     20        1           0.003064671    0.000147859    0.005346619
     21        6          -0.003852483   -0.000339854   -0.000102802
     22        1          -0.002218974    0.000249847   -0.004930603
     23        1          -0.002260571    0.000238654    0.004857387
     24       17          -0.002213736   -0.000084694    0.000017035
 -------------------------------------------------------------------
 Cartesian Forces:  Max     0.089301971 RMS     0.018659157

 GradGradGradGradGradGradGradGradGradGradGradGradGradGradGradGradGradGrad
 Berny optimization.
 FormGI is forming the generalized inverse of G from B-inverse, IUseBI=4.
 GSVD:  received Info=                   1 from GESDD.
 Internal  Forces:  Max     0.058664593 RMS     0.008462050
 Search for a local minimum.
 Step number   1 out of a maximum of  127
 All quantities printed in internal units (Hartrees-Bohrs-Radians)
 Mixed Optimization -- RFO/linear search
 Second derivative matrix not updated -- first step.
 ITU=  0
     Eigenvalues ---    0.00230   0.00230   0.00230   0.01530   0.01651
     Eigenvalues ---    0.02077   0.02091   0.02104   0.02111   0.02111
     Eigenvalues ---    0.02116   0.02117   0.02118   0.02119   0.02122
     Eigenvalues ---    0.02124   0.02126   0.02128   0.02132   0.02148
     Eigenvalues ---    0.02166   0.03986   0.04701   0.15990   0.15994
     Eigenvalues ---    0.15995   0.15996   0.16000   0.16000   0.16000
     Eigenvalues ---    0.16000   0.16000   0.21985   0.21994   0.22000
     Eigenvalues ---    0.22981   0.23468   0.23992   0.24980   0.24994
     Eigenvalues ---    0.25000   0.28340   0.28403   0.29539   0.34254
     Eigenvalues ---    0.34325   0.34394   0.34399   0.34409   0.34412
     Eigenvalues ---    0.34413   0.34464   0.34556   0.41502   0.41751
     Eigenvalues ---    0.42026   0.42205   0.45388   0.45833   0.45928
     Eigenvalues ---    0.45974   0.45996   0.46091   0.46204   0.46783
     Eigenvalues ---    1.05241
 RFO step:  Lambda=-2.52937306D-02 EMin= 2.30000000D-03
 Linear search not attempted -- first point.
 Iteration  1 RMS(Cart)=  0.09361783 RMS(Int)=  0.00107143
 Iteration  2 RMS(Cart)=  0.00253244 RMS(Int)=  0.00006649
 Iteration  3 RMS(Cart)=  0.00000650 RMS(Int)=  0.00006645
 Iteration  4 RMS(Cart)=  0.00000000 RMS(Int)=  0.00006645
 Variable       Old X    -DE/DX   Delta X   Delta X   Delta X     New X
                                 (Linear)    (Quad)   (Total)
    R1        2.64067  -0.00164   0.00000  -0.00347  -0.00347   2.63720
    R2        2.64223   0.00155   0.00000   0.00274   0.00277   2.64499
    R3        2.06640  -0.00446   0.00000  -0.01207  -0.01207   2.05433
    R4        2.65214   0.00183   0.00000   0.00422   0.00419   2.65633
    R5        2.06903  -0.00631   0.00000  -0.01715  -0.01715   2.05188
    R6        2.62850   0.00673   0.00000   0.01400   0.01397   2.64247
    R7        2.91400  -0.05799   0.00000  -0.18787  -0.18787   2.72613
    R8        2.64421  -0.00195   0.00000  -0.00394  -0.00394   2.64027
    R9        2.06401  -0.00411   0.00000  -0.01109  -0.01109   2.05292
   R10        2.64263   0.00004   0.00000  -0.00028  -0.00025   2.64238
   R11        2.06671  -0.00476   0.00000  -0.01288  -0.01288   2.05382
   R12        2.06646  -0.00435   0.00000  -0.01177  -0.01177   2.05469
   R13        2.26611   0.03064   0.00000   0.02843   0.02843   2.29454
   R14        2.91266  -0.05866   0.00000  -0.18966  -0.18966   2.72301
   R15        2.64178   0.00347   0.00000   0.00742   0.00742   2.64920
   R16        2.63832   0.00459   0.00000   0.00970   0.00969   2.64802
   R17        2.64183  -0.00304   0.00000  -0.00630  -0.00630   2.63554
   R18        2.06554  -0.00540   0.00000  -0.01460  -0.01460   2.05094
   R19        2.64238  -0.00306   0.00000  -0.00628  -0.00629   2.63609
   R20        2.06786  -0.00616   0.00000  -0.01672  -0.01672   2.05113
   R21        2.64009  -0.00034   0.00000  -0.00100  -0.00099   2.63910
   R22        2.06662  -0.00538   0.00000  -0.01457  -0.01457   2.05205
   R23        2.63983  -0.00038   0.00000  -0.00105  -0.00104   2.63879
   R24        2.06639  -0.00534   0.00000  -0.01445  -0.01445   2.05194
   R25        3.32592  -0.00221   0.00000  -0.00690  -0.00690   3.31902
    A1        2.09366   0.00082   0.00000   0.00247   0.00244   2.09610
    A2        2.09504  -0.00088   0.00000  -0.00378  -0.00376   2.09128
    A3        2.09447   0.00006   0.00000   0.00132   0.00133   2.09581
    A4        2.09099  -0.00058   0.00000  -0.00147  -0.00163   2.08936
    A5        2.09389   0.00157   0.00000   0.00785   0.00784   2.10173
    A6        2.09796  -0.00097   0.00000  -0.00588  -0.00589   2.09207
    A7        2.09733   0.00000   0.00000   0.00180   0.00166   2.09900
    A8        2.03358   0.00983   0.00000   0.03492   0.03497   2.06855
    A9        2.15206  -0.00983   0.00000  -0.03653  -0.03649   2.11557
   A10        2.09293  -0.00153   0.00000  -0.00468  -0.00485   2.08808
   A11        2.09462   0.00011   0.00000  -0.00090  -0.00092   2.09370
   A12        2.09507   0.00144   0.00000   0.00627   0.00625   2.10132
   A13        2.09517   0.00117   0.00000   0.00448   0.00444   2.09961
   A14        2.09387  -0.00134   0.00000  -0.00633  -0.00631   2.08756
   A15        2.09414   0.00017   0.00000   0.00185   0.00187   2.09601
   A16        2.09442   0.00020   0.00000  -0.00059  -0.00060   2.09382
   A17        2.09448  -0.00002   0.00000   0.00074   0.00074   2.09522
   A18        2.09428  -0.00018   0.00000  -0.00015  -0.00014   2.09414
   A19        2.09307   0.00072   0.00000   0.00215   0.00211   2.09518
   A20        2.09164   0.00046   0.00000   0.00122   0.00118   2.09283
   A21        2.09779  -0.00115   0.00000  -0.00272  -0.00280   2.09499
   A22        2.09144   0.00066   0.00000   0.00349   0.00344   2.09488
   A23        2.09611  -0.00024   0.00000  -0.00116  -0.00117   2.09494
   A24        2.09540  -0.00041   0.00000  -0.00206  -0.00208   2.09332
   A25        2.09320   0.00028   0.00000   0.00216   0.00211   2.09531
   A26        2.09628  -0.00015   0.00000  -0.00101  -0.00102   2.09526
   A27        2.09347  -0.00013   0.00000  -0.00089  -0.00091   2.09257
   A28        2.09342  -0.00205   0.00000  -0.00874  -0.00875   2.08467
   A29        2.09403   0.00158   0.00000   0.00737   0.00738   2.10141
   A30        2.09573   0.00047   0.00000   0.00136   0.00137   2.09710
   A31        2.09222  -0.00189   0.00000  -0.00789  -0.00790   2.08433
   A32        2.09489   0.00144   0.00000   0.00660   0.00660   2.10149
   A33        2.09607   0.00045   0.00000   0.00129   0.00130   2.09736
   A34        2.09766   0.00417   0.00000   0.01439   0.01439   2.11206
   A35        2.09278  -0.00212   0.00000  -0.00732  -0.00732   2.08546
   A36        2.09274  -0.00205   0.00000  -0.00708  -0.00708   2.08566
   A37        3.17054  -0.00308   0.00000  -0.04303  -0.04307   3.12747
   A38        3.14159   0.00129   0.00000   0.04838   0.04835   3.18993
   A39        3.13228   0.00088   0.00000   0.01330   0.01309   3.14537
   A40        3.14159  -0.00003   0.00000   0.00206   0.00228   3.14386
    D1        0.02934  -0.00071   0.00000  -0.01661  -0.01662   0.01271
    D2       -3.14082   0.00020   0.00000   0.00320   0.00322  -3.13760
    D3       -3.10907  -0.00086   0.00000  -0.01917  -0.01918  -3.12824
    D4        0.00396   0.00005   0.00000   0.00064   0.00066   0.00462
    D5        0.00343   0.00002   0.00000   0.00016   0.00018   0.00361
    D6       -3.13978   0.00004   0.00000   0.00076   0.00074  -3.13904
    D7       -3.14135   0.00016   0.00000   0.00271   0.00273  -3.13862
    D8       -0.00137   0.00018   0.00000   0.00330   0.00329   0.00192
    D9       -0.06456   0.00154   0.00000   0.03462   0.03460  -0.02997
   D10        3.09824   0.00134   0.00000   0.02515   0.02498   3.12322
   D11        3.10566   0.00058   0.00000   0.01454   0.01464   3.12030
   D12       -0.01472   0.00039   0.00000   0.00507   0.00502  -0.00969
   D13        0.06660  -0.00163   0.00000  -0.03602  -0.03593   0.03067
   D14       -3.11087  -0.00060   0.00000  -0.01369  -0.01365  -3.12452
   D15       -3.09770  -0.00116   0.00000  -0.02495  -0.02514  -3.12284
   D16        0.00801  -0.00013   0.00000  -0.00261  -0.00285   0.00516
   D17       -0.42138   0.00103   0.00000   0.02593   0.02591  -0.39546
   D18        2.76189   0.00007   0.00000   0.00252   0.00276   2.76464
   D19        2.74721   0.00006   0.00000   0.00206   0.00183   2.74904
   D20       -0.35271  -0.00090   0.00000  -0.02135  -0.02133  -0.37404
   D21       -0.03360   0.00091   0.00000   0.01944   0.01937  -0.01423
   D22        3.10669   0.00094   0.00000   0.02031   0.02027   3.12696
   D23       -3.13930  -0.00009   0.00000  -0.00275  -0.00287   3.14102
   D24        0.00098  -0.00007   0.00000  -0.00188  -0.00197  -0.00098
   D25       -0.00147  -0.00007   0.00000  -0.00139  -0.00142  -0.00289
   D26       -3.14144  -0.00009   0.00000  -0.00199  -0.00198   3.13976
   D27        3.14144  -0.00010   0.00000  -0.00224  -0.00232   3.13911
   D28        0.00146  -0.00011   0.00000  -0.00284  -0.00288  -0.00142
   D29       -3.13968   0.00015   0.00000   0.00163   0.00158  -3.13811
   D30        0.02538  -0.00045   0.00000  -0.01144  -0.01151   0.01387
   D31       -0.03799   0.00089   0.00000   0.02040   0.02044  -0.01755
   D32        3.12707   0.00029   0.00000   0.00732   0.00735   3.13443
   D33        3.14019  -0.00017   0.00000  -0.00218  -0.00212   3.13807
   D34       -0.02477   0.00040   0.00000   0.01028   0.01034  -0.01443
   D35        0.03847  -0.00092   0.00000  -0.02094  -0.02099   0.01748
   D36       -3.12649  -0.00035   0.00000  -0.00849  -0.00852  -3.13501
   D37        0.02003  -0.00044   0.00000  -0.01029  -0.01033   0.00970
   D38       -3.12378  -0.00046   0.00000  -0.01032  -0.01035  -3.13412
   D39        3.13816   0.00015   0.00000   0.00279   0.00276   3.14092
   D40       -0.00565   0.00014   0.00000   0.00276   0.00274  -0.00290
   D41       -0.02094   0.00050   0.00000   0.01135   0.01138  -0.00956
   D42        3.12361   0.00046   0.00000   0.01025   0.01027   3.13388
   D43       -3.13921  -0.00007   0.00000  -0.00108  -0.00106  -3.14027
   D44        0.00535  -0.00011   0.00000  -0.00218  -0.00217   0.00317
   D45       -0.00265   0.00006   0.00000   0.00085   0.00083  -0.00182
   D46        3.13963   0.00006   0.00000   0.00135   0.00135   3.14098
   D47        3.14116   0.00007   0.00000   0.00087   0.00084  -3.14119
   D48        0.00025   0.00007   0.00000   0.00137   0.00136   0.00161
   D49        0.00308  -0.00008   0.00000  -0.00135  -0.00134   0.00175
   D50       -3.13920  -0.00008   0.00000  -0.00185  -0.00186  -3.14105
   D51       -3.14147  -0.00004   0.00000  -0.00024  -0.00022   3.14149
   D52       -0.00057  -0.00004   0.00000  -0.00074  -0.00074  -0.00131
         Item               Value     Threshold  Converged?
 Maximum Force            0.058665     0.000450     NO 
 RMS     Force            0.008462     0.000300     NO 
 Maximum Displacement     0.319379     0.001800     NO 
 RMS     Displacement     0.094889     0.001200     NO 
 Predicted change in Energy=-1.379352D-02
 GradGradGradGradGradGradGradGradGradGradGradGradGradGradGradGradGradGrad

                          Input orientation:                          
 ---------------------------------------------------------------------
 Center     Atomic      Atomic             Coordinates (Angstroms)
 Number     Number       Type             X           Y           Z
 ---------------------------------------------------------------------
      1          6           0       -5.188913   -0.949550    1.167531
      2          6           0       -3.795201   -0.962237    1.097158
      3          6           0       -3.151808   -0.493071   -0.061219
      4          6           0       -3.903064   -0.048613   -1.153654
      5          6           0       -5.297965   -0.038430   -1.074663
      6          6           0       -5.942279   -0.485750    0.082908
      7          1           0       -5.688001   -1.300343    2.067340
      8          1           0       -3.205734   -1.324376    1.934034
      9          1           0       -3.400851    0.298058   -2.052417
     10          1           0       -5.881007    0.319972   -1.918950
     11          1           0       -7.028036   -0.474001    0.139520
     12          6           0       -1.709657   -0.496386   -0.097380
     13          6           0       -0.495526   -0.502306   -0.110542
     14          6           0        0.944380   -0.512186   -0.056531
     15          6           0        1.600372   -0.504550    1.182392
     16          6           0        1.688219   -0.503919   -1.244047
     17          6           0        2.994064   -0.509907    1.234214
     18          1           0        1.024152   -0.504220    2.102101
     19          6           0        3.082312   -0.509189   -1.195178
     20          1           0        1.180528   -0.503646   -2.203405
     21          6           0        3.725263   -0.511100    0.044383
     22          1           0        3.508416   -0.511042    2.190571
     23          1           0        3.664366   -0.510055   -2.111838
     24         17           0        5.480438   -0.516910    0.108256
 ---------------------------------------------------------------------
                    Distance matrix (angstroms):
                    1          2          3          4          5
     1  C    0.000000
     2  C    1.395545   0.000000
     3  C    2.422395   1.405670   0.000000
     4  C    2.802320   2.431563   1.398336   0.000000
     5  C    2.422698   2.797950   2.416559   1.397173   0.000000
     6  C    1.399670   2.421918   2.794200   2.424577   1.398287
     7  H    1.087107   2.153662   3.408039   3.889426   3.408333
     8  H    2.158940   1.085807   2.162177   3.412867   3.883728
     9  H    3.888671   3.415213   2.157030   1.086358   2.160618
    10  H    3.408379   3.884785   3.400108   2.152624   1.086835
    11  H    2.159936   3.406856   3.881469   3.408622   2.158033
    12  C    3.729689   2.448149   1.442608   2.475329   3.747101
    13  C    4.884811   3.543717   2.656756   3.592385   4.920176
    14  C    6.269522   4.898691   4.096235   4.991622   6.342548
    15  C    6.803869   5.415621   4.912221   5.996065   7.273144
    16  C    7.301318   5.979899   4.982476   5.610519   7.003724
    17  C    8.195050   6.805697   6.280938   7.313350   8.620380
    18  H    6.298724   4.944275   4.703055   5.923258   7.090696
    19  C    8.613332   7.263625   6.336433   7.000667   8.394354
    20  H    7.220237   5.988481   4.833033   5.210752   6.592523
    21  C    8.995345   7.607183   6.877905   7.735668   9.104632
    22  H    8.768263   7.398781   7.030610   8.144183   9.404120
    23  H    9.451347   8.133096   7.117974   7.641795   9.034464
    24  Cl  10.730532   9.338829   8.633943   9.479548  10.853673
                    6          7          8          9         10
     6  C    0.000000
     7  H    2.160136   0.000000
     8  H    3.408612   2.485960   0.000000
     9  H    3.410693   4.975775   4.308382   0.000000
    10  H    2.158791   4.307341   4.970559   2.483841   0.000000
    11  H    1.087295   2.488981   4.307367   4.307799   2.486638
    12  C    4.236473   4.599954   2.655269   2.704339   4.624362
    13  C    5.450212   5.686988   3.493038   3.585020   5.740199
    14  C    6.888121   7.008602   4.673912   4.849854   7.123693
    15  C    7.622388   7.384904   4.933126   6.010025   8.140589
    16  C    7.745040   8.124543   5.892718   5.214908   7.643787
    17  C    9.010234   8.757691   6.292107   7.235308   9.455053
    18  H    7.253182   6.759292   4.311942   6.122445   8.033018
    19  C    9.114675   9.390865   7.070787   6.589227   9.030639
    20  H    7.480770   8.127157   6.085335   4.653446   7.115092
    21  C    9.667652   9.660476   7.229863   7.472135   9.840009
    22  H    9.682898   9.231050   6.768097   8.148347  10.282997
    23  H    9.854193  10.274086   8.014391   7.111530   9.583334
    24  Cl  11.422788  11.365994   8.912635   9.176600  11.571187
                   11         12         13         14         15
    11  H    0.000000
    12  C    5.323699   0.000000
    13  C    6.537355   1.214216   0.000000
    14  C    7.974917   2.654398   1.440953   0.000000
    15  C    8.691256   3.548827   2.462615   1.401896   0.000000
    16  C    8.825432   3.586149   2.460402   1.401271   2.428028
    17  C   10.081772   4.888590   3.739742   2.422237   1.394666
    18  H    8.287965   3.508774   2.684254   2.160120   1.085309
    19  C   10.198127   4.916126   3.738638   2.422247   2.801608
    20  H    8.536433   3.576110   2.681275   2.159840   3.411729
    21  C   10.753783   5.436788   4.223641   2.782713   2.410450
    22  H   10.734291   5.697651   4.618090   3.409362   2.158032
    23  H   10.926910   5.739194   4.616270   3.409195   3.887422
    24  Cl  12.508587   7.193065   5.979987   4.539053   4.026020
                   16         17         18         19         20
    16  C    0.000000
    17  C    2.801257   0.000000
    18  H    3.411406   2.152629   0.000000
    19  C    1.394959   2.430995   3.886914   0.000000
    20  H    1.085412   3.886667   4.308346   2.152518   0.000000
    21  C    2.410322   1.396549   3.395622   1.396389   3.395333
    22  H    3.887128   1.085900   2.485848   3.412457   4.972539
    23  H    2.158299   3.412531   4.972730   1.085841   2.485533
    24  Cl   4.026142   2.729448   4.882014   2.729471   4.881925
                   21         22         23         24
    21  C    0.000000
    22  H    2.157115   0.000000
    23  H    2.157081   4.305234   0.000000
    24  Cl   1.756347   2.867915   2.868272   0.000000
 Stoichiometry    C14H9Cl
 Framework group  C1[X(C14H9Cl)]
 Deg. of freedom    66
 Full point group                 C1      NOp   1
 Largest Abelian subgroup         C1      NOp   1
 Largest concise Abelian subgroup C1      NOp   1
                         Standard orientation:                         
 ---------------------------------------------------------------------
 Center     Atomic      Atomic             Coordinates (Angstroms)
 Number     Number       Type             X           Y           Z
 ---------------------------------------------------------------------
      1          6           0        5.042299   -1.250281    0.224305
      2          6           0        3.648924   -1.176141    0.247889
      3          6           0        3.012519    0.053896    0.007252
      4          6           0        3.770349    1.207005   -0.219416
      5          6           0        5.164863    1.123921   -0.242184
      6          6           0        5.802251   -0.101163   -0.022836
      7          1           0        5.535995   -2.203147    0.397830
      8          1           0        3.054365   -2.063552    0.442766
      9          1           0        3.273511    2.158074   -0.389099
     10          1           0        5.753025    2.017929   -0.431989
     11          1           0        6.887741   -0.160320   -0.043382
     12          6           0        1.570561    0.096500    0.015031
     13          6           0        0.356499    0.114808    0.021354
     14          6           0       -1.083678    0.067632    0.018379
     15          6           0       -1.745778   -1.143547   -0.226532
     16          6           0       -1.821600    1.238896    0.235570
     17          6           0       -3.139719   -1.187958   -0.233452
     18          1           0       -1.174124   -2.049386   -0.401350
     19          6           0       -3.215927    1.197403    0.229127
     20          1           0       -1.309163    2.177953    0.419145
     21          6           0       -3.865014   -0.016295   -0.006514
     22          1           0       -3.658805   -2.124197   -0.415619
     23          1           0       -3.793432    2.100177    0.403880
     24         17           0       -5.620494   -0.070682   -0.015883
 ---------------------------------------------------------------------
 Rotational constants (GHZ):      2.8152261      0.1538681      0.1464517
 Standard basis: 6-31+G(d) (6D, 7F)
 There are   307 symmetry adapted cartesian basis functions of A   symmetry.
 There are   307 symmetry adapted basis functions of A   symmetry.
   307 basis functions,   540 primitive gaussians,   307 cartesian basis functions
    55 alpha electrons       55 beta electrons
       nuclear repulsion energy       852.5306760965 Hartrees.
 NAtoms=   24 NActive=   24 NUniq=   24 SFac= 1.00D+00 NAtFMM=   60 NAOKFM=F Big=F
 Integral buffers will be    131072 words long.
 Raffenetti 2 integral format.
 Two-electron integral symmetry is turned on.
 Nuclear repulsion after empirical dispersion term =      852.5143025276 Hartrees.
 One-electron integrals computed using PRISM.
 NBasis=   307 RedAO= T EigKep=  2.37D-06  NBF=   307
 NBsUse=   303 1.00D-06 EigRej=  9.42D-07 NBFU=   303
 Initial guess from the checkpoint file:  "D:\machine learning\molecule_15.chk"
 B after Tr=     0.000000    0.000000    0.000000
         Rot=    1.000000    0.000664    0.000339   -0.000192 Ang=   0.09 deg.
 ExpMin= 4.38D-02 ExpMax= 2.52D+04 ExpMxC= 3.78D+03 IAcc=2 IRadAn=         4 AccDes= 0.00D+00
 Harris functional with IExCor=  402 and IRadAn=       4 diagonalized for initial guess.
 HarFok:  IExCor=  402 AccDes= 0.00D+00 IRadAn=         4 IDoV= 1 UseB2=F ITyADJ=14
 ICtDFT=  3500011 ScaDFX=  1.000000  1.000000  1.000000  1.000000
 FoFCou: FMM=F IPFlag=           0 FMFlag=      100000 FMFlg1=           0
         NFxFlg=           0 DoJE=T BraDBF=F KetDBF=T FulRan=T
         wScrn=  0.000000 ICntrl=     500 IOpCl=  0 I1Cent=   200000004 NGrid=           0
         NMat0=    1 NMatS0=      1 NMatT0=    0 NMatD0=    1 NMtDS0=    0 NMtDT0=    0
 Petite list used in FoFCou.
 Requested convergence on RMS density matrix=1.00D-08 within 128 cycles.
 Requested convergence on MAX density matrix=1.00D-06.
 Requested convergence on             energy=1.00D-06.
 No special actions if energy rises.
 SCF Done:  E(RB3LYP) =  -999.093673108     A.U. after   14 cycles
            NFock= 14  Conv=0.97D-08     -V/T= 2.0068
 Calling FoFJK, ICntrl=      2127 FMM=F ISym2X=0 I1Cent= 0 IOpClX= 0 NMat=1 NMatS=1 NMatT=0.
 ***** Axes restored to original set *****
 -------------------------------------------------------------------
 Center     Atomic                   Forces (Hartrees/Bohr)
 Number     Number              X              Y              Z
 -------------------------------------------------------------------
      1        6           0.001003500   -0.000434011   -0.000112954
      2        6          -0.007302076    0.001040118    0.002070378
      3        6           0.021080517   -0.004383140    0.003944825
      4        6          -0.007177183    0.003264222   -0.003750681
      5        6           0.001207250   -0.000319516   -0.000846538
      6        6          -0.000980357    0.000172704    0.000156410
      7        1           0.000049308   -0.000205449   -0.000172305
      8        1           0.000570342    0.000458086   -0.000361839
      9        1           0.000394892   -0.000019130    0.000662945
     10        1          -0.000141593   -0.000203887   -0.000075366
     11        1           0.000259037    0.000001423    0.000033205
     12        6          -0.013494364    0.000641242   -0.002194528
     13        6           0.012970084   -0.000631275    0.002805726
     14        6          -0.021392860    0.002438090   -0.002449931
     15        6           0.006721184   -0.001569489    0.001907737
     16        6           0.007752466   -0.001149530   -0.001537865
     17        6          -0.000531580    0.000323750    0.002068087
     18        1          -0.000402016    0.000155977   -0.000265860
     19        6          -0.000384753    0.000422593   -0.002124458
     20        1          -0.000398767    0.000076353    0.000306184
     21        6          -0.000787645   -0.000239375   -0.000092260
     22        1           0.000221362    0.000099224   -0.000528391
     23        1           0.000245218    0.000077146    0.000536143
     24       17           0.000518035   -0.000016127    0.000021332
 -------------------------------------------------------------------
 Cartesian Forces:  Max     0.021392860 RMS     0.004684796

 GradGradGradGradGradGradGradGradGradGradGradGradGradGradGradGradGradGrad
 Berny optimization.
 Using GEDIIS/GDIIS optimizer.
 FormGI is forming the generalized inverse of G from B-inverse, IUseBI=4.
 Internal  Forces:  Max     0.008923442 RMS     0.001942156
 Search for a local minimum.
 Step number   2 out of a maximum of  127
 All quantities printed in internal units (Hartrees-Bohrs-Radians)
 Mixed Optimization -- RFO/linear search
 Update second derivatives using D2CorX and points    1    2
 DE= -1.54D-02 DEPred=-1.38D-02 R= 1.12D+00
 TightC=F SS=  1.41D+00  RLast= 3.01D-01 DXNew= 5.0454D-01 9.0330D-01
 Trust test= 1.12D+00 RLast= 3.01D-01 DXMaxT set to 5.05D-01
 ITU=  1  0
 Use linear search instead of GDIIS.
     Eigenvalues ---    0.00230   0.00230   0.00234   0.01514   0.01651
     Eigenvalues ---    0.02077   0.02092   0.02104   0.02111   0.02112
     Eigenvalues ---    0.02116   0.02117   0.02118   0.02119   0.02122
     Eigenvalues ---    0.02124   0.02126   0.02128   0.02132   0.02149
     Eigenvalues ---    0.02166   0.03938   0.04751   0.15943   0.15999
     Eigenvalues ---    0.15999   0.16000   0.16000   0.16000   0.16000
     Eigenvalues ---    0.16000   0.16005   0.21347   0.21999   0.22003
     Eigenvalues ---    0.22004   0.23211   0.23831   0.24813   0.25000
     Eigenvalues ---    0.25008   0.27934   0.28403   0.29584   0.34267
     Eigenvalues ---    0.34339   0.34395   0.34403   0.34410   0.34412
     Eigenvalues ---    0.34440   0.34528   0.34566   0.41554   0.41785
     Eigenvalues ---    0.42087   0.42433   0.45411   0.45827   0.45896
     Eigenvalues ---    0.45968   0.46030   0.46102   0.46328   0.46861
     Eigenvalues ---    1.04609
 RFO step:  Lambda=-4.08284559D-03 EMin= 2.29961233D-03
 Quartic linear search produced a step of  0.14303.
 Maximum step size (   0.505) exceeded in Quadratic search.
    -- Step size scaled by   0.736
 Iteration  1 RMS(Cart)=  0.19535821 RMS(Int)=  0.02974598
 Iteration  2 RMS(Cart)=  0.19009743 RMS(Int)=  0.01188157
 Iteration  3 RMS(Cart)=  0.10575651 RMS(Int)=  0.00185395
 Iteration  4 RMS(Cart)=  0.00475598 RMS(Int)=  0.00073257
 Iteration  5 RMS(Cart)=  0.00000162 RMS(Int)=  0.00073257
 Iteration  6 RMS(Cart)=  0.00000001 RMS(Int)=  0.00073257
 Variable       Old X    -DE/DX   Delta X   Delta X   Delta X     New X
                                 (Linear)    (Quad)   (Total)
    R1        2.63720  -0.00057  -0.00050  -0.00116  -0.00166   2.63554
    R2        2.64499   0.00019   0.00040  -0.00001   0.00038   2.64537
    R3        2.05433  -0.00010  -0.00173  -0.00033  -0.00205   2.05228
    R4        2.65633   0.00379   0.00060   0.00743   0.00804   2.66437
    R5        2.05188  -0.00012  -0.00245  -0.00042  -0.00287   2.04900
    R6        2.64247   0.00717   0.00200   0.01332   0.01533   2.65781
    R7        2.72613  -0.00892  -0.02687  -0.02649  -0.05340   2.67274
    R8        2.64027  -0.00089  -0.00056  -0.00161  -0.00217   2.63810
    R9        2.05292  -0.00037  -0.00159  -0.00098  -0.00257   2.05035
   R10        2.64238   0.00012  -0.00004  -0.00010  -0.00015   2.64223
   R11        2.05382   0.00007  -0.00184   0.00007  -0.00177   2.05205
   R12        2.05469  -0.00026  -0.00168  -0.00071  -0.00239   2.05230
   R13        2.29454   0.00452   0.00407   0.00434   0.00838   2.30292
   R14        2.72301  -0.00852  -0.02713  -0.02526  -0.05233   2.67068
   R15        2.64920   0.00528   0.00106   0.01003   0.01110   2.66030
   R16        2.64802   0.00588   0.00139   0.01111   0.01250   2.66052
   R17        2.63554  -0.00035  -0.00090  -0.00073  -0.00163   2.63390
   R18        2.05094  -0.00001  -0.00209  -0.00014  -0.00222   2.04871
   R19        2.63609  -0.00038  -0.00090  -0.00076  -0.00166   2.63443
   R20        2.05113  -0.00008  -0.00239  -0.00033  -0.00272   2.04841
   R21        2.63910   0.00025  -0.00014   0.00010  -0.00004   2.63906
   R22        2.05205  -0.00036  -0.00208  -0.00098  -0.00306   2.04899
   R23        2.63879   0.00015  -0.00015  -0.00006  -0.00021   2.63858
   R24        2.05194  -0.00032  -0.00207  -0.00088  -0.00295   2.04899
   R25        3.31902   0.00052  -0.00099   0.00144   0.00045   3.31947
    A1        2.09610   0.00091   0.00035   0.00213   0.00246   2.09855
    A2        2.09128  -0.00047  -0.00054  -0.00107  -0.00160   2.08968
    A3        2.09581  -0.00044   0.00019  -0.00106  -0.00086   2.09495
    A4        2.08936   0.00161  -0.00023   0.00631   0.00606   2.09542
    A5        2.10173  -0.00003   0.00112   0.00066   0.00177   2.10349
    A6        2.09207  -0.00157  -0.00084  -0.00694  -0.00780   2.08427
    A7        2.09900  -0.00451   0.00024  -0.01383  -0.01373   2.08527
    A8        2.06855   0.00562   0.00500   0.01808   0.02310   2.09166
    A9        2.11557  -0.00111  -0.00522  -0.00410  -0.00932   2.10625
   A10        2.08808   0.00169  -0.00069   0.00718   0.00647   2.09455
   A11        2.09370  -0.00149  -0.00013  -0.00683  -0.00698   2.08672
   A12        2.10132  -0.00019   0.00089  -0.00029   0.00059   2.10191
   A13        2.09961   0.00027   0.00064   0.00023   0.00083   2.10045
   A14        2.08756  -0.00001  -0.00090   0.00060  -0.00028   2.08728
   A15        2.09601  -0.00026   0.00027  -0.00083  -0.00055   2.09546
   A16        2.09382   0.00004  -0.00009  -0.00161  -0.00174   2.09208
   A17        2.09522  -0.00006   0.00011   0.00057   0.00070   2.09592
   A18        2.09414   0.00002  -0.00002   0.00103   0.00104   2.09518
   A19        2.09518   0.00163   0.00030   0.00500   0.00516   2.10034
   A20        2.09283   0.00338   0.00017   0.01084   0.01100   2.10383
   A21        2.09499  -0.00500  -0.00040  -0.01560  -0.01597   2.07902
   A22        2.09488   0.00217   0.00049   0.00845   0.00892   2.10380
   A23        2.09494  -0.00158  -0.00017  -0.00676  -0.00692   2.08801
   A24        2.09332  -0.00059  -0.00030  -0.00166  -0.00196   2.09137
   A25        2.09531   0.00219   0.00030   0.00864   0.00892   2.10423
   A26        2.09526  -0.00160  -0.00015  -0.00691  -0.00705   2.08820
   A27        2.09257  -0.00059  -0.00013  -0.00169  -0.00182   2.09074
   A28        2.08467   0.00001  -0.00125  -0.00096  -0.00223   2.08244
   A29        2.10141   0.00045   0.00106   0.00276   0.00382   2.10523
   A30        2.09710  -0.00046   0.00020  -0.00180  -0.00159   2.09551
   A31        2.08433  -0.00011  -0.00113  -0.00133  -0.00248   2.08184
   A32        2.10149   0.00056   0.00094   0.00321   0.00417   2.10566
   A33        2.09736  -0.00045   0.00019  -0.00188  -0.00168   2.09568
   A34        2.11206   0.00075   0.00206   0.00093   0.00297   2.11503
   A35        2.08546  -0.00038  -0.00105  -0.00048  -0.00152   2.08395
   A36        2.08566  -0.00037  -0.00101  -0.00045  -0.00146   2.08421
   A37        3.12747   0.00166  -0.00616   0.03353   0.02675   3.15421
   A38        3.18993  -0.00325   0.00692  -0.49843  -0.49182   2.69811
   A39        3.14537  -0.00025   0.00187  -0.00529  -0.00654   3.13882
   A40        3.14386  -0.00028   0.00033  -0.04117  -0.03656   3.10730
    D1        0.01271  -0.00030  -0.00238  -0.00606  -0.00830   0.00441
    D2       -3.13760   0.00002   0.00046  -0.00189  -0.00135  -3.13896
    D3       -3.12824  -0.00036  -0.00274  -0.00646  -0.00910  -3.13735
    D4        0.00462  -0.00004   0.00009  -0.00229  -0.00215   0.00247
    D5        0.00361  -0.00005   0.00003  -0.00232  -0.00219   0.00142
    D6       -3.13904  -0.00002   0.00011  -0.00068  -0.00060  -3.13964
    D7       -3.13862   0.00001   0.00039  -0.00191  -0.00139  -3.14000
    D8        0.00192   0.00004   0.00047  -0.00028   0.00020   0.00212
    D9       -0.02997   0.00082   0.00495   0.01544   0.01973  -0.01024
   D10        3.12322   0.00033   0.00357   0.00124   0.00535   3.12858
   D11        3.12030   0.00050   0.00209   0.01125   0.01281   3.13311
   D12       -0.00969   0.00000   0.00072  -0.00295  -0.00157  -0.01126
   D13        0.03067  -0.00085  -0.00514  -0.01592  -0.02038   0.01029
   D14       -3.12452  -0.00047  -0.00195  -0.01055  -0.01188  -3.13639
   D15       -3.12284  -0.00029  -0.00360  -0.00118  -0.00566  -3.12850
   D16        0.00516   0.00008  -0.00041   0.00419   0.00284   0.00800
   D17       -0.39546   0.00025   0.00371  -0.01231  -0.00899  -0.40445
   D18        2.76464   0.00008   0.00039   0.00302   0.00654   2.77119
   D19        2.74904   0.00029   0.00026   0.03983   0.03672   2.78576
   D20       -0.37404   0.00012  -0.00305   0.05516   0.05225  -0.32179
   D21       -0.01423   0.00038   0.00277   0.00713   0.00969  -0.00454
   D22        3.12696   0.00038   0.00290   0.00671   0.00949   3.13645
   D23        3.14102   0.00001  -0.00041   0.00178   0.00117  -3.14099
   D24       -0.00098   0.00001  -0.00028   0.00136   0.00097  -0.00001
   D25       -0.00289   0.00002  -0.00020   0.00181   0.00152  -0.00136
   D26        3.13976  -0.00001  -0.00028   0.00018  -0.00007   3.13970
   D27        3.13911   0.00001  -0.00033   0.00224   0.00173   3.14084
   D28       -0.00142  -0.00001  -0.00041   0.00060   0.00014  -0.00128
   D29       -3.13811  -0.00011   0.00023  -0.00427  -0.00499   3.14009
   D30        0.01387  -0.00039  -0.00165  -0.00920  -0.01197   0.00190
   D31       -0.01755   0.00049   0.00292   0.00909   0.01293  -0.00462
   D32        3.13443   0.00021   0.00105   0.00416   0.00596   3.14038
   D33        3.13807   0.00009  -0.00030   0.00402   0.00473  -3.14039
   D34       -0.01443   0.00034   0.00148   0.00816   0.01058  -0.00385
   D35        0.01748  -0.00050  -0.00300  -0.00925  -0.01316   0.00432
   D36       -3.13501  -0.00025  -0.00122  -0.00511  -0.00731   3.14086
[...]
 259886,-0.10811494,0.68122578,-0.00030015,0.00002400,-0.00011715,0.000
 46626,0.00015010,-0.00076709,-0.00220535,0.00028295,-0.00141974,0.0000
 2595,-0.00019518,0.00099178,-0.00043677,0.00000214,-0.00000743,0.00010
 341,0.00000961,-0.00005036,-0.00005567,-0.00000428,0.00002222,0.000069
 65,0.00000517,-0.00002732,0.00003275,0.00000412,-0.00002107,-0.0000973
 0,0.00000411,-0.00001996,-0.00003216,0.00000048,-0.00000221,0.00770237
 ,-0.00025094,0.00122244,-0.04186120,-0.00589245,0.03036571,-0.15496968
 ,-0.00965232,0.04990055,0.05909699,-0.00370894,0.01842915,0.69657122,-
 0.00006434,0.00009843,-0.00000355,0.00014667,0.00017687,-0.00008447,-0
 .00060415,-0.00013787,0.00003052,0.00019081,-0.00014674,0.00004543,-0.
 00005892,-0.00010880,0.00002789,0.00005606,0.00000340,0.,0.00000397,-0
 .00001007,-0.00000328,-0.00000676,-0.00003152,0.00000506,0.00000624,0.
 00002344,0.00001066,0.00000869,0.00000340,0.00000315,0.00000092,-0.000
 00021,0.00000190,0.00212335,0.00189367,0.00061783,-0.00386450,0.002280
 54,-0.00061826,-0.01871822,-0.07071494,0.03797548,0.00363950,0.0057566
 9,0.01171114,-0.00927444,0.15212030,0.00033438,-0.00000440,0.00011554,
 -0.00074674,-0.00008407,0.00059616,0.00308735,0.00002339,-0.00028310,-
 0.00097810,0.00004820,-0.00037742,0.00030933,0.00002604,-0.00023982,-0
 .00028809,0.00000130,-0.00000150,-0.00002221,-0.00000358,0.00000781,0.
 00003379,0.00000540,-0.00005817,-0.00003102,0.00001103,-0.00002818,-0.
 00004504,0.00000369,-0.00001127,-0.00000531,0.00000210,-0.00000879,-0.
 01084629,0.00063863,-0.00112786,0.02004234,-0.00060181,0.00503513,0.09
 602690,0.03789656,-0.25692043,-0.01895879,0.01177434,-0.05167423,0.042
 26681,-0.10817050,0.68078493,0.00025321,-0.00001904,0.00009655,-0.0004
 9056,-0.00005500,0.00028325,0.00157157,-0.00001209,0.00004029,-0.00036
 806,0.00006217,-0.00031109,0.00016086,0.00000943,-0.00005200,-0.000180
 69,0.00000839,-0.00004277,-0.00001701,-0.00000253,0.00001301,0.0000184
 1,0.00000184,-0.00001018,0.00002611,-0.00000451,0.00002420,-0.00001572
 ,0.00000239,-0.00001033,-0.00001271,0.00000005,0.00000073,-0.00399020,
 -0.00011805,0.00063538,0.00773812,0.00036608,-0.00186963,-0.03146037,0
 .01342795,-0.06799431,-0.34732402,-0.00553793,0.03067442,-0.04644152,-
 0.00490479,0.02532356,0.69328096,0.00002542,0.00015207,0.00000769,-0.0
 0000553,-0.00010343,0.00002359,0.00012870,-0.00040841,-0.00014325,-0.0
 0002983,0.00012460,0.00000417,0.00001656,-0.00009008,-0.00000454,-0.00
 003710,-0.00000756,-0.00000528,0.00000246,0.00000511,0.00000359,0.0000
 0169,-0.00004708,-0.00001041,-0.00000360,0.00001491,-0.00000257,-0.000
 00073,-0.00000640,-0.00000485,-0.00000168,-0.00000116,-0.00000115,-0.0
 0011971,-0.00028521,-0.00005591,0.00088976,0.00638597,0.00219946,0.004
 98807,0.00668720,-0.00517721,0.00713202,-0.06105805,0.01331551,-0.0053
 4412,-0.00420719,0.00251352,-0.00954569,0.14886383,-0.00013038,0.00000
 820,0.00011382,0.00003065,0.00002409,-0.00022174,-0.00067275,-0.000142
 42,0.00029183,0.00015664,0.00000337,0.00010647,-0.00008630,-0.00000479
 ,-0.00006783,0.00019049,-0.00000646,0.00001965,-0.00001213,0.00000368,
 -0.00001284,-0.00000923,-0.00001044,0.00000392,0.00001818,-0.00000227,
 0.00002788,0.00000341,-0.00000429,0.00001710,0.00000882,-0.00000090,0.
 00000450,0.00064009,-0.00005593,-0.00001734,-0.00453270,0.00220443,-0.
 00435442,-0.02505588,-0.00525119,0.03260778,-0.03377782,0.01342545,-0.
 12643554,0.02755930,0.00250963,-0.01673017,0.04364024,-0.11277830,0.70
 006291,0.00000342,-0.00000217,0.00000833,0.00002756,0.00000889,-0.0000
 4304,-0.00011330,-0.00000628,0.00003459,0.00006967,0.00000505,-0.00003
 097,0.00001100,-0.00000577,0.00002870,0.00001247,0.00000014,-0.0000005
 5,0.00000903,0.00000101,-0.00000506,-0.00004768,-0.00000631,0.00003297
 ,-0.00000798,0.00000064,-0.00000201,0.00001244,-0.00000076,0.00000561,
 0.00000904,-0.00000047,0.00000344,-0.00002492,-0.00002941,0.00015054,0
 .00113352,0.00017220,-0.00091712,0.01080361,0.00300247,-0.01533573,-0.
 12888395,-0.02364047,0.12106090,-0.00150891,0.00058868,-0.00293484,-0.
 01137081,-0.00545188,0.02786500,0.13457406,-0.00000113,-0.00004493,-0.
 00000956,0.00000219,0.00001598,0.00000824,0.00000493,0.00016767,0.0000
 3774,-0.00000724,-0.00002803,0.00000621,-0.00000411,0.00001037,-0.0000
 0501,0.00000122,0.00000729,0.00000172,-0.00000108,0.00000419,0.0000011
 2,0.00000599,0.00004664,0.00000229,0.00000071,0.00000433,-0.00000010,-
 0.00000161,0.00000366,0.00000025,-0.00000135,0.00000136,-0.00000053,0.
 00014888,-0.00000282,-0.00005006,-0.00021984,-0.00337242,-0.00075126,-
 0.00297276,0.00283533,0.00423203,-0.02331829,-0.04503005,0.04473816,0.
 00080826,0.00531752,0.00162950,0.00048321,0.00364068,-0.00019265,0.024
 94808,0.03458192,0.00000105,-0.00000992,0.00000492,-0.00001025,0.00000
 776,-0.00002280,-0.00001910,0.00003628,-0.00000931,0.00003977,0.000006
 03,-0.00005491,0.00001109,-0.00000342,0.00002668,-0.00000274,0.0000012
 5,0.00000117,0.00000746,0.00000134,-0.00000257,-0.00002980,0.00000198,
 0.00003706,-0.00000425,0.00000022,0.00000266,0.00001148,-0.00000020,0.
 00000356,0.00000709,-0.00000052,0.00000320,-0.00076106,-0.00004750,0.0
 0023554,0.00107824,-0.00075381,0.00030456,0.01506187,0.00418017,-0.017
 73376,0.11942084,0.04474053,-0.26490788,-0.00405081,0.00163138,-0.0026
 2385,-0.00232590,-0.00014149,0.00434358,-0.12785939,-0.04966122,0.2785
 9968,0.00016003,-0.00000940,0.00004786,-0.00037079,-0.00006135,0.00031
 356,0.00157251,0.00000590,-0.00004335,-0.00048545,0.00005903,-0.000283
 79,0.00025156,0.00002018,-0.00009738,-0.00018140,-0.00000869,0.0000512
 7,-0.00001423,-0.00000174,0.00000869,0.00002536,0.00000454,-0.00002327
 ,0.00001758,-0.00000405,0.00001231,-0.00001799,0.00000101,-0.00001560,
 -0.00001109,-0.00000092,-0.00000126,-0.00399508,0.00012752,-0.00061735
 ,0.00776829,-0.00035865,0.00181048,-0.03103290,-0.01336198,0.06830411,
 -0.04668376,0.00502049,-0.02516745,-0.34732067,0.00629779,-0.02952625,
 0.05974070,0.00426220,-0.02213851,-0.00062371,0.00014584,-0.00075007,0
 .69289220,-0.00001546,-0.00009076,-0.00000396,0.00003343,0.00012519,0.
 00000421,-0.00013403,-0.00040792,-0.00014465,0.00000248,-0.00010485,0.
 00002545,-0.00002433,0.00015104,0.00000921,0.00003703,-0.00000712,-0.0
 0001075,-0.00000063,-0.00000653,-0.00000332,0.00000378,0.00001520,-0.0
 0000368,-0.00000150,-0.00004615,-0.00001152,-0.00000189,0.00000584,0.0
 0000515,0.00000109,-0.00000055,-0.00000081,0.00012774,-0.00028678,-0.0
 0005352,-0.00088182,0.00638891,0.00220082,-0.00492304,0.00673185,-0.00
 531801,0.00545993,-0.00423267,0.00254777,-0.00637195,-0.06105526,0.013
 42157,-0.00433631,0.00520044,0.01145825,0.00012858,-0.00067346,-0.0001
 8511,0.00766308,0.14882134,0.00008241,-0.00000398,-0.00006522,-0.00015
 458,0.00000333,0.00010496,0.00066842,-0.00014523,0.00029216,-0.0000272
 6,0.00002519,-0.00021820,0.00012530,0.00000781,0.00010874,-0.00018738,
 -0.00000652,0.00002177,-0.00000188,-0.00000462,0.00001591,-0.00001805,
 -0.00000311,0.00002959,0.00000907,-0.00000984,0.00000247,0.00001378,0.
 00000370,-0.00001218,-0.00000923,-0.00000102,0.00000424,-0.00062225,-0
 .00005483,-0.00001401,0.00447582,0.00219612,-0.00438841,0.02536426,-0.
 00524458,0.03213876,-0.02740095,0.00255079,-0.01646514,0.03492476,0.01
 331253,-0.12645505,0.02160974,0.01138349,-0.05065596,-0.00065808,-0.00
 018573,0.00024049,-0.04388839,-0.11271380,0.70049109,0.00000866,0.0000
 0564,-0.00002754,0.00007048,-0.00000631,0.00003005,-0.00011308,0.00000
 740,-0.00003432,0.00002866,-0.00000781,0.00004268,0.00000167,0.0000018
 6,-0.00000914,0.00001324,0.,0.00000050,0.00001308,0.00000112,-0.000005
 85,-0.00000827,-0.00000046,0.00000236,-0.00004806,0.00000639,-0.000032
 75,0.00000958,-0.00000139,0.00000513,0.00000949,0.00000044,-0.00000342
 ,-0.00002279,0.00002908,-0.00014902,0.00113326,-0.00018695,0.00091077,
 0.01080508,-0.00300023,0.01520189,-0.00147742,-0.00056416,0.00293240,-
 0.12998631,0.02406909,-0.12163200,-0.00061867,-0.00013039,0.00066235,0
 .00061126,-0.00015745,0.00079711,-0.01148793,0.00548779,-0.02778629,0.
 13574582,0.00000192,0.00001043,-0.00000272,0.00000809,-0.00002892,0.00
 000561,-0.00000271,0.00016771,0.00003754,-0.00000199,0.00001671,0.0000
 0886,-0.00000126,-0.00004523,-0.00001153,-0.00000004,0.00000736,0.0000
 0105,0.00000233,0.00000372,0.00000001,-0.00000077,0.00000415,0.0000004
 6,-0.00000579,0.00004703,0.00000155,0.00000207,0.00000420,0.00000176,0
 .00000127,0.00000143,-0.00000048,-0.00015041,-0.00000252,-0.00004846,0
 .00020494,-0.00337259,-0.00075472,0.00297487,0.00283529,0.00418009,-0.
 00078328,0.00532058,0.00162592,0.02374655,-0.04514346,0.04491082,-0.00
 014799,-0.00067350,-0.00018634,0.00015769,0.00025244,0.00024414,-0.000
 44801,0.00362912,-0.00012295,-0.02544039,0.03470290,-0.00001263,-0.000
 00355,0.00002720,-0.00004031,0.00000563,-0.00005545,0.00001932,0.00003
 680,-0.00001020,0.00001129,0.00000850,-0.00002393,-0.00000152,-0.00000
 992,0.00000500,0.00000300,0.00000147,0.00000217,-0.00001085,0.00000012
 ,0.00000324,0.00000405,0.00000026,0.00000298,0.00003002,0.00000149,0.0
 0003745,-0.00000761,0.00000101,-0.00000297,-0.00000667,-0.00000063,0.0
 0000330,0.00076227,-0.00004976,0.00023249,-0.00108351,-0.00075050,0.00
 030670,-0.01519587,0.00423216,-0.01773485,0.00404850,0.00162446,-0.002
 65958,-0.11999311,0.04490738,-0.26369122,0.00075270,-0.00018675,0.0002
 3345,-0.00080434,0.00024665,-0.00094887,0.00240538,-0.00017456,0.00447
 102,0.12845981,-0.04984157,0.27730673,-0.00015174,0.00000084,-0.000005
 68,0.00047689,0.00003288,-0.00016917,-0.00154921,0.00000209,0.00000109
 ,0.00047180,-0.00003581,0.00016766,-0.00015139,-0.00000187,0.00000884,
 0.00027780,0.00000021,-0.00000558,0.00004907,0.00000790,-0.00004040,-0
 .00005802,-0.00000819,0.00004251,-0.00005795,0.00000956,-0.00004415,0.
 00005065,-0.00000743,0.00004287,0.00005034,0.00000049,0.00000030,0.003
 48361,-0.00000350,-0.00000531,-0.00498902,0.00000378,0.00001186,0.0044
 9596,0.00001583,-0.00016807,-0.03031101,-0.00489354,0.02520924,-0.0307
 9132,0.00495703,-0.02490617,-0.14997108,-0.02194906,0.11244767,-0.0040
 1251,0.00015935,-0.00070824,-0.15070184,0.02235874,-0.11297508,-0.0040
 0138,-0.00012591,0.00074105,0.50171342,-0.00000965,0.00005697,0.000006
 64,0.00001002,-0.00007941,-0.00001554,0.00000152,-0.00024488,-0.000052
 67,-0.00001099,-0.00007886,-0.00001581,0.00000906,0.00005701,0.0000059
 7,-0.00000013,-0.00002947,0.00000585,-0.00000002,0.00000276,0.00000037
 ,0.00000036,0.00001082,0.00000248,-0.00000033,0.00001074,0.00000241,0.
 00000028,0.00000261,0.00000038,0.00000006,0.00000398,0.00000062,-0.000
 00280,0.00104879,0.00004998,0.00000340,-0.00182512,-0.00014861,0.00001
 603,-0.00784644,0.01222540,-0.01569714,0.00689133,-0.00514906,0.015761
 38,0.00684171,-0.00516707,-0.00931498,-0.06891580,0.04240410,0.0002869
 6,0.00709208,0.00108162,0.00972534,-0.06899361,0.04262738,-0.00025461,
 0.00709332,0.00108116,-0.00069415,0.13801304,0.00004738,0.00000667,0.0
 0002009,-0.00006305,-0.00001492,-0.00000410,0.00000033,-0.00005141,0.0
 0001710,0.00006259,-0.00001334,-0.00000872,-0.00004516,0.00000818,0.00
 002798,-0.00000210,0.00000510,-0.00004294,0.00000293,0.00000109,-0.000
 00265,-0.00000215,0.00000220,0.00000076,0.00000106,-0.00000067,0.00000
 398,-0.00000459,-0.00000119,-0.00000475,0.00000172,-0.00000067,0.00000
 018,-0.00000334,0.00005007,0.00080063,0.00001130,-0.00014947,-0.001099
 70,-0.00016743,0.01222705,-0.06763820,0.08017016,-0.00524185,0.0318281
 9,-0.07986974,-0.00507268,0.03235827,0.04817013,0.04251433,-0.27731312
 ,-0.00136019,0.00108130,0.00180770,-0.04870010,0.04251886,-0.27649228,
 0.00139275,0.00107864,0.00179876,0.00019763,-0.10072608,0.63066901,0.0
 0000263,-0.00000345,0.00001549,-0.00009101,0.00000874,-0.00004179,0.00
 013008,-0.00001683,0.00008549,-0.00004875,-0.00000447,0.00001995,0.000
 00334,0.00000040,-0.00000127,-0.00002624,0.00000043,-0.00000075,-0.000
 01609,-0.00000095,0.00000513,0.00000913,0.00000095,-0.00000467,0.00001
 133,-0.00000193,0.00000951,-0.00001027,0.00000086,-0.00000418,-0.00000
 578,-0.00000008,0.00000060,-0.00034830,-0.00000523,0.00002902,-0.00034
 358,0.00024531,-0.00124280,-0.00469269,-0.00029316,0.00159572,-0.01087
 911,0.00543543,-0.02752975,-0.00071682,-0.00013746,0.00069847,-0.13090
 599,0.02457259,-0.12418094,0.00063384,-0.00006528,0.00028925,-0.001519
 03,-0.00058756,0.00304663,0.00008511,0.00001654,-0.00009214,0.00984930
 ,-0.00294657,0.01493063,0.13735183,0.00000069,0.00000282,0.00000186,0.
 00000085,0.00000254,0.00000195,-0.00000358,-0.00000723,0.00000115,0.00
 000203,-0.00002191,-0.00000541,0.00000024,-0.00000037,-0.00000150,0.00
 000272,-0.00000271,-0.00000066,0.00000047,0.00000173,-0.00000020,-0.00
 000057,0.00000499,0.00000105,-0.00000056,0.00000379,0.00000064,0.00000
 051,0.00000177,0.00000089,0.00000061,0.00000134,0.00000029,-0.00001909
 ,-0.00015209,-0.00002050,0.00001135,0.00039827,0.00004653,-0.00022238,
 0.00697990,0.00104034,-0.00034774,0.00332834,-0.00028476,-0.00016440,-
 0.00069178,-0.00019372,0.02402024,-0.04422998,0.04493162,0.00003861,-0
 .00412759,-0.00097151,-0.00078846,0.00507543,0.00155387,0.00001529,-0.
 00079295,-0.00015555,0.00316392,0.00193024,0.00418720,-0.02583931,0.03
 443297,-0.00000224,0.00000153,-0.00000750,-0.00000368,0.00000246,-0.00
 000699,0.00001583,0.00000194,-0.00001593,-0.00001131,-0.00000611,0.000
 00330,0.00000170,-0.00000188,0.00000947,-0.00001468,-0.00000022,-0.000
 00026,-0.00000286,-0.00000024,0.00000313,0.00000294,0.00000120,-0.0000
 0065,0.00000303,0.00000057,0.00000123,-0.00000349,0.00000112,-0.000002
 81,-0.00000316,0.00000037,0.00000015,0.00010021,-0.00002074,-0.0000505
 7,-0.00005204,0.00004391,0.00018309,0.00123426,0.00104143,0.00187611,0
 .00189228,-0.00033500,0.00496020,0.00083620,-0.00019415,0.00024918,-0.
 12137155,0.04492665,-0.26286473,-0.00023956,-0.00097044,0.00062142,0.0
 0407408,0.00155130,-0.00255233,-0.00008528,-0.00015559,-0.00003093,-0.
 01615988,0.00424050,-0.01867154,0.13047637,-0.04976904,0.27666993,0.00
 000225,-0.00000060,0.00000333,-0.00004722,0.00000398,-0.00002000,0.000
 13078,0.00001665,-0.00008779,-0.00009222,-0.00000860,0.00004302,0.0000
 0167,0.00000287,-0.00001656,-0.00002547,-0.00000007,-0.00000139,-0.000
 01009,-0.00000086,0.00000451,0.00001130,0.00000183,-0.00000945,0.00000
 930,-0.00000033,0.00000363,-0.00001530,0.00000135,-0.00000404,-0.00000
 612,0.00000037,-0.00000037,-0.00035031,0.00000556,-0.00002602,-0.00033
 758,-0.00024345,0.00124607,-0.00470533,0.00032666,-0.00156074,-0.00072
 342,0.00013626,-0.00069423,-0.01076136,-0.00540304,0.02760819,-0.00155
 239,0.00061088,-0.00304780,0.00008550,-0.00001922,0.00009162,-0.129788
 87,-0.02413871,0.12362020,0.00063391,0.00004917,-0.00029166,0.00985458
 ,0.00294882,-0.01506364,0.00067639,0.00015130,-0.00077311,0.13616476,-
 0.00000049,-0.00000025,-0.00000204,-0.00000273,-0.00002188,-0.00000547
 ,0.00000290,-0.00000725,0.00000200,0.00000055,0.00000296,0.00000141,-0
 .00000080,0.00000309,0.00000191,-0.00000269,-0.00000283,0.00000086,-0.
 00000020,0.00000185,0.00000050,0.00000047,0.00000375,0.00000087,0.0000
 0044,0.00000465,0.00000148,-0.00000069,0.00000147,-0.00000071,-0.00000
 035,0.00000116,0.00000019,0.00001972,-0.00015212,-0.00002108,-0.000009
 21,0.00039879,0.00004329,0.00025590,0.00697892,0.00104324,0.00016331,-
 0.00069236,-0.00019297,0.00038039,0.00334072,-0.00035317,0.00081225,0.
 00507191,0.00155721,-0.00001796,-0.00079306,-0.00015588,-0.02358665,-0
 .04411340,0.04475209,-0.00005515,-0.00412792,-0.00097057,-0.00316167,0
 .00193069,0.00423920,-0.00015083,0.00031221,0.00024261,0.02534182,0.03
 430926,0.00000071,-0.00000172,0.00000771,0.00001067,-0.00000527,0.0000
 0416,-0.00001717,0.00000137,-0.00001393,0.00000363,0.00000176,-0.00000
 700,0.00000343,0.00000185,-0.00000654,0.00001397,-0.00000062,-0.000000
 06,0.00000271,0.00000089,-0.00000256,-0.00000286,0.00000062,0.00000080
 ,-0.00000288,0.00000117,-0.00000031,0.00000247,-0.00000013,0.00000289,
 0.00000300,0.00000034,0.,-0.00009791,-0.00002049,-0.00005085,0.0000544
 1,0.00004552,0.00017536,-0.00119846,0.00104248,0.00189103,-0.00083168,
 -0.00019271,0.00025750,-0.00181398,-0.00030329,0.00483011,-0.00407367,
 0.00155903,-0.00251659,0.00008453,-0.00015563,-0.00003208,0.12080999,0
 .04475690,-0.26409817,0.00023688,-0.00097141,0.00062149,0.01602519,0.0
 0418656,-0.01867894,0.00076547,0.00023970,-0.00086681,-0.12988910,-0.0
 4958369,0.27798154,0.00005675,0.00002653,-0.00013448,-0.00035343,0.000
 01868,-0.00009221,0.00095426,-0.00000125,-0.00000222,-0.00035419,-0.00
 001795,0.00009458,0.00005693,-0.00002678,0.00013414,-0.00035735,0.0000
 0047,0.00000009,-0.00006781,-0.00001148,0.00005898,0.00006340,0.000005
 04,-0.00002637,0.00006356,-0.00000500,0.00002567,-0.00006760,0.0000117
 7,-0.00005805,-0.00006293,0.00000021,0.00000016,-0.00100424,0.00000083
 ,0.00000264,0.00093618,-0.00000181,-0.00000212,-0.00189076,-0.00000028
 ,0.00000878,0.00343121,-0.00093709,0.00477809,0.00341656,0.00094781,-0
 .00481028,-0.03807013,-0.00001106,0.00042160,-0.00140264,0.00006072,-0
 .00029527,-0.03819348,0.00011355,-0.00021098,-0.00140538,-0.00005689,0
 .00030281,-0.15402695,0.00016813,0.00029287,0.00085066,-0.00002275,0.0
 0008593,0.00084525,0.00001166,-0.00008935,0.22658214,0.00000009,-0.000
 01058,-0.00000311,0.00000011,0.00001394,0.00000513,-0.00000081,0.00007
 524,0.00001893,0.00000140,0.00001469,0.00000509,-0.00000171,-0.0000105
 7,-0.00000439,0.00000077,0.00000834,0.00000183,0.00000073,-0.00000160,
 -0.00000074,0.00000057,-0.00000325,-0.00000133,-0.00000089,-0.00000325
 ,-0.00000168,-0.00000006,-0.00000181,-0.00000041,0.00000018,-0.0000020
 9,-0.00000046,0.00000075,-0.00009099,-0.00001599,-0.00000212,-0.000589
 86,-0.00017838,0.00000013,-0.00068464,-0.00051552,0.00033095,0.0043928
 0,0.00165846,-0.00032025,0.00439117,0.00167221,-0.00519510,0.00388712,
 0.00010594,-0.00017753,0.00009089,-0.00000212,0.00529696,0.00387468,0.
 00007990,0.00018120,0.00009068,-0.00000374,0.00016850,-0.02297252,0.00
 335239,-0.00022815,-0.00244975,-0.00060219,0.00021737,-0.00245038,-0.0
 0060324,-0.00027306,0.01243174,-0.00000182,-0.00000411,0.00000873,0.00
 000545,0.00000505,-0.00000898,-0.00000089,0.00001751,-0.00001532,-0.00
 000597,0.00000286,-0.00000795,0.00000382,-0.00000460,0.00000581,0.0000
 0094,0.00000152,-0.00000452,-0.00000327,-0.00000074,0.00000218,-0.0000
 0325,-0.00000139,0.00000353,0.00000402,0.00000017,0.00000236,0.0000033
 2,0.00000084,0.00000311,-0.00000107,0.00000056,0.00000017,0.00000135,-
 0.00001528,-0.00001372,-0.00000294,-0.00017740,0.00028055,0.00000876,-
 0.00051683,0.00183833,-0.00167157,0.00166918,-0.00376064,0.00164103,0.
 00166019,-0.00374605,0.02679722,0.00006067,0.00335738,0.00091626,-0.00
 000304,0.00010383,-0.02658496,0.00012421,0.00349577,-0.00090908,-0.000
 00068,0.00010602,0.00029180,0.00335341,-0.03937570,0.00113055,-0.00060
 424,0.00049382,-0.00113468,-0.00060128,0.00050126,-0.00048502,-0.00496
 658,0.03673002||-0.00004818,0.00000594,-0.00001761,0.00005656,0.000002
 44,-0.00002689,-0.00001049,-0.00001226,0.00005126,-0.00002292,0.000007
 28,-0.00002793,0.00002341,0.00000663,-0.00001842,0.00001303,-0.0000110
 3,0.00003623,0.00000107,0.00000082,0.00000176,-0.00000907,-0.00000131,
 0.00000361,0.00000053,-0.00000290,0.00000392,-0.00000727,-0.00000022,0
 .00000148,-0.00000203,0.00000160,-0.00000360,0.00001471,0.00000393,0.0
 0000301,-0.00002052,-0.00000375,-0.00000912,0.00001791,0.00000092,0.00
 000562,-0.00001901,0.00000198,0.00000354,-0.00001299,0.00000051,-0.000
 00666,0.00000839,0.00000189,-0.00000551,0.00000386,-0.00000095,-0.0000
 0128,0.00000304,-0.00000099,0.00000201,0.00000355,0.00000025,0.0000013
 2,0.00000605,-0.00000068,0.00000273,0.00000276,-0.00000050,0.00000133,
 0.00000314,0.00000061,-0.00000073,-0.00000555,-0.00000020,-0.00000008|
 ||@


 The chemist is a guest at the physicist's table and
 frequently dines well.
                   -- Richard Bersohn
 Job cpu time:       0 days  0 hours 22 minutes  4.0 seconds.
 File lengths (MBytes):  RWF=    455 Int=      0 D2E=      0 Chk=      9 Scr=      1
 Normal termination of Gaussian 09 at Thu Aug 24 22:17:13 2023.
