 Entering Gaussian System, Link 0=C:\G09W\g09.exe
 Input=D:\machine learning\molecule_47.gjf
 Output=D:\machine learning\molecule_47.log
 Initial command:
 C:/G09W\l1.exe ".\Gau-3152.inp" "D:\machine learning\molecule_47.log" /scrdir=".\"
 Entering Link 1 = C:/G09W\l1.exe PID=      4320.
  
 Copyright (c) 1988,1990,1992,1993,1995,1998,2003,2009,2013,
            Gaussian, Inc.  All Rights Reserved.
  
 This is part of the Gaussian(R) 09 program.  It is based on
 the Gaussian(R) 03 system (copyright 2003, Gaussian, Inc.),
 the Gaussian(R) 98 system (copyright 1998, Gaussian, Inc.),
 the Gaussian(R) 94 system (copyright 1995, Gaussian, Inc.),
 the Gaussian 92(TM) system (copyright 1992, Gaussian, Inc.),
 the Gaussian 90(TM) system (copyright 1990, Gaussian, Inc.),
 the Gaussian 88(TM) system (copyright 1988, Gaussian, Inc.),
 the Gaussian 86(TM) system (copyright 1986, Carnegie Mellon
 University), and the Gaussian 82(TM) system (copyright 1983,
 Carnegie Mellon University). Gaussian is a federally registered
 trademark of Gaussian, Inc.
  
 This software contains proprietary and confidential information,
 including trade secrets, belonging to Gaussian, Inc.
  
 This software is provided under written license and may be
 used, copied, transmitted, or stored only in accord with that
 written license.
  
 The following legend is applicable only to US Government
 contracts under FAR:
  
                    RESTRICTED RIGHTS LEGEND
  
 Use, reproduction and disclosure by the US Government is
 subject to restrictions as set forth in subparagraphs (a)
 and (c) of the Commercial Computer Software - Restricted
 Rights clause in FAR 52.227-19.
  
 Gaussian, Inc.
 340 Quinnipiac St., Bldg. 40, Wallingford CT 06492
  
  
 ---------------------------------------------------------------
 Warning -- This program may not be used in any manner that
 competes with the business of Gaussian, Inc. or will provide
 assistance to any competitor of Gaussian, Inc.  The licensee
 of this program is prohibited from giving any competitor of
 Gaussian, Inc. access to this program.  By using this program,
 the user acknowledges that Gaussian, Inc. is engaged in the
 business of creating and licensing software in the field of
 computational chemistry and represents and warrants to the
 licensee that it is not a competitor of Gaussian, Inc. and that
 it will not use this program in any manner prohibited above.
 ---------------------------------------------------------------
  

 Cite this work as:
 Gaussian 09, Revision D.01,
 M. J. Frisch, G. W. Trucks, H. B. Schlegel, G. E. Scuseria, 
 M. A. Robb, J. R. Cheeseman, G. Scalmani, V. Barone, B. Mennucci, 
 G. A. Petersson, H. Nakatsuji, M. Caricato, X. Li, H. P. Hratchian, 
 A. F. Izmaylov, J. Bloino, G. Zheng, J. L. Sonnenberg, M. Hada, 
 M. Ehara, K. Toyota, R. Fukuda, J. Hasegawa, M. Ishida, T. Nakajima, 
 Y. Honda, O. Kitao, H. Nakai, T. Vreven, J. A. Montgomery, Jr., 
 J. E. Peralta, F. Ogliaro, M. Bearpark, J. J. Heyd, E. Brothers, 
 K. N. Kudin, V. N. Staroverov, T. Keith, R. Kobayashi, J. Normand, 
 K. Raghavachari, A. Rendell, J. C. Burant, S. S. Iyengar, J. Tomasi, 
 M. Cossi, N. Rega, J. M. Millam, M. Klene, J. E. Knox, J. B. Cross, 
 V. Bakken, C. Adamo, J. Jaramillo, R. Gomperts, R. E. Stratmann, 
 O. Yazyev, A. J. Austin, R. Cammi, C. Pomelli, J. W. Ochterski, 
 R. L. Martin, K. Morokuma, V. G. Zakrzewski, G. A. Voth, 
 P. Salvador, J. J. Dannenberg, S. Dapprich, A. D. Daniels, 
 O. Farkas, J. B. Foresman, J. V. Ortiz, J. Cioslowski, 
 and D. J. Fox, Gaussian, Inc., Wallingford CT, 2013.
 
 ******************************************
 Gaussian 09:  EM64W-G09RevD.01 13-Apr-2013
                25-Aug-2023 
 ******************************************
 %nprocshared=6
 Will use up to    6 processors via shared memory.
 %mem=6GB
 %chk=D:\machine learning\molecule_47.chk
 --------------------------------------------------------------------
 # opt freq b3lyp/6-31+g(d) geom=connectivity empiricaldispersion=gd3
 --------------------------------------------------------------------
 1/14=-1,18=20,19=15,26=3,38=1,57=2/1,3;
 2/9=110,12=2,17=6,18=5,40=1/2;
 3/5=1,6=6,7=11,11=2,16=1,25=1,30=1,71=1,74=-5,124=31/1,2,3;
 4//1;
 5/5=2,38=5/2;
 6/7=2,8=2,9=2,10=2,28=1/1;
 7//1,2,3,16;
 1/14=-1,18=20,19=15,26=3/3(2);
 2/9=110/2;
 99//99;
 2/9=110/2;
 3/5=1,6=6,7=11,11=2,16=1,25=1,30=1,71=1,74=-5,124=31/1,2,3;
 4/5=5,16=3,69=1/1;
 5/5=2,38=5/2;
 7//1,2,3,16;
 1/14=-1,18=20,19=15,26=3/3(-5);
 2/9=110/2;
 6/7=2,8=2,9=2,10=2,19=2,28=1/1;
 99/9=1/99;
 -------------------
 Title Card Required
 -------------------
 Symbolic Z-matrix:
 Charge =  0 Multiplicity = 1
 C                    -5.36686   1.7336    2.48987 
 C                    -4.20702   0.90068   0.52839 
 C                    -4.60024  -0.40657   0.85621 
 C                    -5.39133  -0.63785   1.99173 
 C                    -5.79035   0.435     2.79757 
 H                    -5.64951   2.54797   3.12416 
 H                    -4.30258  -1.23106   0.23631 
 H                    -5.69797  -1.63354   2.24156 
 C                    -3.39424   1.17164  -0.74788 
 C                    -2.75016   1.38522  -1.75945 
 C                    -1.94212   1.65278  -3.02861 
 C                    -1.297     1.86583  -4.04193 
 C                    -0.48967   2.13208  -5.31007 
 C                    -0.01792   1.06121  -6.07819 
 C                    -0.21192   3.4517   -5.68765 
 C                     0.74274   1.30833  -7.22518 
 H                    -0.2371    0.05565  -5.7861 
 C                     0.54918   3.69814  -6.83657 
 H                    -0.583     4.26822  -5.10276 
 C                     1.03328   2.63057  -7.60154 
 H                     1.10779   0.49529  -7.81272 
 H                     0.75908   4.7027   -7.13098 
 C                    -4.57446   1.96725   1.35828 
 H                    -4.25624   2.9626    1.12623 
 C                    -6.69201   0.18841   4.02106 
 H                    -6.48483   0.92294   4.77144 
 H                    -7.71767   0.26142   3.72618 
 H                    -6.50268  -0.78749   4.41293 
 H                     1.62448   2.82134  -8.47274 
 

 GradGradGradGradGradGradGradGradGradGradGradGradGradGradGradGradGradGrad
 Berny optimization.
 Initialization pass.
                           ----------------------------
                           !    Initial Parameters    !
                           ! (Angstroms and Degrees)  !
 --------------------------                            --------------------------
 ! Name  Definition              Value          Derivative Info.                !
 --------------------------------------------------------------------------------
 ! R1    R(1,5)                  1.4001         estimate D2E/DX2                !
 ! R2    R(1,6)                  1.0702         estimate D2E/DX2                !
 ! R3    R(1,23)                 1.4011         estimate D2E/DX2                !
 ! R4    R(2,3)                  1.4039         estimate D2E/DX2                !
 ! R5    R(2,9)                  1.5372         estimate D2E/DX2                !
 ! R6    R(2,23)                 1.4005         estimate D2E/DX2                !
 ! R7    R(3,4)                  1.4031         estimate D2E/DX2                !
 ! R8    R(3,7)                  1.0736         estimate D2E/DX2                !
 ! R9    R(4,5)                  1.3999         estimate D2E/DX2                !
 ! R10   R(4,8)                  1.0714         estimate D2E/DX2                !
 ! R11   R(5,25)                 1.5397         estimate D2E/DX2                !
 ! R12   R(9,10)                 1.2181         estimate D2E/DX2                !
 ! R13   R(10,11)                1.5282         estimate D2E/DX2                !
 ! R14   R(11,12)                1.22           estimate D2E/DX2                !
 ! R15   R(12,13)                1.5267         estimate D2E/DX2                !
 ! R16   R(13,14)                1.3998         estimate D2E/DX2                !
 ! R17   R(13,15)                1.4004         estimate D2E/DX2                !
 ! R18   R(14,16)                1.3983         estimate D2E/DX2                !
 ! R19   R(14,17)                1.0698         estimate D2E/DX2                !
 ! R20   R(15,18)                1.4            estimate D2E/DX2                !
 ! R21   R(15,19)                1.0707         estimate D2E/DX2                !
 ! R22   R(16,20)                1.4051         estimate D2E/DX2                !
 ! R23   R(16,21)                1.0675         estimate D2E/DX2                !
 ! R24   R(18,20)                1.3997         estimate D2E/DX2                !
 ! R25   R(18,22)                1.0677         estimate D2E/DX2                !
 ! R26   R(20,29)                1.07           estimate D2E/DX2                !
 ! R27   R(23,24)                1.0704         estimate D2E/DX2                !
 ! R28   R(25,26)                1.0703         estimate D2E/DX2                !
 ! R29   R(25,27)                1.0697         estimate D2E/DX2                !
 ! R30   R(25,28)                1.0686         estimate D2E/DX2                !
 ! A1    A(5,1,6)              119.7105         estimate D2E/DX2                !
 ! A2    A(5,1,23)             120.2141         estimate D2E/DX2                !
 ! A3    A(6,1,23)             120.0754         estimate D2E/DX2                !
 ! A4    A(3,2,9)              120.4048         estimate D2E/DX2                !
 ! A5    A(3,2,23)             119.8205         estimate D2E/DX2                !
 ! A6    A(9,2,23)             119.7677         estimate D2E/DX2                !
 ! A7    A(2,3,4)              120.0245         estimate D2E/DX2                !
 ! A8    A(2,3,7)              120.1717         estimate D2E/DX2                !
 ! A9    A(4,3,7)              119.8026         estimate D2E/DX2                !
 ! A10   A(3,4,5)              120.0168         estimate D2E/DX2                !
 ! A11   A(3,4,8)              120.2166         estimate D2E/DX2                !
 ! A12   A(5,4,8)              119.7651         estimate D2E/DX2                !
 ! A13   A(1,5,4)              119.8745         estimate D2E/DX2                !
 ! A14   A(1,5,25)             120.0188         estimate D2E/DX2                !
 ! A15   A(4,5,25)             120.1067         estimate D2E/DX2                !
 ! A16   A(12,13,14)           120.0405         estimate D2E/DX2                !
 ! A17   A(12,13,15)           119.5493         estimate D2E/DX2                !
 ! A18   A(14,13,15)           120.4054         estimate D2E/DX2                !
 ! A19   A(13,14,16)           119.8845         estimate D2E/DX2                !
 ! A20   A(13,14,17)           120.0146         estimate D2E/DX2                !
 ! A21   A(16,14,17)           120.1007         estimate D2E/DX2                !
 ! A22   A(13,15,18)           119.6673         estimate D2E/DX2                !
 ! A23   A(13,15,19)           120.17           estimate D2E/DX2                !
 ! A24   A(18,15,19)           120.1623         estimate D2E/DX2                !
 ! A25   A(14,16,20)           119.9003         estimate D2E/DX2                !
 ! A26   A(14,16,21)           120.1919         estimate D2E/DX2                !
 ! A27   A(20,16,21)           119.9069         estimate D2E/DX2                !
 ! A28   A(15,18,20)           120.1498         estimate D2E/DX2                !
 ! A29   A(15,18,22)           119.9208         estimate D2E/DX2                !
 ! A30   A(20,18,22)           119.9293         estimate D2E/DX2                !
 ! A31   A(16,20,18)           119.9878         estimate D2E/DX2                !
 ! A32   A(16,20,29)           120.0065         estimate D2E/DX2                !
 ! A33   A(18,20,29)           120.0058         estimate D2E/DX2                !
 ! A34   A(1,23,2)             119.9991         estimate D2E/DX2                !
 ! A35   A(1,23,24)            119.8873         estimate D2E/DX2                !
 ! A36   A(2,23,24)            120.1125         estimate D2E/DX2                !
 ! A37   A(5,25,26)            109.5022         estimate D2E/DX2                !
 ! A38   A(5,25,27)            109.3605         estimate D2E/DX2                !
 ! A39   A(5,25,28)            109.5067         estimate D2E/DX2                !
 ! A40   A(26,25,27)           109.3923         estimate D2E/DX2                !
 ! A41   A(26,25,28)           109.5952         estimate D2E/DX2                !
 ! A42   A(27,25,28)           109.4701         estimate D2E/DX2                !
 ! A43   L(2,9,10,24,-1)       180.0545         estimate D2E/DX2                !
 ! A44   L(9,10,11,24,-1)      180.0152         estimate D2E/DX2                !
 ! A45   L(10,11,12,19,-1)     180.0259         estimate D2E/DX2                !
 ! A46   L(11,12,13,19,-1)     180.0142         estimate D2E/DX2                !
 ! A47   L(2,9,10,24,-2)       179.9979         estimate D2E/DX2                !
 ! A48   L(9,10,11,24,-2)      179.9987         estimate D2E/DX2                !
 ! A49   L(10,11,12,19,-2)     180.0021         estimate D2E/DX2                !
 ! A50   L(11,12,13,19,-2)     180.0004         estimate D2E/DX2                !
 ! D1    D(6,1,5,4)           -178.1922         estimate D2E/DX2                !
 ! D2    D(6,1,5,25)             1.7439         estimate D2E/DX2                !
 ! D3    D(23,1,5,4)             1.6913         estimate D2E/DX2                !
 ! D4    D(23,1,5,25)         -178.3727         estimate D2E/DX2                !
 ! D5    D(5,1,23,2)             0.2026         estimate D2E/DX2                !
 ! D6    D(5,1,23,24)          179.8039         estimate D2E/DX2                !
 ! D7    D(6,1,23,2)          -179.9144         estimate D2E/DX2                !
 ! D8    D(6,1,23,24)           -0.313          estimate D2E/DX2                !
 ! D9    D(9,2,3,4)           -177.2217         estimate D2E/DX2                !
 ! D10   D(9,2,3,7)              2.378          estimate D2E/DX2                !
 ! D11   D(23,2,3,4)             1.8125         estimate D2E/DX2                !
 ! D12   D(23,2,3,7)          -178.5878         estimate D2E/DX2                !
 ! D13   D(3,2,13,14)           -6.6897         estimate D2E/DX2                !
 ! D14   D(3,2,13,15)          174.1023         estimate D2E/DX2                !
 ! D15   D(23,2,13,14)         174.2733         estimate D2E/DX2                !
 ! D16   D(23,2,13,15)          -4.9347         estimate D2E/DX2                !
 ! D17   D(3,2,23,1)            -1.9518         estimate D2E/DX2                !
 ! D18   D(3,2,23,24)          178.4478         estimate D2E/DX2                !
 ! D19   D(9,2,23,1)           177.0886         estimate D2E/DX2                !
 ! D20   D(9,2,23,24)           -2.5119         estimate D2E/DX2                !
 ! D21   D(2,3,4,5)              0.0782         estimate D2E/DX2                !
 ! D22   D(2,3,4,8)            179.6393         estimate D2E/DX2                !
 ! D23   D(7,3,4,5)           -179.523          estimate D2E/DX2                !
 ! D24   D(7,3,4,8)              0.0382         estimate D2E/DX2                !
 ! D25   D(3,4,5,1)             -1.8279         estimate D2E/DX2                !
 ! D26   D(3,4,5,25)           178.2361         estimate D2E/DX2                !
 ! D27   D(8,4,5,1)            178.6089         estimate D2E/DX2                !
 ! D28   D(8,4,5,25)            -1.3271         estimate D2E/DX2                !
 ! D29   D(1,5,25,26)          -29.8352         estimate D2E/DX2                !
 ! D30   D(1,5,25,27)           90.0194         estimate D2E/DX2                !
 ! D31   D(1,5,25,28)         -150.028          estimate D2E/DX2                !
 ! D32   D(4,5,25,26)          150.1007         estimate D2E/DX2                !
 ! D33   D(4,5,25,27)          -90.0447         estimate D2E/DX2                !
 ! D34   D(4,5,25,28)           29.9079         estimate D2E/DX2                !
 ! D35   D(12,13,14,16)       -178.7877         estimate D2E/DX2                !
 ! D36   D(12,13,14,17)          1.0455         estimate D2E/DX2                !
 ! D37   D(15,13,14,16)          0.4108         estimate D2E/DX2                !
 ! D38   D(15,13,14,17)       -179.756          estimate D2E/DX2                !
 ! D39   D(12,13,15,18)        178.8243         estimate D2E/DX2                !
 ! D40   D(12,13,15,19)         -1.4143         estimate D2E/DX2                !
 ! D41   D(14,13,15,18)         -0.3781         estimate D2E/DX2                !
 ! D42   D(14,13,15,19)        179.3833         estimate D2E/DX2                !
 ! D43   D(13,14,16,20)          0.124          estimate D2E/DX2                !
 ! D44   D(13,14,16,21)        179.7919         estimate D2E/DX2                !
 ! D45   D(17,14,16,20)       -179.709          estimate D2E/DX2                !
 ! D46   D(17,14,16,21)         -0.0411         estimate D2E/DX2                !
 ! D47   D(13,15,18,20)         -0.1905         estimate D2E/DX2                !
 ! D48   D(13,15,18,22)        179.6836         estimate D2E/DX2                !
 ! D49   D(19,15,18,20)       -179.9519         estimate D2E/DX2                !
 ! D50   D(19,15,18,22)         -0.0778         estimate D2E/DX2                !
 ! D51   D(14,16,20,18)         -0.6896         estimate D2E/DX2                !
 ! D52   D(14,16,20,29)        179.3107         estimate D2E/DX2                !
 ! D53   D(21,16,20,18)        179.6416         estimate D2E/DX2                !
 ! D54   D(21,16,20,29)         -0.3581         estimate D2E/DX2                !
 ! D55   D(15,18,20,16)          0.7233         estimate D2E/DX2                !
 ! D56   D(15,18,20,29)       -179.2769         estimate D2E/DX2                !
 ! D57   D(22,18,20,16)       -179.1508         estimate D2E/DX2                !
 ! D58   D(22,18,20,29)          0.849          estimate D2E/DX2                !
 --------------------------------------------------------------------------------
 Trust Radius=3.00D-01 FncErr=1.00D-07 GrdErr=1.00D-06
 Number of steps in this run=    148 maximum allowed number of steps=    174.
 GradGradGradGradGradGradGradGradGradGradGradGradGradGradGradGradGradGrad

                          Input orientation:                          
 ---------------------------------------------------------------------
 Center     Atomic      Atomic             Coordinates (Angstroms)
 Number     Number       Type             X           Y           Z
 ---------------------------------------------------------------------
      1          6           0       -5.366858    1.733598    2.489870
      2          6           0       -4.207021    0.900679    0.528386
      3          6           0       -4.600245   -0.406574    0.856207
      4          6           0       -5.391326   -0.637852    1.991735
      5          6           0       -5.790346    0.434997    2.797565
      6          1           0       -5.649508    2.547967    3.124160
      7          1           0       -4.302577   -1.231060    0.236310
      8          1           0       -5.697975   -1.633540    2.241556
      9          6           0       -3.394239    1.171643   -0.747876
     10          6           0       -2.750163    1.385224   -1.759447
     11          6           0       -1.942116    1.652778   -3.028609
     12          6           0       -1.296998    1.865834   -4.041930
     13          6           0       -0.489669    2.132082   -5.310071
     14          6           0       -0.017918    1.061209   -6.078186
     15          6           0       -0.211925    3.451699   -5.687650
     16          6           0        0.742745    1.308334   -7.225181
     17          1           0       -0.237099    0.055650   -5.786098
     18          6           0        0.549177    3.698137   -6.836572
     19          1           0       -0.583000    4.268216   -5.102756
     20          6           0        1.033283    2.630569   -7.601536
     21          1           0        1.107789    0.495290   -7.812722
     22          1           0        0.759081    4.702704   -7.130981
     23          6           0       -4.574457    1.967253    1.358285
     24          1           0       -4.256236    2.962601    1.126230
     25          6           0       -6.692009    0.188414    4.021058
     26          1           0       -6.484829    0.922939    4.771437
     27          1           0       -7.717670    0.261422    3.726176
     28          1           0       -6.502682   -0.787494    4.412929
     29          1           0        1.624483    2.821337   -8.472737
 ---------------------------------------------------------------------
                    Distance matrix (angstroms):
                    1          2          3          4          5
     1  C    0.000000
     2  C    2.426189   0.000000
     3  C    2.799444   1.403924   0.000000
     4  C    2.423327   2.431264   1.403112   0.000000
     5  C    1.400137   2.805878   2.427644   1.399852   0.000000
     6  H    1.070239   3.395934   3.869610   3.390942   2.142695
     7  H    3.873038   2.153776   1.073618   2.149136   3.398416
     8  H    3.392479   3.402963   2.151661   1.071372   2.143950
     9  C    3.832756   1.537167   2.553097   3.842928   4.342135
    10  C    5.002515   2.755250   3.670830   5.013975   5.559857
    11  C    6.495306   4.283417   5.137935   6.507526   7.087748
    12  C    7.697120   5.503412   6.329851   7.709544   8.307596
    13  C    9.207868   7.030124   7.833555   9.220365   9.834177
    14  C   10.122986   7.824394   8.440255   9.842964  10.606226
    15  C    9.818199   7.817135   8.773009  10.125393  10.593307
    16  C   11.484351   9.207832   9.838561  11.241263  11.995809
    17  H    9.880364   7.506468   7.960585   9.356371  10.230432
    18  C   11.217905   9.202706  10.126404  11.490404  11.985585
    19  H    9.325103   7.495571   8.573281   9.875287  10.209069
    20  C   11.983440   9.825932  10.606333  11.999543  12.630272
    21  H   12.231020   9.898768  10.418509  11.817354  12.655674
    22  H   11.785732   9.888552  10.891385  12.230003  12.636627
    23  C    1.401064   1.400472   2.426480   2.802697   2.428523
    24  H    2.145564   2.147408   3.397440   3.873085   3.396415
    25  C    2.547186   4.345256   3.840023   2.548067   1.539719
    26  H    2.666941   4.815848   4.544039   3.370247   2.148619
    27  H    3.036787   4.791573   4.289672   3.037904   2.146399
    28  H    3.368109   4.817641   4.051498   2.668274   2.147395
    29  H   13.047635  10.895668  11.670297  13.064943  13.700147
                    6          7          8          9         10
     6  H    0.000000
     7  H    4.943172   0.000000
     8  H    4.273914   2.475911   0.000000
     9  C    4.687555   2.750761   4.702441   0.000000
    10  C    5.797223   3.638404   5.814684   1.218083   0.000000
    11  C    7.238970   4.954594   7.258168   2.746251   1.528168
    12  C    8.412044   6.076808   8.431868   3.966246   2.748163
    13  C    9.896118   7.524051   9.916321   5.492958   4.274875
    14  C   10.890750   7.967789  10.427982   6.310621   5.120708
    15  C   10.393846   8.588072  10.900858   6.302947   5.113096
    16  C   12.227283   9.358293  11.821870   7.686924   6.486953
    17  H   10.719073   7.379237   9.854834   6.049517   4.929217
    18  C   11.788247   9.892531  12.241981   7.681531   6.481698
    19  H    9.813812   8.519561  10.720662   6.037947   4.917921
    20  C   12.637527  10.237940  12.664080   8.288792   7.070739
    21  H   13.018830   9.850851  12.326347   8.404626   7.233112
    22  H   12.283355  10.728789  13.026358   8.394193   7.223146
    23  C    2.147389   3.400288   3.874038   2.542012   3.658833
    24  H    2.470800   4.287295   4.944398   2.731821   3.617113
    25  C    2.731067   4.695594   2.733907   5.880881   7.098222
    26  H    2.460081   5.474423   3.681715   6.330594   7.537499
    27  H    3.141339   5.105833   3.142315   6.287902   7.485394
    28  H    3.676157   4.741451   2.465402   6.335183   7.543231
    29  H   13.692103  11.287137  13.720801   9.358554   8.140528
                   11         12         13         14         15
    11  C    0.000000
    12  C    1.219995   0.000000
    13  C    2.746707   1.526712   0.000000
    14  C    3.654095   2.535706   1.399756   0.000000
    15  C    3.646940   2.529970   1.400392   2.429938   0.000000
    16  C    4.993830   3.821577   2.421787   1.398312   2.805246
    17  H    3.614090   2.728054   2.145219   1.069816   3.397569
    18  C    4.989049   3.817817   2.421144   2.801809   1.400010
    19  H    3.604136   2.721504   2.148199   3.399363   1.070746
    20  C    5.542629   4.322711   2.796191   2.426625   2.426470
    21  H    5.790460   4.677634   3.390312   2.143850   3.872716
    22  H    5.781692   4.670924   3.388686   3.869443   2.142678
    23  C    5.125715   6.317780   7.821741   8.768355   8.419054
    24  H    4.932897   6.055564   7.503516   8.572178   7.938805
    25  C    8.625756   9.845387  11.371756  12.136721  12.120212
    26  H    9.055917  10.270252  11.791555  12.631483  12.455379
    27  H    8.995556  10.205030  11.721652  12.492052  12.455289
    28  H    9.062570  10.277350  11.799024  12.471301  12.631947
    29  H    6.612464   5.392596   3.866157   3.395498   3.395064
                   16         17         18         19         20
    16  C    0.000000
    17  H    2.144825   0.000000
    18  C    2.428918   3.871620   0.000000
    19  H    3.875975   4.281625   2.147774   0.000000
    20  C    1.405119   3.397042   1.399725   3.396787   0.000000
    21  H    1.067475   2.471681   3.394576   4.943445   2.146991
    22  H    3.395716   4.939251   1.067657   2.470558   2.142511
    23  C   10.118434   8.573745   9.818516   7.935440  10.590804
    24  H    9.872815   8.507885   9.329481   7.348303  10.210933
    25  C   13.528033  11.741542  13.514476  11.713614  14.167885
    26  H   14.010896  12.298287  13.853694  11.980073  14.578356
    27  H   13.878288  12.103085  13.846423  12.037772  14.508932
    28  H   13.868465  11.999524  14.014310  12.294352  14.588396
    29  H    2.150124   4.281652   2.145250   4.280562   1.070000
                   21         22         23         24         25
    21  H    0.000000
    22  H    4.276530   0.000000
    23  C   10.888616  10.392158   0.000000
    24  H   10.712854   9.816460   1.070435   0.000000
    25  C   14.176366  14.151521   3.839096   4.691390   0.000000
    26  H   14.703461  14.437050   4.048422   4.734383   1.070290
    27  H   14.528922  14.472669   4.289121   5.102707   1.069703
    28  H   14.457916  14.701610   4.542855   5.469197   1.068552
    29  H    2.472466   2.467544  11.653553  11.258018  15.237823
                   26         27         28         29
    26  H    0.000000
    27  H    1.746445   0.000000
    28  H    1.747692   1.745866   0.000000
    29  H   15.645223  15.576985  15.656144   0.000000
 Stoichiometry    C17H12
 Framework group  C1[X(C17H12)]
 Deg. of freedom    81
 Full point group                 C1      NOp   1
 Largest Abelian subgroup         C1      NOp   1
 Largest concise Abelian subgroup C1      NOp   1
                         Standard orientation:                         
 ---------------------------------------------------------------------
 Center     Atomic      Atomic             Coordinates (Angstroms)
 Number     Number       Type             X           Y           Z
 ---------------------------------------------------------------------
      1          6           0       -5.045692   -1.209233   -0.075850
      2          6           0       -2.948285    0.010206   -0.060103
      3          6           0       -3.657203    1.220289    0.004222
      4          6           0       -5.059660    1.210985    0.046054
      5          6           0       -5.752821   -0.005026    0.025326
      6          1           0       -5.579588   -2.135708   -0.120719
      7          1           0       -3.128839    2.154590    0.028038
      8          1           0       -5.603575    2.132384    0.100991
      9          6           0       -1.411227    0.007132   -0.042090
     10          6           0       -0.193229    0.005856   -0.027779
     11          6           0        1.334833    0.004661   -0.009820
     12          6           0        2.554744    0.004259    0.004515
     13          6           0        4.081351    0.004134    0.022441
     14          6           0        4.782943    1.213852   -0.038106
     15          6           0        4.771224   -1.213046    0.082821
     16          6           0        6.181217    1.208617   -0.047090
     17          1           0        4.249591    2.140285   -0.080110
     18          6           0        6.171204   -1.217238    0.074451
     19          1           0        4.230788   -2.135690    0.138978
     20          6           0        6.877428   -0.010906    0.002048
     21          1           0        6.721188    2.128122   -0.096510
     22          1           0        6.701299   -2.142597    0.125438
     23          6           0       -3.645362   -1.202943   -0.120738
     24          1           0       -3.109919   -2.126860   -0.194952
     25          6           0       -7.290027   -0.019360    0.112080
     26          1           0       -7.669598   -0.871376   -0.412815
     27          1           0       -7.586804   -0.073241    1.138377
     28          1           0       -7.680424    0.874082   -0.325133
     29          1           0        7.947258   -0.017417   -0.015874
 ---------------------------------------------------------------------
 Rotational constants (GHZ):      2.7798689      0.1035925      0.0999657
 Standard basis: 6-31+G(d) (6D, 7F)
 There are   347 symmetry adapted cartesian basis functions of A   symmetry.
 There are   347 symmetry adapted basis functions of A   symmetry.
   347 basis functions,   592 primitive gaussians,   347 cartesian basis functions
    57 alpha electrons       57 beta electrons
       nuclear repulsion energy       870.5801699198 Hartrees.
 NAtoms=   29 NActive=   29 NUniq=   29 SFac= 1.00D+00 NAtFMM=   60 NAOKFM=F Big=F
 Integral buffers will be    131072 words long.
 Raffenetti 2 integral format.
 Two-electron integral symmetry is turned on.
 Nuclear repulsion after empirical dispersion term =      870.5626286822 Hartrees.
 One-electron integrals computed using PRISM.
 NBasis=   347 RedAO= T EigKep=  1.97D-06  NBF=   347
 NBsUse=   341 1.00D-06 EigRej=  7.74D-07 NBFU=   341
 ExpMin= 4.38D-02 ExpMax= 3.05D+03 ExpMxC= 4.57D+02 IAcc=2 IRadAn=         4 AccDes= 0.00D+00
 Harris functional with IExCor=  402 and IRadAn=       4 diagonalized for initial guess.
 HarFok:  IExCor=  402 AccDes= 0.00D+00 IRadAn=         4 IDoV= 1 UseB2=F ITyADJ=14
 ICtDFT=  3500011 ScaDFX=  1.000000  1.000000  1.000000  1.000000
 FoFCou: FMM=F IPFlag=           0 FMFlag=      100000 FMFlg1=           0
         NFxFlg=           0 DoJE=T BraDBF=F KetDBF=T FulRan=T
         wScrn=  0.000000 ICntrl=     500 IOpCl=  0 I1Cent=   200000004 NGrid=           0
         NMat0=    1 NMatS0=      1 NMatT0=    0 NMatD0=    1 NMtDS0=    0 NMtDT0=    0
 Petite list used in FoFCou.
 Requested convergence on RMS density matrix=1.00D-08 within 128 cycles.
 Requested convergence on MAX density matrix=1.00D-06.
 Requested convergence on             energy=1.00D-06.
 No special actions if energy rises.
 SCF Done:  E(RB3LYP) =  -654.945974725     A.U. after   15 cycles
            NFock= 15  Conv=0.36D-08     -V/T= 2.0107

 **********************************************************************

            Population analysis using the SCF density.

 **********************************************************************

 Orbital symmetries:
       Occupied  (A) (A) (A) (A) (A) (A) (A) (A) (A) (A) (A) (A)
                 (A) (A) (A) (A) (A) (A) (A) (A) (A) (A) (A) (A)
                 (A) (A) (A) (A) (A) (A) (A) (A) (A) (A) (A) (A)
                 (A) (A) (A) (A) (A) (A) (A) (A) (A) (A) (A) (A)
                 (A) (A) (A) (A) (A) (A) (A) (A) (A)
       Virtual   (A) (A) (A) (A) (A) (A) (A) (A) (A) (A) (A) (A)
                 (A) (A) (A) (A) (A) (A) (A) (A) (A) (A) (A) (A)
                 (A) (A) (A) (A) (A) (A) (A) (A) (A) (A) (A) (A)
                 (A) (A) (A) (A) (A) (A) (A) (A) (A) (A) (A) (A)
                 (A) (A) (A) (A) (A) (A) (A) (A) (A) (A) (A) (A)
                 (A) (A) (A) (A) (A) (A) (A) (A) (A) (A) (A) (A)
                 (A) (A) (A) (A) (A) (A) (A) (A) (A) (A) (A) (A)
                 (A) (A) (A) (A) (A) (A) (A) (A) (A) (A) (A) (A)
                 (A) (A) (A) (A) (A) (A) (A) (A) (A) (A) (A) (A)
                 (A) (A) (A) (A) (A) (A) (A) (A) (A) (A) (A) (A)
                 (A) (A) (A) (A) (A) (A) (A) (A) (A) (A) (A) (A)
                 (A) (A) (A) (A) (A) (A) (A) (A) (A) (A) (A) (A)
                 (A) (A) (A) (A) (A) (A) (A) (A) (A) (A) (A) (A)
                 (A) (A) (A) (A) (A) (A) (A) (A) (A) (A) (A) (A)
                 (A) (A) (A) (A) (A) (A) (A) (A) (A) (A) (A) (A)
                 (A) (A) (A) (A) (A) (A) (A) (A) (A) (A) (A) (A)
                 (A) (A) (A) (A) (A) (A) (A) (A) (A) (A) (A) (A)
                 (A) (A) (A) (A) (A) (A) (A) (A) (A) (A) (A) (A)
                 (A) (A) (A) (A) (A) (A) (A) (A) (A) (A) (A) (A)
                 (A) (A) (A) (A) (A) (A) (A) (A) (A) (A) (A) (A)
                 (A) (A) (A) (A) (A) (A) (A) (A) (A) (A) (A) (A)
                 (A) (A) (A) (A) (A) (A) (A) (A) (A) (A) (A) (A)
                 (A) (A) (A) (A) (A) (A) (A) (A) (A) (A) (A) (A)
                 (A) (A) (A) (A) (A) (A) (A) (A)
 The electronic state is 1-A.
 Alpha  occ. eigenvalues --  -10.23885 -10.23685 -10.22924 -10.22777 -10.21701
 Alpha  occ. eigenvalues --  -10.21697 -10.21436 -10.20888 -10.20887 -10.20870
 Alpha  occ. eigenvalues --  -10.20786 -10.20711 -10.20659 -10.20614 -10.20275
 Alpha  occ. eigenvalues --  -10.20221 -10.18874  -0.87305  -0.87259  -0.79955
 Alpha  occ. eigenvalues --   -0.78835  -0.76374  -0.76281  -0.76055  -0.73554
 Alpha  occ. eigenvalues --   -0.69998  -0.63068  -0.62511  -0.62333  -0.60610
 Alpha  occ. eigenvalues --   -0.57331  -0.54433  -0.52591  -0.48944  -0.47757
 Alpha  occ. eigenvalues --   -0.47379  -0.46611  -0.44880  -0.43973  -0.43796
 Alpha  occ. eigenvalues --   -0.43747  -0.43311  -0.40546  -0.38855  -0.37943
 Alpha  occ. eigenvalues --   -0.37093  -0.36575  -0.36084  -0.35664  -0.33635
 Alpha  occ. eigenvalues --   -0.32970  -0.30011  -0.26740  -0.26557  -0.26323
 Alpha  occ. eigenvalues --   -0.25986  -0.22849
 Alpha virt. eigenvalues --   -0.05683  -0.02523  -0.02460  -0.02408  -0.01128
 Alpha virt. eigenvalues --    0.00270   0.00492   0.01797   0.02243   0.02493
 Alpha virt. eigenvalues --    0.02966   0.03166   0.04333   0.04626   0.05193
 Alpha virt. eigenvalues --    0.05436   0.05641   0.05756   0.06081   0.06644
 Alpha virt. eigenvalues --    0.06952   0.07987   0.08006   0.08671   0.08821
 Alpha virt. eigenvalues --    0.09028   0.09740   0.09882   0.10393   0.11091
 Alpha virt. eigenvalues --    0.11402   0.11791   0.13010   0.13101   0.13318
 Alpha virt. eigenvalues --    0.13431   0.13517   0.14140   0.14366   0.14629
 Alpha virt. eigenvalues --    0.14716   0.15002   0.15205   0.15587   0.15942
 Alpha virt. eigenvalues --    0.16289   0.16623   0.17402   0.18185   0.18402
 Alpha virt. eigenvalues --    0.19337   0.19720   0.20012   0.20088   0.20382
 Alpha virt. eigenvalues --    0.20898   0.21133   0.21194   0.21368   0.21569
 Alpha virt. eigenvalues --    0.22066   0.22409   0.22616   0.23573   0.23881
 Alpha virt. eigenvalues --    0.23970   0.24374   0.25421   0.25594   0.26626
 Alpha virt. eigenvalues --    0.26819   0.27421   0.27702   0.27787   0.28205
 Alpha virt. eigenvalues --    0.28270   0.28925   0.29103   0.29458   0.31685
 Alpha virt. eigenvalues --    0.31924   0.32730   0.33043   0.33637   0.34145
 Alpha virt. eigenvalues --    0.34470   0.34756   0.35640   0.35780   0.37097
 Alpha virt. eigenvalues --    0.39594   0.40459   0.42126   0.45166   0.46238
 Alpha virt. eigenvalues --    0.50347   0.56169   0.56533   0.59006   0.59412
 Alpha virt. eigenvalues --    0.63794   0.64825   0.65263   0.65877   0.67013
 Alpha virt. eigenvalues --    0.67114   0.68698   0.69707   0.69959   0.70299
 Alpha virt. eigenvalues --    0.70920   0.71060   0.71292   0.71438   0.71753
 Alpha virt. eigenvalues --    0.72603   0.73077   0.73788   0.73951   0.74000
 Alpha virt. eigenvalues --    0.74491   0.75817   0.75941   0.76765   0.76875
 Alpha virt. eigenvalues --    0.78158   0.78379   0.78537   0.80868   0.80990
 Alpha virt. eigenvalues --    0.81661   0.82374   0.84030   0.85152   0.85318
 Alpha virt. eigenvalues --    0.85766   0.86094   0.91258   0.91801   0.93644
 Alpha virt. eigenvalues --    0.93857   0.94679   0.95834   0.96022   0.96409
 Alpha virt. eigenvalues --    0.96554   0.98285   1.00191   1.01000   1.01471
 Alpha virt. eigenvalues --    1.02987   1.03203   1.05543   1.06988   1.08015
 Alpha virt. eigenvalues --    1.09774   1.12137   1.12390   1.14215   1.14322
 Alpha virt. eigenvalues --    1.15590   1.16782   1.17449   1.18624   1.19853
 Alpha virt. eigenvalues --    1.19996   1.23553   1.24397   1.25153   1.26734
 Alpha virt. eigenvalues --    1.27087   1.28511   1.30650   1.30861   1.32803
 Alpha virt. eigenvalues --    1.38477   1.41549   1.42182   1.43043   1.43580
 Alpha virt. eigenvalues --    1.44578   1.44729   1.45562   1.46374   1.46538
 Alpha virt. eigenvalues --    1.47869   1.49079   1.49359   1.50574   1.52214
 Alpha virt. eigenvalues --    1.52626   1.57154   1.58627   1.60194   1.61300
 Alpha virt. eigenvalues --    1.65019   1.77728   1.80062   1.82810   1.83254
 Alpha virt. eigenvalues --    1.84208   1.84360   1.85666   1.86535   1.86723
 Alpha virt. eigenvalues --    1.89453   1.90479   1.91415   1.91792   1.92355
 Alpha virt. eigenvalues --    1.95846   1.96933   1.97334   1.99971   2.00287
 Alpha virt. eigenvalues --    2.01078   2.05854   2.09108   2.09317   2.10862
 Alpha virt. eigenvalues --    2.10990   2.13473   2.13774   2.15129   2.15797
 Alpha virt. eigenvalues --    2.15993   2.18362   2.18639   2.22980   2.26120
 Alpha virt. eigenvalues --    2.27954   2.28661   2.29120   2.29320   2.29930
 Alpha virt. eigenvalues --    2.36516   2.38131   2.38800   2.39657   2.47350
 Alpha virt. eigenvalues --    2.51974   2.54584   2.55944   2.58687   2.61310
 Alpha virt. eigenvalues --    2.61715   2.62797   2.63272   2.64132   2.66481
 Alpha virt. eigenvalues --    2.67607   2.73111   2.73291   2.74468   2.79481
 Alpha virt. eigenvalues --    2.80364   2.82729   2.88998   2.93021   2.94844
 Alpha virt. eigenvalues --    2.95600   3.07871   3.15776   3.19942   3.36395
 Alpha virt. eigenvalues --    3.43069   3.60541   4.07284   4.19440   4.20240
 Alpha virt. eigenvalues --    4.23786   4.23821   4.24408   4.25042   4.31312
 Alpha virt. eigenvalues --    4.33823   4.39852   4.40178   4.42449   4.54005
 Alpha virt. eigenvalues --    4.59069   4.73655   4.78919   5.24659
          Condensed to atoms (all electrons):
               1          2          3          4          5          6
     1  C    7.925525   0.235305   0.675527  -1.003960   0.162940   0.286029
     2  C    0.235305   7.263484  -0.502432   0.272840  -0.392819   0.021899
     3  C    0.675527  -0.502432  11.198107  -1.865900   0.098929  -0.001739
     4  C   -1.003960   0.272840  -1.865900   7.932942   0.154164   0.043402
     5  C    0.162940  -0.392819   0.098929   0.154164   6.804723   0.040119
     6  H    0.286029   0.021899  -0.001739   0.043402   0.040119   0.541905
     7  H   -0.007617  -0.019121   0.356674  -0.093462   0.003848   0.000018
     8  H    0.044159   0.021867  -0.081758   0.286786   0.039969  -0.000167
     9  C   -0.085731   0.119366   0.012504  -0.124859  -0.127293  -0.005676
    10  C    0.045063  -0.303963  -0.041444   0.044645  -0.114126   0.001293
    11  C    0.015611   0.349847  -0.076623   0.008445   0.022384  -0.000099
    12  C   -0.004228  -0.233322   0.043932  -0.004432  -0.008225   0.000008
    13  C    0.001515   0.072005  -0.011361   0.001039   0.000518   0.000000
    14  C    0.001464  -0.017615   0.020084  -0.001742  -0.000073   0.000000
    15  C   -0.001795  -0.013257  -0.016183   0.001413  -0.000049   0.000000
    16  C   -0.000194   0.005222  -0.003305   0.000277   0.000030   0.000000
    17  H    0.000000  -0.000012  -0.000001   0.000000   0.000000   0.000000
    18  C    0.000289   0.004492   0.002436  -0.000192   0.000027   0.000000
    19  H    0.000000  -0.000013   0.000000   0.000000   0.000000   0.000000
    20  C    0.000002  -0.000693  -0.000014   0.000002  -0.000007   0.000000
    21  H    0.000000   0.000000   0.000000   0.000000   0.000000   0.000000
    22  H    0.000000   0.000000   0.000000   0.000000   0.000000   0.000000
    23  C   -1.874456  -0.374741  -3.682375   0.657537   0.102277  -0.081030
    24  H   -0.091534  -0.021771   0.021238  -0.007362   0.004096  -0.004316
    25  C   -0.108246  -0.359357   0.049882  -0.091406  -0.846979  -0.023940
    26  H   -0.014743  -0.001755  -0.006412   0.027766  -0.134245   0.002982
    27  H   -0.010505  -0.000138   0.000253  -0.014955  -0.040913   0.000357
    28  H    0.026193  -0.001569   0.003633  -0.011875  -0.135223   0.000089
    29  H    0.000000   0.000000   0.000000   0.000000   0.000000   0.000000
               7          8          9         10         11         12
     1  C   -0.007617   0.044159  -0.085731   0.045063   0.015611  -0.004228
     2  C   -0.019121   0.021867   0.119366  -0.303963   0.349847  -0.233322
     3  C    0.356674  -0.081758   0.012504  -0.041444  -0.076623   0.043932
     4  C   -0.093462   0.286786  -0.124859   0.044645   0.008445  -0.004432
     5  C    0.003848   0.039969  -0.127293  -0.114126   0.022384  -0.008225
     6  H    0.000018  -0.000167  -0.005676   0.001293  -0.000099   0.000008
     7  H    0.522452  -0.004199   0.027202  -0.007236   0.001435   0.000033
     8  H   -0.004199   0.540731  -0.005282   0.001299  -0.000091   0.000008
     9  C    0.027202  -0.005282   7.439028   0.378538  -0.703785   0.075529
    10  C   -0.007236   0.001299   0.378538   6.378260  -0.658257  -0.359836
    11  C    0.001435  -0.000091  -0.703785  -0.658257   6.767456  -0.714568
    12  C    0.000033   0.000008   0.075529  -0.359836  -0.714568   9.026558
    13  C    0.000003   0.000000  -0.119102   0.003309   0.720460  -1.898267
    14  C    0.000004   0.000000   0.029687  -0.086756  -0.288527   0.878144
    15  C   -0.000001   0.000000   0.040583  -0.048676  -0.237624   1.036189
    16  C    0.000000   0.000000  -0.012708   0.045281   0.034998  -0.366443
    17  H    0.000000   0.000000   0.000150   0.000598  -0.003518   0.022953
    18  C    0.000000   0.000000  -0.015307   0.035701   0.020192  -0.417738
    19  H    0.000000   0.000000   0.000162   0.000596  -0.003347   0.023212
    20  C    0.000000   0.000000   0.003167  -0.023088   0.060633  -0.246453
    21  H    0.000000   0.000000   0.000000  -0.000062  -0.000051  -0.004931
    22  H    0.000000   0.000000   0.000000  -0.000064  -0.000055  -0.005035
    23  C    0.022269  -0.002321  -0.097199  -0.057047  -0.107010   0.039148
    24  H   -0.000156   0.000018   0.026173  -0.006673   0.001332   0.000063
    25  C    0.002084  -0.023867   0.052219  -0.037780   0.005920  -0.001060
    26  H    0.000002   0.000085   0.000313  -0.000004   0.000001   0.000000
    27  H    0.000001   0.000363   0.000135  -0.000020   0.000001   0.000000
    28  H   -0.000004   0.002937   0.000360  -0.000003   0.000001   0.000000
    29  H    0.000000   0.000000   0.000001  -0.000013   0.000239  -0.000374
              13         14         15         16         17         18
     1  C    0.001515   0.001464  -0.001795  -0.000194   0.000000   0.000289
     2  C    0.072005  -0.017615  -0.013257   0.005222  -0.000012   0.004492
     3  C   -0.011361   0.020084  -0.016183  -0.003305  -0.000001   0.002436
     4  C    0.001039  -0.001742   0.001413   0.000277   0.000000  -0.000192
     5  C    0.000518  -0.000073  -0.000049   0.000030   0.000000   0.000027
     6  H    0.000000   0.000000   0.000000   0.000000   0.000000   0.000000
     7  H    0.000003   0.000004  -0.000001   0.000000   0.000000   0.000000
     8  H    0.000000   0.000000   0.000000   0.000000   0.000000   0.000000
     9  C   -0.119102   0.029687   0.040583  -0.012708   0.000150  -0.015307
    10  C    0.003309  -0.086756  -0.048676   0.045281   0.000598   0.035701
    11  C    0.720460  -0.288527  -0.237624   0.034998  -0.003518   0.020192
    12  C   -1.898267   0.878144   1.036189  -0.366443   0.022953  -0.417738
    13  C   10.628586  -2.709615  -2.772244   0.916361  -0.018129   0.955432
    14  C   -2.709615  24.918033 -13.751443  -6.595284   0.328782   4.081357
    15  C   -2.772244 -13.751443  24.799074   4.035783   0.022291  -6.607101
    16  C    0.916361  -6.595284   4.035783   8.686095  -0.070440  -1.587766
    17  H   -0.018129   0.328782   0.022291  -0.070440   0.524138  -0.005365
    18  C    0.955432   4.081357  -6.607101  -1.587766  -0.005365   8.683694
    19  H   -0.020694   0.020793   0.330249  -0.004819  -0.000147  -0.068343
    20  C    0.148222  -0.376799  -0.398296   0.586544   0.007162   0.595126
    21  H    0.000123  -0.037429   0.000865   0.312976  -0.004746   0.004757
    22  H   -0.000114   0.001011  -0.036658   0.004390   0.000017   0.310490
    23  C   -0.014613  -0.016345   0.019933   0.002413   0.000000  -0.003356
    24  H    0.000001  -0.000001   0.000004   0.000000   0.000000   0.000000
    25  C    0.000059  -0.000004  -0.000003   0.000001   0.000000   0.000001
    26  H    0.000000   0.000000   0.000000   0.000000   0.000000   0.000000
    27  H    0.000000   0.000000   0.000000   0.000000   0.000000   0.000000
    28  H    0.000000   0.000000   0.000000   0.000000   0.000000   0.000000
    29  H   -0.000036   0.010400   0.013019  -0.011048  -0.000149  -0.010906
              19         20         21         22         23         24
     1  C    0.000000   0.000002   0.000000   0.000000  -1.874456  -0.091534
     2  C   -0.000013  -0.000693   0.000000   0.000000  -0.374741  -0.021771
     3  C    0.000000  -0.000014   0.000000   0.000000  -3.682375   0.021238
     4  C    0.000000   0.000002   0.000000   0.000000   0.657537  -0.007362
     5  C    0.000000  -0.000007   0.000000   0.000000   0.102277   0.004096
     6  H    0.000000   0.000000   0.000000   0.000000  -0.081030  -0.004316
     7  H    0.000000   0.000000   0.000000   0.000000   0.022269  -0.000156
     8  H    0.000000   0.000000   0.000000   0.000000  -0.002321   0.000018
     9  C    0.000162   0.003167   0.000000   0.000000  -0.097199   0.026173
    10  C    0.000596  -0.023088  -0.000062  -0.000064  -0.057047  -0.006673
    11  C   -0.003347   0.060633  -0.000051  -0.000055  -0.107010   0.001332
    12  C    0.023212  -0.246453  -0.004931  -0.005035   0.039148   0.000063
    13  C   -0.020694   0.148222   0.000123  -0.000114  -0.014613   0.000001
    14  C    0.020793  -0.376799  -0.037429   0.001011  -0.016345  -0.000001
    15  C    0.330249  -0.398296   0.000865  -0.036658   0.019933   0.000004
    16  C   -0.004819   0.586544   0.312976   0.004390   0.002413   0.000000
    17  H   -0.000147   0.007162  -0.004746   0.000017   0.000000   0.000000
    18  C   -0.068343   0.595126   0.004757   0.310490  -0.003356   0.000000
    19  H    0.523383   0.006897   0.000017  -0.004756  -0.000001   0.000000
    20  C    0.006897   5.516893   0.017201   0.019057  -0.000019   0.000000
    21  H    0.000017   0.017201   0.532587  -0.000170   0.000000   0.000000
    22  H   -0.004756   0.019057  -0.000170   0.533532   0.000000   0.000000
    23  C   -0.000001  -0.000019   0.000000   0.000000  11.233146   0.358054
    24  H    0.000000   0.000000   0.000000   0.000000   0.358054   0.522958
    25  C    0.000000   0.000000   0.000000   0.000000   0.072599   0.002025
    26  H    0.000000   0.000000   0.000000   0.000000   0.004355  -0.000004
    27  H    0.000000   0.000000   0.000000   0.000000  -0.000327   0.000002
    28  H    0.000000   0.000000   0.000000   0.000000  -0.006103   0.000002
    29  H   -0.000149   0.290771  -0.004898  -0.005016   0.000000   0.000000
              25         26         27         28         29
     1  C   -0.108246  -0.014743  -0.010505   0.026193   0.000000
     2  C   -0.359357  -0.001755  -0.000138  -0.001569   0.000000
     3  C    0.049882  -0.006412   0.000253   0.003633   0.000000
     4  C   -0.091406   0.027766  -0.014955  -0.011875   0.000000
     5  C   -0.846979  -0.134245  -0.040913  -0.135223   0.000000
     6  H   -0.023940   0.002982   0.000357   0.000089   0.000000
     7  H    0.002084   0.000002   0.000001  -0.000004   0.000000
     8  H   -0.023867   0.000085   0.000363   0.002937   0.000000
     9  C    0.052219   0.000313   0.000135   0.000360   0.000001
    10  C   -0.037780  -0.000004  -0.000020  -0.000003  -0.000013
    11  C    0.005920   0.000001   0.000001   0.000001   0.000239
    12  C   -0.001060   0.000000   0.000000   0.000000  -0.000374
    13  C    0.000059   0.000000   0.000000   0.000000  -0.000036
    14  C   -0.000004   0.000000   0.000000   0.000000   0.010400
    15  C   -0.000003   0.000000   0.000000   0.000000   0.013019
    16  C    0.000001   0.000000   0.000000   0.000000  -0.011048
    17  H    0.000000   0.000000   0.000000   0.000000  -0.000149
    18  C    0.000001   0.000000   0.000000   0.000000  -0.010906
    19  H    0.000000   0.000000   0.000000   0.000000  -0.000149
    20  C    0.000000   0.000000   0.000000   0.000000   0.290771
    21  H    0.000000   0.000000   0.000000   0.000000  -0.004898
    22  H    0.000000   0.000000   0.000000   0.000000  -0.005016
    23  C    0.072599   0.004355  -0.000327  -0.006103   0.000000
    24  H    0.002025  -0.000004   0.000002   0.000002   0.000000
    25  C    6.680737   0.466527   0.402010   0.466441   0.000000
    26  H    0.466527   0.498422  -0.028209  -0.025907   0.000000
    27  H    0.402010  -0.028209   0.487577  -0.028190   0.000000
    28  H    0.466441  -0.025907  -0.028190   0.498099   0.000000
    29  H    0.000000   0.000000   0.000000   0.000000   0.537053
 Mulliken charges:
               1
     1  C   -0.216612
     2  C   -0.123748
     3  C   -0.193651
     4  C   -0.211111
     5  C    0.365928
     6  H    0.178865
     7  H    0.195771
     8  H    0.179465
     9  C   -0.908177
    10  C    0.810464
    11  C    0.784600
    12  C   -0.880866
    13  C    0.116542
    14  C   -0.408126
    15  C   -0.416075
    16  C    0.021639
    17  H    0.196415
    18  C    0.022079
    19  H    0.196962
    20  C   -0.206307
    21  H    0.183763
    22  H    0.183373
    23  C   -0.194788
    24  H    0.195851
    25  C   -0.707864
    26  H    0.210826
    27  H    0.232559
    28  H    0.211119
    29  H    0.181106
 Sum of Mulliken charges =   0.00000
 Mulliken charges with hydrogens summed into heavy atoms:
               1
     1  C   -0.037747
     2  C   -0.123748
     3  C    0.002119
     4  C   -0.031646
     5  C    0.365928
     9  C   -0.908177
    10  C    0.810464
    11  C    0.784600
    12  C   -0.880866
    13  C    0.116542
    14  C   -0.211711
    15  C   -0.219114
    16  C    0.205402
    18  C    0.205452
    20  C   -0.025201
    23  C    0.001063
    25  C   -0.053360
 Electronic spatial extent (au):  <R**2>=          10085.5897
 Charge=              0.0000 electrons
 Dipole moment (field-independent basis, Debye):
    X=             -0.6731    Y=             -0.0151    Z=              0.0739  Tot=              0.6773
 Quadrupole moment (field-independent basis, Debye-Ang):
   XX=            -61.8301   YY=            -89.5334   ZZ=           -106.9662
   XY=              0.0158   XZ=             -0.5793   YZ=             -0.0337
 Traceless Quadrupole moment (field-independent basis, Debye-Ang):
   XX=             24.2798   YY=             -3.4235   ZZ=            -20.8563
   XY=              0.0158   XZ=             -0.5793   YZ=             -0.0337
 Octapole moment (field-independent basis, Debye-Ang**2):
  XXX=              8.0000  YYY=              0.0806  ZZZ=              1.2190  XYY=              2.6060
  XXY=             -0.0538  XXZ=              3.5635  XZZ=            -11.3911  YZZ=             -0.2336
  YYZ=             -0.6542  XYZ=             -4.4727
 Hexadecapole moment (field-independent basis, Debye-Ang**3):
 XXXX=         -11503.9782 YYYY=           -582.3031 ZZZZ=           -141.5651 XXXY=              0.8701
 XXXZ=            -34.9270 YYYX=             -0.9325 YYYZ=             -0.0784 ZZZX=             -9.1050
 ZZZY=             -0.1434 XXYY=          -2117.9365 XXZZ=          -2478.9117 YYZZ=           -142.8889
 XXYZ=             -6.7021 YYXZ=              5.7437 ZZXY=              1.0356
 N-N= 8.705626286822D+02 E-N=-3.255316374140D+03  KE= 6.480051320177D+02
 Calling FoFJK, ICntrl=      2127 FMM=F ISym2X=0 I1Cent= 0 IOpClX= 0 NMat=1 NMatS=1 NMatT=0.
 ***** Axes restored to original set *****
 -------------------------------------------------------------------
 Center     Atomic                   Forces (Hartrees/Bohr)
 Number     Number              X              Y              Z
 -------------------------------------------------------------------
      1        6           0.007948960   -0.011923962   -0.014691104
      2        6           0.028874299    0.008116665   -0.046376024
      3        6          -0.005892779    0.002924152    0.007693835
      4        6           0.008634153    0.016960964   -0.010426311
      5        6          -0.009375171   -0.002966007    0.016249888
      6        1          -0.002968183    0.009708143    0.006514867
      7        1           0.002803632   -0.005853977   -0.005986738
      8        1          -0.002637948   -0.010712400    0.001793583
      9        6          -0.025208105   -0.009902951    0.042555110
     10        6           0.048393632    0.016022888   -0.075935304
     11        6          -0.046429667   -0.015323954    0.072783737
     12        6           0.021429971    0.006742198   -0.035251477
     13        6          -0.028513290   -0.008018378    0.046579639
     14        6           0.004805128    0.006277027   -0.007141638
     15        6           0.005688835   -0.003944736   -0.009647747
     16        6          -0.004720696    0.016647708    0.008624926
     17        1          -0.002739439   -0.010459368    0.003894220
     18        6          -0.003776408   -0.015361717    0.005149111
     19        1          -0.003840434    0.007486980    0.006581147
     20        6          -0.007938073   -0.005607060    0.011056604
     21        1           0.004371716   -0.011005466   -0.007055090
     22        1           0.002700544    0.013145316   -0.003112547
     23        6          -0.006999881   -0.006344421    0.006944628
     24        1           0.003512638    0.010000228   -0.003462590
     25        6           0.023107711    0.006544815   -0.027612581
     26        1           0.000674640    0.010414975    0.013858951
     27        1          -0.018841734    0.000654718   -0.002450590
     28        1           0.000570883   -0.016292234    0.008975553
     29        1           0.006365066    0.002069853   -0.010106057
 -------------------------------------------------------------------
 Cartesian Forces:  Max     0.075935304 RMS     0.019372406

 GradGradGradGradGradGradGradGradGradGradGradGradGradGradGradGradGradGrad
 Berny optimization.
 FormGI is forming the generalized inverse of G from B-inverse, IUseBI=4.
 Internal  Forces:  Max     0.099246142 RMS     0.011695558
 Search for a local minimum.
 Step number   1 out of a maximum of  148
 All quantities printed in internal units (Hartrees-Bohrs-Radians)
 Mixed Optimization -- RFO/linear search
 Second derivative matrix not updated -- first step.
 ITU=  0
     Eigenvalues ---    0.00230   0.00241   0.00332   0.00385   0.00394
     Eigenvalues ---    0.00413   0.01333   0.01497   0.01683   0.02042
     Eigenvalues ---    0.02049   0.02051   0.02064   0.02069   0.02070
     Eigenvalues ---    0.02076   0.02078   0.02082   0.02086   0.02086
     Eigenvalues ---    0.02088   0.02091   0.02097   0.02102   0.03542
     Eigenvalues ---    0.04313   0.04470   0.04495   0.07235   0.07261
     Eigenvalues ---    0.15999   0.16000   0.16000   0.16000   0.16000
     Eigenvalues ---    0.16000   0.16000   0.16000   0.16000   0.16000
     Eigenvalues ---    0.16000   0.16000   0.21997   0.21999   0.22000
     Eigenvalues ---    0.22973   0.23488   0.24000   0.24996   0.24998
     Eigenvalues ---    0.25000   0.28544   0.28771   0.29593   0.29729
     Eigenvalues ---    0.36777   0.37057   0.37136   0.37175   0.37194
     Eigenvalues ---    0.37200   0.37230   0.37253   0.37268   0.37414
     Eigenvalues ---    0.37528   0.37551   0.41184   0.41326   0.41587
     Eigenvalues ---    0.41686   0.45095   0.45136   0.45287   0.45537
     Eigenvalues ---    0.45602   0.45604   0.45663   0.45800   0.95386
     Eigenvalues ---    0.96238
 RFO step:  Lambda=-5.29948980D-02 EMin= 2.30000000D-03
 Linear search not attempted -- first point.
 Maximum step size (   0.300) exceeded in Quadratic search.
    -- Step size scaled by   0.775
 Iteration  1 RMS(Cart)=  0.10126519 RMS(Int)=  0.00173915
 Iteration  2 RMS(Cart)=  0.00468484 RMS(Int)=  0.00002104
 Iteration  3 RMS(Cart)=  0.00000003 RMS(Int)=  0.00002104
 Variable       Old X    -DE/DX   Delta X   Delta X   Delta X     New X
                                 (Linear)    (Quad)   (Total)
    R1        2.64587   0.00168   0.00000   0.00268   0.00268   2.64856
    R2        2.02246   0.01203   0.00000   0.02194   0.02194   2.04440
    R3        2.64763  -0.00451   0.00000  -0.00675  -0.00675   2.64088
    R4        2.65303  -0.00251   0.00000  -0.00398  -0.00399   2.64904
    R5        2.90482  -0.05819   0.00000  -0.13234  -0.13234   2.77248
    R6        2.64651   0.00080   0.00000   0.00124   0.00123   2.64774
    R7        2.65150  -0.00619   0.00000  -0.00965  -0.00965   2.64184
    R8        2.02884   0.00873   0.00000   0.01607   0.01607   2.04492
    R9        2.64534   0.00219   0.00000   0.00331   0.00332   2.64866
   R10        2.02460   0.01113   0.00000   0.02036   0.02036   2.04496
   R11        2.90965  -0.00918   0.00000  -0.02102  -0.02102   2.88862
   R12        2.30184  -0.00779   0.00000  -0.00594  -0.00594   2.29590
   R13        2.88782  -0.09925   0.00000  -0.22038  -0.22038   2.66743
   R14        2.30546  -0.01156   0.00000  -0.00890  -0.00890   2.29656
   R15        2.88507  -0.05335   0.00000  -0.11802  -0.11802   2.76705
   R16        2.64516   0.00253   0.00000   0.00414   0.00414   2.64929
   R17        2.64636   0.00178   0.00000   0.00303   0.00303   2.64939
   R18        2.64243  -0.00235   0.00000  -0.00358  -0.00358   2.63885
   R19        2.02166   0.01146   0.00000   0.02086   0.02086   2.04252
   R20        2.64564  -0.00304   0.00000  -0.00460  -0.00460   2.64104
   R21        2.02342   0.01063   0.00000   0.01942   0.01942   2.04284
   R22        2.65529  -0.00401   0.00000  -0.00653  -0.00652   2.64877
   R23        2.01723   0.01376   0.00000   0.02488   0.02488   2.04212
   R24        2.64510  -0.00050   0.00000  -0.00104  -0.00104   2.64406
   R25        2.01758   0.01376   0.00000   0.02489   0.02489   2.04247
   R26        2.02201   0.01211   0.00000   0.02207   0.02207   2.04408
   R27        2.02283   0.01109   0.00000   0.02024   0.02024   2.04307
   R28        2.02255   0.01700   0.00000   0.03099   0.03099   2.05354
   R29        2.02145   0.01879   0.00000   0.03420   0.03420   2.05564
   R30        2.01927   0.01827   0.00000   0.03315   0.03315   2.05242
    A1        2.08934  -0.00054   0.00000  -0.00103  -0.00103   2.08831
    A2        2.09813   0.00273   0.00000   0.00808   0.00808   2.10622
    A3        2.09571  -0.00219   0.00000  -0.00705  -0.00706   2.08865
    A4        2.10146  -0.00183   0.00000  -0.00455  -0.00454   2.09692
    A5        2.09126   0.00145   0.00000   0.00345   0.00342   2.09469
    A6        2.09034   0.00039   0.00000   0.00115   0.00116   2.09150
    A7        2.09482  -0.00141   0.00000  -0.00459  -0.00461   2.09021
    A8        2.09739  -0.00061   0.00000  -0.00248  -0.00247   2.09492
    A9        2.09095   0.00202   0.00000   0.00710   0.00710   2.09805
   A10        2.09469   0.00396   0.00000   0.01081   0.01082   2.10550
   A11        2.09818  -0.00303   0.00000  -0.00921  -0.00922   2.08896
   A12        2.09030  -0.00093   0.00000  -0.00158  -0.00158   2.08871
   A13        2.09221  -0.00518   0.00000  -0.01323  -0.01322   2.07898
   A14        2.09472   0.00279   0.00000   0.00712   0.00711   2.10184
   A15        2.09626   0.00239   0.00000   0.00611   0.00610   2.10236
   A16        2.09510  -0.00066   0.00000  -0.00219  -0.00219   2.09291
   A17        2.08653   0.00086   0.00000   0.00168   0.00168   2.08821
   A18        2.10147  -0.00020   0.00000   0.00055   0.00054   2.10201
   A19        2.09238  -0.00144   0.00000  -0.00358  -0.00358   2.08879
   A20        2.09465  -0.00020   0.00000  -0.00156  -0.00156   2.09309
   A21        2.09615   0.00164   0.00000   0.00514   0.00514   2.10130
   A22        2.08859  -0.00089   0.00000  -0.00186  -0.00187   2.08672
   A23        2.09736  -0.00052   0.00000  -0.00258  -0.00258   2.09478
   A24        2.09723   0.00141   0.00000   0.00445   0.00445   2.10168
   A25        2.09266   0.00142   0.00000   0.00338   0.00338   2.09604
   A26        2.09775  -0.00153   0.00000  -0.00466  -0.00466   2.09309
   A27        2.09277   0.00011   0.00000   0.00128   0.00128   2.09405
   A28        2.09701   0.00058   0.00000   0.00116   0.00116   2.09817
   A29        2.09301  -0.00090   0.00000  -0.00281  -0.00281   2.09020
   A30        2.09316   0.00032   0.00000   0.00165   0.00165   2.09481
   A31        2.09418   0.00054   0.00000   0.00039   0.00040   2.09458
   A32        2.09451  -0.00037   0.00000  -0.00057  -0.00057   2.09394
   A33        2.09450  -0.00017   0.00000   0.00018   0.00018   2.09467
   A34        2.09438  -0.00152   0.00000  -0.00413  -0.00415   2.09023
   A35        2.09243   0.00184   0.00000   0.00601   0.00602   2.09844
   A36        2.09636  -0.00032   0.00000  -0.00186  -0.00185   2.09451
   A37        1.91117   0.00373   0.00000   0.01384   0.01375   1.92493
   A38        1.90870   0.00254   0.00000   0.00876   0.00870   1.91740
   A39        1.91125   0.00374   0.00000   0.01381   0.01372   1.92497
   A40        1.90926  -0.00332   0.00000  -0.01250  -0.01256   1.89669
   A41        1.91280  -0.00328   0.00000  -0.01096  -0.01108   1.90172
   A42        1.91061  -0.00340   0.00000  -0.01294  -0.01300   1.89762
   A43        3.14254  -0.00011   0.00000  -0.00090  -0.00090   3.14165
   A44        3.14186  -0.00007   0.00000  -0.00098  -0.00098   3.14088
   A45        3.14204  -0.00005   0.00000  -0.00040  -0.00040   3.14164
   A46        3.14184  -0.00008   0.00000  -0.00110  -0.00110   3.14074
   A47        3.14156   0.00044   0.00000   0.00343   0.00340   3.14496
   A48        3.14157   0.00017   0.00000   0.00232   0.00231   3.14388
   A49        3.14163  -0.00011   0.00000  -0.00076  -0.00077   3.14086
   A50        3.14160  -0.00029   0.00000  -0.00361  -0.00360   3.13800
    D1       -3.11004  -0.00052   0.00000  -0.00524  -0.00519  -3.11523
    D2        0.03044   0.00000   0.00000   0.00062   0.00062   0.03106
    D3        0.02952  -0.00053   0.00000  -0.00553  -0.00550   0.02402
    D4       -3.11319  -0.00001   0.00000   0.00032   0.00031  -3.11288
    D5        0.00354  -0.00026   0.00000  -0.00203  -0.00199   0.00154
    D6        3.13817   0.00019   0.00000   0.00246   0.00249   3.14066
    D7       -3.14010  -0.00027   0.00000  -0.00232  -0.00230   3.14079
    D8       -0.00546   0.00018   0.00000   0.00216   0.00219  -0.00328
    D9       -3.09310  -0.00108   0.00000  -0.01123  -0.01123  -3.10433
   D10        0.04150  -0.00065   0.00000  -0.00688  -0.00690   0.03460
   D11        0.03163  -0.00070   0.00000  -0.00773  -0.00773   0.02390
   D12       -3.11695  -0.00027   0.00000  -0.00338  -0.00341  -3.12035
   D13       -0.11676   0.00014   0.00000   0.00151   0.00148  -0.11527
   D14        3.03866  -0.00001   0.00000   0.00007   0.00006   3.03872
   D15        3.04164   0.00005   0.00000   0.00050   0.00051   3.04215
   D16       -0.08613  -0.00010   0.00000  -0.00094  -0.00091  -0.08704
   D17       -0.03407   0.00078   0.00000   0.00841   0.00841  -0.02566
   D18        3.11450   0.00032   0.00000   0.00388   0.00391   3.11841
   D19        3.09078   0.00113   0.00000   0.01183   0.01184   3.10261
   D20       -0.04384   0.00067   0.00000   0.00731   0.00733  -0.03651
   D21        0.00136   0.00011   0.00000   0.00066   0.00064   0.00200
   D22        3.13530   0.00034   0.00000   0.00328   0.00326   3.13856
   D23       -3.13327  -0.00031   0.00000  -0.00363  -0.00366  -3.13693
   D24        0.00067  -0.00008   0.00000  -0.00102  -0.00104  -0.00037
   D25       -0.03190   0.00057   0.00000   0.00614   0.00612  -0.02579
   D26        3.11081   0.00004   0.00000   0.00028   0.00030   3.11111
   D27        3.11731   0.00035   0.00000   0.00357   0.00353   3.12084
   D28       -0.02316  -0.00018   0.00000  -0.00229  -0.00229  -0.02545
   D29       -0.52072   0.00001   0.00000  -0.00124  -0.00123  -0.52195
   D30        1.57113  -0.00023   0.00000  -0.00277  -0.00278   1.56836
   D31       -2.61848  -0.00057   0.00000  -0.00483  -0.00486  -2.62334
   D32        2.61975   0.00053   0.00000   0.00461   0.00465   2.62440
   D33       -1.57158   0.00029   0.00000   0.00309   0.00310  -1.56848
   D34        0.52199  -0.00005   0.00000   0.00103   0.00102   0.52301
   D35       -3.12043  -0.00043   0.00000  -0.00459  -0.00459  -3.12503
   D36        0.01825  -0.00030   0.00000  -0.00330  -0.00330   0.01494
   D37        0.00717  -0.00015   0.00000  -0.00146  -0.00146   0.00571
   D38       -3.13733  -0.00002   0.00000  -0.00017  -0.00017  -3.13751
   D39        3.12107   0.00040   0.00000   0.00435   0.00436   3.12543
   D40       -0.02468   0.00045   0.00000   0.00484   0.00485  -0.01984
   D41       -0.00660   0.00013   0.00000   0.00127   0.00126  -0.00534
   D42        3.13083   0.00018   0.00000   0.00176   0.00175   3.13258
   D43        0.00216  -0.00005   0.00000  -0.00056  -0.00056   0.00160
   D44        3.13796   0.00012   0.00000   0.00121   0.00121   3.13917
   D45       -3.13651  -0.00017   0.00000  -0.00184  -0.00185  -3.13836
   D46       -0.00072   0.00000   0.00000  -0.00007  -0.00007  -0.00079
   D47       -0.00332   0.00009   0.00000   0.00097   0.00097  -0.00235
   D48        3.13607   0.00009   0.00000   0.00095   0.00095   3.13702
   D49       -3.14075   0.00005   0.00000   0.00049   0.00049  -3.14026
   D50       -0.00136   0.00005   0.00000   0.00047   0.00047  -0.00089
   D51       -0.01203   0.00027   0.00000   0.00278   0.00278  -0.00925
   D52        3.12956   0.00021   0.00000   0.00221   0.00221   3.13177
   D53        3.13534   0.00010   0.00000   0.00103   0.00103   3.13637
   D54       -0.00625   0.00005   0.00000   0.00046   0.00045  -0.00580
   D55        0.01262  -0.00028   0.00000  -0.00299  -0.00299   0.00963
   D56       -3.12897  -0.00023   0.00000  -0.00241  -0.00242  -3.13139
   D57       -3.12677  -0.00028   0.00000  -0.00296  -0.00296  -3.12973
   D58        0.01482  -0.00023   0.00000  -0.00239  -0.00239   0.01243
         Item               Value     Threshold  Converged?
 Maximum Force            0.099246     0.000450     NO 
 RMS     Force            0.011696     0.000300     NO 
 Maximum Displacement     0.238996     0.001800     NO 
 RMS     Displacement     0.105831     0.001200     NO 
 Predicted change in Energy=-2.756183D-02
 GradGradGradGradGradGradGradGradGradGradGradGradGradGradGradGradGradGrad

                          Input orientation:                          
 ---------------------------------------------------------------------
 Center     Atomic      Atomic             Coordinates (Angstroms)
 Number     Number       Type             X           Y           Z
 ---------------------------------------------------------------------
      1          6           0       -5.305896    1.753579    2.389771
      2          6           0       -4.154841    0.924308    0.428281
      3          6           0       -4.546159   -0.382145    0.752528
      4          6           0       -5.327784   -0.610582    1.888878
      5          6           0       -5.726860    0.454990    2.707293
      6          1           0       -5.588450    2.579189    3.029244
      7          1           0       -4.245556   -1.209478    0.123123
      8          1           0       -5.631573   -1.619253    2.136531
      9          6           0       -3.374179    1.179301   -0.787462
     10          6           0       -2.730479    1.390812   -1.795920
     11          6           0       -1.984252    1.637771   -2.968361
     12          6           0       -1.341321    1.850322   -3.977510
     13          6           0       -0.563218    2.107577   -5.190949
     14          6           0       -0.090929    1.034270   -5.959330
     15          6           0       -0.284666    3.428564   -5.569099
     16          6           0        0.667515    1.284869   -7.104733
     17          1           0       -0.313767    0.019220   -5.662242
     18          6           0        0.474657    3.671621   -6.716954
     19          1           0       -0.659234    4.251290   -4.976285
     20          6           0        0.956018    2.603613   -7.482027
     21          1           0        1.035463    0.460484   -7.698694
     22          1           0        0.687737    4.688804   -7.013811
     23          6           0       -4.522686    1.992310    1.257264
     24          1           0       -4.202671    2.997062    1.018652
     25          6           0       -6.614501    0.205331    3.926457
     26          1           0       -6.413194    0.944758    4.696921
     27          1           0       -7.661970    0.275563    3.641530
     28          1           0       -6.428874   -0.785361    4.331015
     29          1           0        1.551361    2.795266   -8.364561
 ---------------------------------------------------------------------
                    Distance matrix (angstroms):
                    1          2          3          4          5
     1  C    0.000000
     2  C    2.420756   0.000000
     3  C    2.796262   1.401814   0.000000
     4  C    2.416739   2.421781   1.398003   0.000000
     5  C    1.401557   2.808094   2.432274   1.401609   0.000000
     6  H    1.081848   3.399834   3.878054   3.397502   2.152912
     7  H    3.878365   2.157404   1.082124   2.155872   3.412133
     8  H    3.397968   3.401257   2.150355   1.082145   2.153447
     9  C    3.762463   1.467135   2.486607   3.766039   4.274698
    10  C    4.927919   2.682072   3.596479   4.932475   5.489353
    11  C    6.305261   4.093614   4.948580   6.310870   6.900662
    12  C    7.501298   5.308898   6.134179   7.507493   8.115817
    13  C    8.949057   6.773155   7.575450   8.956195   9.580003
    14  C    9.870196   7.571595   8.179507   9.577294  10.354208
    15  C    9.558344   7.564267   8.523191   9.867581  10.342064
    16  C   11.227062   8.951616   9.575901  10.973668  11.741064
    17  H    9.631421   7.257239   7.695681   9.086057   9.977003
    18  C   10.955644   8.946194   9.870906  11.227909  11.731239
    19  H    9.060288   7.245511   8.330438   9.620999   9.956410
    20  C   11.721200   9.566292  10.343916  11.731628  12.373346
    21  H   11.985910   9.654124  10.163054  11.556800  12.410222
    22  H   11.531112   9.644001  10.650081  11.980312  12.392421
    23  C    1.397491   1.401125   2.427621   2.796813   2.432277
    24  H    2.154838   2.155722   3.407029   3.877921   3.411274
    25  C    2.543801   4.336368   3.833666   2.544225   1.528593
    26  H    2.683886   4.829271   4.561220   3.388555   2.160914
    27  H    3.050002   4.800602   4.299673   3.050486   2.156303
    28  H    3.387583   4.829650   4.063591   2.684582   2.160502
    29  H   12.796982  10.647785  11.419151  12.808413  13.454938
                    6          7          8          9         10
     6  H    0.000000
     7  H    4.960131   0.000000
     8  H    4.292518   2.478461   0.000000
     9  C    4.629246   2.700875   4.634378   0.000000
    10  C    5.732578   3.569271   5.739426   1.214939   0.000000
    11  C    7.060296   4.772588   7.069023   2.626484   1.411546
    12  C    8.225810   5.883209   8.235637   3.841769   2.626831
    13  C    9.646084   7.266486   9.657610   5.306025   4.091086
    14  C   10.649130   7.700102  10.162819   6.127723   4.942502
    15  C   10.138198   8.342750  10.651132   6.121138   4.936731
    16  C   11.979559   9.088561  11.554799   7.500290   6.304052
    17  H   10.484162   7.102050   9.580424   5.871575   4.761324
    18  C   11.530093   9.638060  11.985975   7.495604   6.300124
    19  H    9.548905   8.287681  10.477575   5.861253   4.752590
    20  C   12.382144   9.971677  12.399420   8.099166   6.884254
    21  H   12.784904   9.584297  12.062600   8.229628   7.063325
    22  H   12.029296  10.491089  12.784914   8.220901   7.056014
    23  C    2.149463   3.408009   3.878934   2.482127   3.591064
    24  H    2.477394   4.301022   4.960018   2.693084   3.559383
    25  C    2.737329   4.698823   2.738446   5.802528   7.016879
    26  H    2.476432   5.500820   3.706842   6.274478   7.477857
    27  H    3.159283   5.124101   3.158775   6.230398   7.424907
    28  H    3.704202   4.759528   2.479279   6.276134   7.480187
    29  H   13.447765  11.031002  13.466828   9.180671   7.965782
                   11         12         13         14         15
    11  C    0.000000
    12  C    1.215285   0.000000
    13  C    2.679543   1.464260   0.000000
    14  C    3.590930   2.481337   1.401946   0.000000
    15  C    3.585996   2.478008   1.401997   2.433609   0.000000
    16  C    4.926051   3.759612   2.419529   1.396419   2.803613
    17  H    3.559104   2.692049   2.155360   1.080854   3.410740
    18  C    4.922878   3.757587   2.419114   2.801696   1.397576
    19  H    3.552170   2.688390   2.156573   3.411534   1.081022
    20  C    5.472771   4.257565   2.793416   2.424364   2.424693
    21  H    5.734172   4.629035   3.399629   2.150204   3.884251
    22  H    5.728350   4.625277   3.398596   3.882508   2.149644
    23  C    4.942192   6.127324   7.567703   8.522766   8.162284
    24  H    4.760812   5.870602   7.252306   8.333739   7.676941
    25  C    8.427907   9.642879  11.106919  11.873201  11.858399
    26  H    8.879885  10.089088  11.547482  12.390913  12.211442
    27  H    8.819453  10.023983  11.478729  12.250421  12.214815
    28  H    8.882968  10.092651  11.551744  12.221776  12.390348
    29  H    6.554336   5.339171   3.875071   3.403433   3.403920
                   16         17         18         19         20
    16  C    0.000000
    17  H    2.155357   0.000000
    18  C    2.425727   3.882534   0.000000
    19  H    3.884611   4.301198   2.156769   0.000000
    20  C    1.401667   3.406327   1.399174   3.406262   0.000000
    21  H    1.080642   2.482392   3.404368   4.965251   2.155518
    22  H    3.405209   4.963343   1.080828   2.481383   2.153886
    23  C    9.867201   8.335925   9.559377   7.673747  10.332720
    24  H    9.624951   8.284049   9.064879   7.075896   9.951302
    25  C   13.261987  11.475062  13.249662  11.449620  13.900289
    26  H   13.767031  12.057027  13.607161  11.730820  14.331220
    27  H   13.633825  11.858413  13.602798  11.794552  14.262646
    28  H   13.616935  11.743384  13.768844  12.053316  14.337704
    29  H    2.156304   4.299728   2.154507   4.299669   1.081679
                   21         22         23         24         25
    21  H    0.000000
    22  H    4.297519   0.000000
    23  C   10.651230  10.140527   0.000000
    24  H   10.481621   9.555027   1.081144   0.000000
    25  C   13.918735  13.896535   3.833220   4.697448   0.000000
    26  H   14.469564  14.197970   4.062342   4.756893   1.086688
    27  H   14.292663  14.238350   4.299656   5.123748   1.087799
    28  H   14.212049  14.467817   4.560368   5.498587   1.086092
    29  H    2.482083   2.481101  11.406941  11.008828  14.981929
                   26         27         28         29
    26  H    0.000000
    27  H    1.766667   0.000000
    28  H    1.768458   1.766770   0.000000
    29  H   15.409764  15.342118  15.416961   0.000000
 Stoichiometry    C17H12
 Framework group  C1[X(C17H12)]
 Deg. of freedom    81
 Full point group                 C1      NOp   1
 Largest Abelian subgroup         C1      NOp   1
 Largest concise Abelian subgroup C1      NOp   1
                         Standard orientation:                         
 ---------------------------------------------------------------------
 Center     Atomic      Atomic             Coordinates (Angstroms)
 Number     Number       Type             X           Y           Z
 ---------------------------------------------------------------------
      1          6           0       -4.922695   -1.207345   -0.074471
      2          6           0       -2.829194    0.007866   -0.050492
      3          6           0       -3.533825    1.218002    0.013920
      4          6           0       -4.931385    1.206317    0.047121
      5          6           0       -5.636399   -0.004746    0.019042
      6          1           0       -5.458997   -2.145727   -0.121528
      7          1           0       -2.996392    2.156865    0.040276
      8          1           0       -5.474091    2.141060    0.099693
      9          6           0       -1.362108    0.007997   -0.038505
     10          6           0       -0.147241    0.007975   -0.025315
     11          6           0        1.264200    0.006838   -0.008103
     12          6           0        2.479401    0.005894    0.006177
     13          6           0        3.943601    0.003291    0.019241
     14          6           0        4.645493    1.215353   -0.041632
     15          6           0        4.634404   -1.215209    0.079616
     16          6           0        6.041862    1.206109   -0.048929
     17          1           0        4.104565    2.150146   -0.084111
     18          6           0        6.031961   -1.216563    0.072366
     19          1           0        4.086467   -2.145440    0.134784
     20          6           0        6.736934   -0.009993    0.002456
     21          1           0        6.586888    2.137947   -0.098028
     22          1           0        6.567808   -2.153838    0.123081
     23          6           0       -3.525664   -1.206423   -0.110346
     24          1           0       -2.982344   -2.138403   -0.181688
     25          6           0       -7.163042   -0.014518    0.095626
     26          1           0       -7.561460   -0.875208   -0.434815
     27          1           0       -7.480582   -0.068168    1.134662
     28          1           0       -7.568175    0.891029   -0.346467
     29          1           0        7.818497   -0.015320   -0.012490
 ---------------------------------------------------------------------
 Rotational constants (GHZ):      2.7778597      0.1087499      0.1047537
 Standard basis: 6-31+G(d) (6D, 7F)
 There are   347 symmetry adapted cartesian basis functions of A   symmetry.
 There are   347 symmetry adapted basis functions of A   symmetry.
[...]
 00345,0.00003602,0.00001877,0.00000795,-0.00000461,0.00002047,0.000006
 43,-0.00002240,-0.00001035,0.00000105,0.00001412,-0.00000946,-0.000008
 54,0.00001336,0.29550188,-0.04216467,-0.13598208,0.05558016,0.04809609
 ,-0.23320772,-0.10064041,-0.00378012,-0.05045828,-0.00253775,0.0098662
 8,-0.00830955,-0.01633297,-0.01952767,0.01367611,0.03049820,0.01419711
 ,0.00788528,-0.02170431,-0.00197657,-0.00403017,0.00174707,0.00035371,
 0.00039435,-0.00042118,0.00682813,0.01333419,-0.00916620,-0.00570366,-
 0.00340601,0.00815008,0.00199691,0.00032264,-0.00310040,-0.00118898,-0
 .00044090,0.00183561,0.00051439,0.00021873,-0.00078565,-0.00017615,0.0
 0005051,0.00027955,-0.00017254,-0.00012445,0.00025556,0.00004479,0.000
 04800,-0.00007079,0.00001532,-0.00001950,-0.00002468,0.00005329,-0.000
 03538,-0.00008028,0.00000812,0.00001151,-0.00001262,-0.00008988,-0.000
 02681,0.00013704,-0.00001583,0.00000849,0.00002657,-0.00001830,-0.0000
 2232,0.00002568,0.06119424,0.71336464,0.12629356,0.00193344,-0.2572926
 5,0.05179274,-0.06344097,-0.15411185,-0.02287635,-0.03472115,0.0399951
 3,0.02159033,-0.01630885,-0.04285646,0.00975686,0.07104524,0.00010506,
 0.00947612,0.00475775,-0.01117385,0.00294758,0.00274105,0.00163222,0.0
 0007434,-0.00056887,-0.00087508,0.02297067,-0.01609504,-0.03705162,-0.
 00424841,-0.00312425,0.00830084,0.00258264,0.00185592,-0.00362759,-0.0
 0138960,-0.00039854,0.00196533,0.00043060,0.00006639,-0.00064234,-0.00
 006552,0.00024567,0.00015592,-0.00006263,-0.00029176,0.00006350,0.0001
 0511,0.00004506,-0.00009130,-0.00002028,0.00000818,0.00001402,0.000041
 95,0.00000290,-0.00014553,-0.00000371,-0.00001237,0.00001961,-0.000037
 73,-0.00001449,0.00006318,0.00001114,-0.00000031,-0.00001916,0.0000113
 3,0.00000914,-0.00001693,-0.24874085,-0.00922875,0.52229740,-0.0001228
 2,-0.01665227,0.00332079,0.00552274,0.00973677,-0.00176595,0.00352136,
 0.00108309,0.00374069,-0.00060429,0.00037483,0.00002596,0.00376887,0.0
 0004533,0.00578243,-0.00282563,0.00049906,-0.00210923,0.00048215,0.000
 49086,0.00000221,-0.00072032,0.00000532,-0.00052956,-0.00224548,0.0007
 9861,-0.00211151,0.00012292,-0.00000076,0.00010428,0.00005369,-0.00007
 496,0.00008147,0.00001728,0.00001876,-0.00002191,-0.00003177,-0.000005
 16,0.00002492,0.00000197,0.00001486,-0.00002158,0.00001778,-0.00000293
 ,-0.00001330,0.00000904,-0.00000261,0.00000373,-0.00000249,0.00000164,
 0.00000347,-0.00001290,0.00000079,-0.00000903,0.00000662,-0.00000601,0
 .00001026,0.00000516,0.00000171,-0.00000814,0.00000436,-0.00000182,-0.
 00000319,0.00000391,0.00000317,-0.00000232,-0.06022463,-0.06746249,0.0
 2735948,0.05350393,0.00004151,-0.00056828,-0.00066439,-0.00687257,-0.0
 1771629,0.00760978,0.00174228,-0.00158033,-0.00384961,0.00036984,0.000
 53257,-0.00041737,-0.00065459,0.00186518,0.00014902,0.00013332,0.00085
 696,0.00055983,-0.00038020,-0.00094702,0.00040355,0.00003012,-0.000042
 83,0.00011261,-0.00035014,0.00043004,0.00117883,0.00046234,0.00014450,
 -0.00074012,-0.00006600,0.00006138,0.00009765,0.00003942,-0.00001187,-
 0.00006498,0.00000181,0.00000062,-0.00000034,-0.00000509,-0.00001994,0
 .00000745,-0.00000323,0.00000417,0.00000382,-0.00000377,0.00000730,0.0
 0000484,0.00000173,-0.00000067,-0.00000260,-0.00000054,-0.00000239,0.0
 0000372,0.00000188,0.00000733,-0.00000411,0.00000150,0.00000017,-0.000
 00227,-0.00000251,0.00000070,0.00000365,-0.00000131,-0.00000105,0.0000
 0163,-0.06648338,-0.30779341,0.06346730,0.07196614,0.32496262,0.005831
 25,0.02543493,-0.00168763,-0.00430110,-0.01833507,0.00746910,0.0037775
 8,-0.00285918,-0.00059626,0.00009664,-0.00044614,-0.00083012,0.0059809
 5,-0.00060982,-0.00179577,-0.00218415,0.00001259,-0.00079025,-0.000123
 35,-0.00098545,0.00050916,-0.00052323,0.00011371,-0.00022214,-0.002263
 20,-0.00063090,-0.00015100,0.00015755,0.00000692,-0.00009252,0.0000912
 8,0.00009520,-0.00000609,-0.00001982,-0.00002534,0.00002652,0.00002293
 ,0.00000881,-0.00005005,-0.00002350,-0.00002219,0.00002027,-0.00001128
 ,0.00000183,0.00002820,0.00000366,0.00000561,0.00000706,0.00000317,-0.
 00000249,-0.00000584,-0.00000934,-0.00000069,-0.00000436,0.00001119,0.
 00000849,-0.00000272,-0.00000624,-0.00000210,0.00000936,-0.00000295,0.
 00000219,0.00000746,-0.00000261,-0.00000470,0.00000557,0.02751589,0.06
 481796,-0.07004596,-0.03410116,-0.06779782,0.06838342,-0.00267541,-0.0
 0503728,0.01054660,-0.00175148,-0.00029707,0.00132228,0.00616858,0.000
 49787,0.00089505,-0.00385492,0.00015843,0.01294825,-0.11312634,-0.0123
 5510,0.06101323,-0.00232549,0.00062009,-0.00190065,-0.00002475,-0.0000
 7903,-0.00011279,-0.00229235,-0.00005873,-0.00193808,0.00006209,0.0002
 5764,-0.00136384,-0.00038093,-0.00012611,0.00059767,0.00022216,0.00005
 143,-0.00024342,-0.00014800,-0.00003968,0.00018940,0.00010634,0.000028
 97,-0.00013415,-0.00002880,-0.00001060,0.00004830,-0.00002884,-0.00000
 938,0.00004882,0.00000154,-0.00001720,-0.00002731,0.00000498,-0.000000
 69,-0.00000490,0.00000002,0.00002582,-0.00001914,0.00000488,0.00000264
 ,-0.00000413,-0.00002713,-0.00001105,0.00005323,-0.00000453,0.00000658
 ,0.00000861,-0.00000406,-0.00000945,0.00000549,0.00630027,-0.00015370,
 0.00074521,0.00000774,0.00012491,-0.00014595,0.51232910,-0.01948857,-0
 .00293837,0.02633768,-0.00004731,-0.00049252,0.00020018,0.00181662,-0.
 00411953,-0.00212621,0.01435095,0.00833342,-0.01920229,-0.01314424,-0.
 09338761,0.01644496,0.00033192,0.00068322,0.00150517,0.00062267,0.0002
 6408,-0.00116234,0.00015447,0.00061415,-0.00140233,0.00009981,0.000182
 96,-0.00010052,-0.00004780,0.00001544,0.00009385,0.00002336,0.00005834
 ,-0.00003957,-0.00001255,-0.00003513,0.00002096,0.00000113,-0.00000306
 ,-0.00000613,0.00000025,0.00000137,0.00000151,-0.00000024,-0.00001063,
 -0.00000397,-0.00000337,0.00000856,0.00000295,-0.00000086,0.00000034,0
 .00000295,0.00000679,0.00000351,-0.00000154,-0.00000031,0.00000061,-0.
 00000171,0.00000113,0.00000019,-0.00000297,0.00000021,-0.00000106,-0.0
 0000103,0.00000069,0.00000016,-0.00000065,-0.00180230,-0.00498665,-0.0
 0080535,-0.00068385,-0.00016375,0.00119639,-0.00735018,0.58260511,0.00
 907626,0.00616944,-0.00836104,0.00002368,0.00016211,-0.00125621,0.0020
 6539,-0.00265350,0.00255944,0.01575999,0.00100344,-0.01848280,0.065286
 21,0.01660633,-0.16661586,-0.00167830,-0.00152117,0.00007426,0.0002731
 4,0.00021266,-0.00025594,-0.00179762,0.00162694,0.00012451,-0.00052645
 ,-0.00007261,0.00045870,0.00017924,0.00007964,-0.00035381,-0.00009235,
 -0.00003405,0.00021449,0.00004467,0.00001559,-0.00010672,0.00001348,-0
 .00000102,0.00000364,-0.00000319,-0.00003487,0.00000375,-0.00000525,0.
 00002902,0.00001558,-0.00001035,-0.00001792,-0.00000395,0.00000381,-0.
 00000103,-0.00000345,-0.00000938,0.00002010,0.00000227,0.00000383,0.00
 000284,-0.00000361,-0.00001125,-0.00000521,0.00002550,-0.00000339,0.00
 000377,0.00000613,-0.00000300,-0.00000630,0.00000425,0.00131391,-0.000
 22150,0.00330034,0.00003186,-0.00016077,0.00013883,0.02696401,0.014069
 85,0.51631725,0.00033087,0.00076588,-0.00035758,0.00015442,0.00032655,
 -0.00005630,-0.00078652,0.00057095,0.00060215,-0.00102928,-0.00157592,
 0.00274349,0.00140140,0.01523127,0.01544609,0.00030130,-0.00039244,0.0
 0002434,-0.00022748,-0.00003567,0.00018984,0.00010032,-0.00012331,0.00
 004398,-0.00001740,-0.00006241,0.00009164,0.00000859,0.00000705,-0.000
 05204,0.00000105,0.00000005,0.00003151,0.00000003,0.00000211,-0.000018
 01,-0.00000212,-0.00000132,0.00000624,0.00000101,-0.00000260,-0.000001
 35,0.00000033,0.00000316,-0.00000062,-0.00000091,0.00000021,0.00000011
 ,0.00000039,0.,-0.00000013,-0.00000104,-0.00000054,0.00000032,0.000000
 62,-0.00000010,0.00000030,0.00000041,0.00000004,-0.00000052,0.00000003
 ,-0.00000005,0.00000034,0.00000015,0.00000011,0.00000024,-0.00015933,0
 .00011008,-0.00024356,0.00000905,-0.00000822,-0.00003353,-0.05264808,-
 0.03049047,-0.03077976,0.05648319,-0.00079624,0.00032663,0.00173798,-0
 .00008966,0.00015374,0.00032060,-0.00017733,0.00017056,-0.00000371,-0.
 00080347,0.00004156,0.00023596,0.00256365,0.00456065,0.00495531,-0.000
 41763,-0.00000815,-0.00010557,-0.00000396,-0.00000434,0.00002086,-0.00
 011541,0.00040531,0.00022211,-0.00004427,0.00007793,-0.00018093,-0.000
 03322,-0.00002157,0.00004748,0.00003362,0.00000578,-0.00001843,-0.0000
 1377,-0.00000368,0.00001585,-0.00000154,-0.00000023,0.00000120,0.00000
 160,0.00000487,-0.00000110,0.00000227,-0.00000506,-0.00000369,0.000002
 34,0.00000149,-0.00000055,-0.00000185,0.00000110,0.00000094,0.00000084
 ,-0.00000031,-0.00000180,-0.00000115,-0.00000119,0.00000098,0.00000124
 ,0.00000024,-0.00000167,0.00000032,-0.00000070,-0.00000120,0.00000043,
 0.00000140,-0.00000130,0.00077580,0.00021790,-0.00023915,0.00000712,0.
 00001523,-0.00007024,-0.02944695,-0.17942897,-0.12825052,0.03424632,0.
 19142034,-0.00010880,-0.00177747,0.00129340,-0.00012750,0.00044542,0.0
 0002330,0.00046994,-0.00137376,0.00050210,0.00232435,0.00255009,-0.003
 68265,-0.00376351,-0.01889562,-0.01773364,-0.00018601,0.00141603,-0.00
 031118,0.00018722,0.00007505,-0.00030653,-0.00026103,-0.00001891,-0.00
 006065,-0.00010676,0.00007800,0.00005729,0.00004488,0.00000763,-0.0000
 4020,-0.00001145,-0.00000356,0.00000799,0.00001795,0.00000428,-0.00002
 293,-0.00003136,-0.00001002,0.00004910,0.00001272,0.00001603,-0.000017
 13,0.00001363,-0.00001017,-0.00002469,-0.00000219,0.00001327,0.0000052
 8,-0.00000276,0.00000158,0.00000449,-0.00000107,-0.00001338,0.00000100
 ,-0.00000277,-0.00000223,0.00000363,0.00001612,0.00000516,-0.00002475,
 0.00000298,-0.00000388,-0.00000536,0.00000324,0.00000622,-0.00000413,0
 .00049381,-0.00001322,-0.00001909,-0.00003537,0.00001424,-0.00001361,-
 0.02895688,-0.12672183,-0.17670840,0.02884325,0.14054248,0.19178823,0.
 00053543,0.00129380,0.00029458,0.00007810,0.00005934,-0.00047114,0.000
 35891,-0.00031860,0.00105370,0.00059401,-0.00127678,-0.00008811,-0.016
 95260,-0.00068440,0.00074612,-0.00050988,-0.00009046,-0.00033978,-0.00
 005214,0.00000233,0.00008175,-0.00053582,0.00019071,-0.00029379,-0.000
 29374,-0.00004706,0.00019842,0.00009441,0.00003002,-0.00013220,-0.0000
 5637,-0.00002183,0.00009753,0.00002549,0.00000810,-0.00003519,0.000020
 61,0.00000633,-0.00003027,-0.00001064,-0.00002721,0.00001327,-0.000012
 02,0.00001967,0.00002220,0.00000022,-0.00001715,-0.00000115,0.00000234
 ,-0.00000127,-0.00000599,-0.00000065,0.00001643,0.00000519,0.00000219,
 0.00000355,-0.00000507,-0.00001622,-0.00000530,0.00002532,-0.00000432,
 0.00000463,0.00000645,-0.00000397,-0.00000694,0.00000423,0.00029536,-0
 .00005025,0.00114835,-0.00004736,-0.00003449,0.00007669,-0.28832051,0.
 00450087,-0.06347712,-0.00433711,0.00000050,-0.00179485,0.31518851,-0.
 00049027,-0.00054725,0.00186727,-0.00009032,0.00108706,0.00022608,-0.0
 0072113,-0.00077547,0.00077630,0.00053775,-0.00016732,-0.00179746,-0.0
 0617212,0.00025730,-0.00094329,-0.00032721,-0.00014803,-0.00020930,0.0
 0004359,-0.00001362,0.00002529,0.00019074,-0.00005458,0.00004354,-0.00
 001079,0.00002425,-0.00000990,-0.00000602,-0.00006200,-0.00000483,-0.0
 0000018,0.00004746,0.00001354,-0.00000296,-0.00002220,-0.00000002,0.00
 000789,0.00000500,-0.00001120,-0.00000334,-0.00000383,0.00000331,-0.00
 000358,0.00000379,0.00000747,0.00000161,-0.00000434,-0.00000087,0.0000
 0044,-0.00000051,-0.00000121,-0.00000079,0.00000338,-0.00000021,0.0000
 0077,0.00000024,-0.00000101,-0.00000438,-0.00000105,0.00000672,-0.0000
 0056,0.00000078,0.00000118,-0.00000106,-0.00000177,0.00000118,0.001142
 47,-0.00038252,-0.00065406,-0.00007712,-0.00002179,-0.00001780,0.00370
 888,-0.04657159,0.00066048,-0.02383471,0.00091179,-0.00563630,-0.00392
 830,0.04596143,-0.00004513,-0.00072156,-0.00031931,0.00031877,0.000253
 15,-0.00013480,-0.00114701,0.00010679,-0.00053506,0.00010362,0.0007868
 4,-0.00073395,0.02962049,-0.00004198,0.00538474,0.00022734,0.00024328,
 0.00030000,0.00009330,-0.00002623,-0.00002452,0.00034346,-0.00037260,0
 .00022751,-0.00000072,-0.00001685,0.00011034,0.00005885,0.00000142,-0.
 00006109,-0.00001738,0.00000962,-0.00000347,0.00002412,0.00000209,-0.0
 0002895,-0.00003897,-0.00001154,0.00005705,0.00001570,0.00002239,-0.00
 002134,0.00001670,-0.00001169,-0.00002734,-0.00000243,0.00001651,0.000
 00594,-0.00000284,0.00000050,0.00000488,-0.00000187,-0.00001787,-0.000
 00070,-0.00000269,-0.00000258,0.00000431,0.00002065,0.00000662,-0.0000
 3149,0.00000397,-0.00000461,-0.00000687,0.00000353,0.00000699,-0.00000
 460,-0.00078292,-0.00011170,-0.00087018,0.00006892,0.00003362,-0.00002
 214,-0.05929545,0.00079359,-0.06056794,-0.02245955,0.00156019,-0.00577
 569,0.06504019,-0.00195356,0.06672604,-0.00110610,0.00037336,0.0030671
 7,0.00016615,-0.00029510,-0.00015775,-0.00010480,-0.00002569,-0.000286
 74,0.00032712,-0.00059866,-0.00050081,0.00259795,-0.01976797,0.0088698
 2,0.00008828,0.00007654,0.00009197,0.00000849,0.00002114,-0.00003213,0
 .00025365,0.00035696,0.00015197,-0.00002311,0.00002153,0.00009669,0.00
 000672,0.00001284,-0.00004806,0.00000309,-0.00001120,0.00002843,-0.000
 00060,0.00000459,-0.00001681,-0.00000249,-0.00000135,0.00000671,0.0000
 0072,-0.00000218,-0.00000195,0.00000108,0.00000275,-0.00000071,-0.0000
 0103,0.00000045,0.00000041,0.00000052,0.00000004,0.00000045,-0.0000008
 9,-0.00000055,0.00000016,0.00000025,-0.00000004,-0.00000004,0.00000068
 ,0.00000023,-0.00000095,0.00000026,-0.00000032,-0.00000004,0.00000012,
 0.00000021,0.00000022,-0.00075784,-0.00078892,0.00034569,-0.00022383,-
 0.00004938,0.00018470,-0.05756186,0.05116075,-0.02263899,0.00041592,-0
 .00569018,0.00295944,-0.00603839,0.03004139,-0.01216594,0.06194962,-0.
 00021508,0.00050173,0.00159532,0.00012062,0.00039151,-0.00018227,-0.00
 092298,0.00004263,0.00026341,0.00079495,0.00045306,-0.00210028,-0.0006
 7983,-0.00442546,0.00130398,0.00018689,0.00042797,-0.00002566,0.000006
 65,-0.00000636,0.00007089,0.00044601,0.00044243,0.00040208,0.00007437,
 0.00004473,0.00018330,0.00001617,-0.00000317,-0.00003756,-0.00002730,-
 0.00000391,0.00001656,0.00000645,0.00000136,-0.00000791,0.00001264,0.0
 0000404,-0.00001844,-0.00000643,-0.00001311,0.00000830,-0.00000660,0.0
 0000692,0.00001057,-0.00000007,-0.00000535,-0.00000081,0.00000220,-0.0
 0000083,-0.00000275,-0.00000174,0.00000631,0.00000087,0.00000263,0.000
 00256,-0.00000174,-0.00000700,-0.00000234,0.00001051,-0.00000177,0.000
 00226,0.00000387,-0.00000124,-0.00000318,0.00000211,-0.00003754,-0.000
 30183,-0.00027625,-0.00007826,-0.00001925,0.00010570,0.04952025,-0.260
 63248,0.09231927,0.00526403,-0.01884258,0.00930391,0.00037482,0.000475
 60,-0.00055187,-0.05484131,0.28145732,0.00252167,-0.00075235,-0.004061
 96,-0.00006466,-0.00030192,-0.00022503,0.00016979,0.00006975,0.0001010
 9,0.00010739,0.00143909,0.00117131,-0.00575865,0.02408905,-0.00994144,
 -0.00020964,0.00019561,-0.00006792,-0.00003474,-0.00001384,0.00000849,
 0.00005082,-0.00112735,-0.00071676,-0.00007946,-0.00008915,0.00009535,
 0.00005435,0.00000963,-0.00005654,-0.00002302,-0.00000189,0.00001504,0
 .00002174,0.00000655,-0.00002713,-0.00002874,-0.00000986,0.00004542,0.
 00001120,0.00001574,-0.00001714,0.00001189,-0.00000582,-0.00001934,-0.
 00000194,0.00001084,0.00000593,-0.00000221,0.00000032,0.00000340,-0.00
 000218,-0.00001310,0.00000038,-0.00000179,-0.00000250,0.00000316,0.000
 01459,0.00000486,-0.00002246,0.00000312,-0.00000349,-0.00000507,0.0000
 0239,0.00000487,-0.00000294,0.00042544,0.00108553,0.00093642,0.0001739
 1,0.00005081,-0.00029325,-0.02124562,0.09090907,-0.09053384,0.00597910
 ,-0.02078069,0.01101921,-0.00214433,0.00760759,-0.00364653,0.02004721,
 -0.10239805,0.09623577,-0.00000371,-0.00000737,0.00000297,0.00001182,0
 .00000408,-0.00001829,-0.00000637,0.00000559,0.00000778,-0.00000421,0.
 00000565,0.00000530,0.00000581,-0.00000002,0.00000092,-0.00000119,0.00
 000179,0.00000367,0.00000278,0.00000222,-0.00000132,-0.00000102,-0.000
 00307,0.00000275,-0.00001476,-0.00000080,0.00000109,0.00008036,-0.0000
 0283,0.00003039,-0.00007892,-0.00000335,0.00000144,-0.00059564,0.00006
 380,-0.00045592,-0.00045186,0.00016447,-0.00074179,0.00522345,-0.00191
 568,0.00249439,0.00505952,0.00140707,0.00323328,-0.00053473,0.00009403
 ,0.00603796,-0.00007702,0.00005081,0.00033030,-0.00135128,-0.00291051,
 0.00689102,-0.00011496,-0.00019390,0.00035474,-0.12437144,-0.02766602,
 0.13493658,-0.00251742,0.00006847,-0.00211934,-0.00252067,0.00053660,-
 0.00204629,-0.00000589,-0.00000873,0.00000494,0.00000294,-0.00000139,-
 0.00000207,-0.00000422,0.00000042,-0.00000310,0.00000020,0.00000056,0.
 00000279,-0.00000386,-0.00000072,0.00000330,0.00000031,-0.00000154,0.0
 0000239,0.12227196,-0.00000097,-0.00000143,0.00000150,0.00000361,0.000
 00211,-0.00000589,-0.00000102,0.00000019,0.00000197,-0.00000104,0.0000
 0276,0.00000180,0.00000130,0.00000037,0.00000010,-0.00000073,0.0000005
 4,0.00000117,0.00000070,0.00000147,-0.00000105,-0.00000048,-0.00000097
 ,0.00000058,-0.00000049,-0.00000128,0.00000275,-0.00000302,-0.00001110
 ,-0.00001103,-0.00000386,0.00003065,0.00002141,0.00006437,0.00017054,0
 .00005213,0.00016426,-0.00115571,-0.00029063,-0.00134291,-0.00545360,0
 .00032011,0.00083450,-0.00366639,-0.00285533,-0.01663753,-0.00001685,0
 .02575676,-0.00083173,-0.00011971,0.00127565,0.01382057,0.00890255,-0.
 02098046,0.00068869,0.00029478,-0.00106174,-0.02766590,-0.06857845,0.0
 3895107,0.00047938,0.00067215,-0.00009950,0.00012586,0.00070949,0.0004
 6325,-0.00000182,-0.00000478,0.00000215,0.00000019,0.00000012,-0.00000
 039,-0.00000129,-0.00000010,-0.00000100,-0.00000006,0.00000026,0.00000
 098,-0.00000107,-0.00000022,0.00000102,0.00000008,-0.00000060,0.000000
 70,0.03031036,0.06822322,0.00000412,0.00001149,-0.00000519,-0.00001710
 ,-0.00000604,0.00002871,0.00000729,-0.00000889,-0.00001392,0.00000481,
 -0.00000827,-0.00000891,-0.00000601,-0.00000015,0.00000016,0.00000306,
 -0.00000288,-0.00000479,-0.00000185,-0.00000350,0.00000350,0.00000284,
 0.00000461,-0.00000342,0.00000058,0.00000294,-0.00001518,0.00002978,-0
 .00001133,0.00004979,0.00000238,0.00002110,-0.00007650,-0.00045624,0.0
 0005256,-0.00016474,-0.00074184,-0.00029078,0.00019055,0.00257692,0.00
 122291,0.00309473,0.00314974,-0.00375822,0.00147071,0.00361975,-0.0006
 2535,-0.00251219,0.00020276,-0.00011591,-0.00020867,0.00931073,0.00540
 160,-0.01061450,0.00048239,0.00032988,-0.00058515,0.13493648,0.0389511
 3,-0.24339506,-0.00206019,0.00054830,-0.00054009,-0.00210587,-0.000184
 45,-0.00057379,0.00000644,0.00001342,-0.00000939,-0.00000214,0.0000020
 1,0.00000475,0.00000616,-0.00000068,0.00000463,0.00000001,-0.00000138,
 -0.00000440,0.00000501,0.00000105,-0.00000485,-0.00000014,0.00000291,-
 0.00000361,-0.14895987,-0.04154804,0.25389682||-0.00000154,-0.00000070
 ,0.00000207,0.00000240,0.00000330,0.00000490,-0.00000064,-0.00000040,-
 0.00000148,0.00000188,-0.00000311,-0.00000344,-0.00000046,0.00000374,0
 .00000633,-0.00000013,-0.00000044,-0.00000062,-0.00000058,-0.00000032,
 0.00000104,-0.00000043,0.00000071,0.00000001,-0.00000463,-0.00000171,0
 .00000319,-0.00000117,0.00000134,0.00000240,0.00000276,0.00000059,-0.0
 0000179,0.00000138,0.00000050,-0.00000209,-0.00000028,-0.00000478,-0.0
 0000794,-0.00000348,0.00000259,0.00000833,-0.00000032,0.00000117,0.000
 00374,0.00000325,0.00000120,-0.00000409,0.00000086,0.00000022,-0.00000
 161,0.00000008,0.00000195,0.00000034,0.00000048,-0.00000032,-0.0000013
 1,-0.00000074,-0.00000245,-0.00000167,-0.00000094,0.00000046,0.0000006
 9,-0.00000035,-0.00000081,-0.00000020,0.00000343,-0.00000271,-0.000007
 50,-0.00000125,0.00000002,0.00000186,0.00000164,-0.00000070,-0.0000031
 1,-0.00000051,-0.00000016,-0.00000060,0.00000011,-0.00000036,0.0000024
 5,-0.00000036,0.00000089,-0.00000066,-0.00000047,0.00000028,0.00000077
 |||@


 IT IS THE BEHAVIOR AND DISTRIBUTION OF THE ELECTRONS 
 AROUND THE NUCLEUS THAT GIVES THE FUNDAMENTAL 
 CHARACTER OF AN ATOM:  IT MUST BE THE SAME FOR MOLECULES.

                               -- C. A. COULSON, 1951
 Job cpu time:       0 days  0 hours 30 minutes 39.0 seconds.
 File lengths (MBytes):  RWF=    638 Int=      0 D2E=      0 Chk=     11 Scr=      1
 Normal termination of Gaussian 09 at Fri Aug 25 22:53:23 2023.
