 Entering Link 1 = C:\G09W\l1.exe PID=      4024.
  
 Copyright (c) 1988,1990,1992,1993,1995,1998,2003,2009,2013,
            Gaussian, Inc.  All Rights Reserved.
  
 This is part of the Gaussian(R) 09 program.  It is based on
 the Gaussian(R) 03 system (copyright 2003, Gaussian, Inc.),
 the Gaussian(R) 98 system (copyright 1998, Gaussian, Inc.),
 the Gaussian(R) 94 system (copyright 1995, Gaussian, Inc.),
 the Gaussian 92(TM) system (copyright 1992, Gaussian, Inc.),
 the Gaussian 90(TM) system (copyright 1990, Gaussian, Inc.),
 the Gaussian 88(TM) system (copyright 1988, Gaussian, Inc.),
 the Gaussian 86(TM) system (copyright 1986, Carnegie Mellon
 University), and the Gaussian 82(TM) system (copyright 1983,
 Carnegie Mellon University). Gaussian is a federally registered
 trademark of Gaussian, Inc.
  
 This software contains proprietary and confidential information,
 including trade secrets, belonging to Gaussian, Inc.
  
 This software is provided under written license and may be
 used, copied, transmitted, or stored only in accord with that
 written license.
  
 The following legend is applicable only to US Government
 contracts under FAR:
  
                    RESTRICTED RIGHTS LEGEND
  
 Use, reproduction and disclosure by the US Government is
 subject to restrictions as set forth in subparagraphs (a)
 and (c) of the Commercial Computer Software - Restricted
 Rights clause in FAR 52.227-19.
  
 Gaussian, Inc.
 340 Quinnipiac St., Bldg. 40, Wallingford CT 06492
  
  
 ---------------------------------------------------------------
 Warning -- This program may not be used in any manner that
 competes with the business of Gaussian, Inc. or will provide
 assistance to any competitor of Gaussian, Inc.  The licensee
 of this program is prohibited from giving any competitor of
 Gaussian, Inc. access to this program.  By using this program,
 the user acknowledges that Gaussian, Inc. is engaged in the
 business of creating and licensing software in the field of
 computational chemistry and represents and warrants to the
 licensee that it is not a competitor of Gaussian, Inc. and that
 it will not use this program in any manner prohibited above.
 ---------------------------------------------------------------
  

 Cite this work as:
 Gaussian 09, Revision D.01,
 M. J. Frisch, G. W. Trucks, H. B. Schlegel, G. E. Scuseria, 
 M. A. Robb, J. R. Cheeseman, G. Scalmani, V. Barone, B. Mennucci, 
 G. A. Petersson, H. Nakatsuji, M. Caricato, X. Li, H. P. Hratchian, 
 A. F. Izmaylov, J. Bloino, G. Zheng, J. L. Sonnenberg, M. Hada, 
 M. Ehara, K. Toyota, R. Fukuda, J. Hasegawa, M. Ishida, T. Nakajima, 
 Y. Honda, O. Kitao, H. Nakai, T. Vreven, J. A. Montgomery, Jr., 
 J. E. Peralta, F. Ogliaro, M. Bearpark, J. J. Heyd, E. Brothers, 
 K. N. Kudin, V. N. Staroverov, T. Keith, R. Kobayashi, J. Normand, 
 K. Raghavachari, A. Rendell, J. C. Burant, S. S. Iyengar, J. Tomasi, 
 M. Cossi, N. Rega, J. M. Millam, M. Klene, J. E. Knox, J. B. Cross, 
 V. Bakken, C. Adamo, J. Jaramillo, R. Gomperts, R. E. Stratmann, 
 O. Yazyev, A. J. Austin, R. Cammi, C. Pomelli, J. W. Ochterski, 
 R. L. Martin, K. Morokuma, V. G. Zakrzewski, G. A. Voth, 
 P. Salvador, J. J. Dannenberg, S. Dapprich, A. D. Daniels, 
 O. Farkas, J. B. Foresman, J. V. Ortiz, J. Cioslowski, 
 and D. J. Fox, Gaussian, Inc., Wallingford CT, 2013.
 
 ******************************************
 Gaussian 09:  EM64W-G09RevD.01 13-Apr-2013
                11-Sep-2023 
 ******************************************
 %nprocshared=6
 Will use up to    6 processors via shared memory.
 %mem=6GB
 %chk=D:\User Dont delete\Downloads\molecule_35.chk
 ----------------------------------------------
 # opt freq b3lyp/6-31g empiricaldispersion=gd3
 ----------------------------------------------
 1/14=-1,18=20,19=15,26=3,38=1/1,3;
 2/9=110,12=2,17=6,18=5,40=1/2;
 3/5=1,6=6,11=2,16=1,25=1,30=1,71=1,74=-5,124=31/1,2,3;
 4//1;
 5/5=2,38=5/2;
 6/7=2,8=2,9=2,10=2,28=1/1;
 7//1,2,3,16;
 1/14=-1,18=20,19=15,26=3/3(2);
 2/9=110/2;
 99//99;
 2/9=110/2;
 3/5=1,6=6,11=2,16=1,25=1,30=1,71=1,74=-5,124=31/1,2,3;
 4/5=5,16=3,69=1/1;
 5/5=2,38=5/2;
 7//1,2,3,16;
 1/14=-1,18=20,19=15,26=3/3(-5);
 2/9=110/2;
 6/7=2,8=2,9=2,10=2,19=2,28=1/1;
 99/9=1/99;
 -------------------
 Title Card Required
 -------------------
 Symbolic Z-matrix:
 Charge =  0 Multiplicity = 1
 C                    -5.38576  -1.19531   0.98831 
 C                    -3.97495  -1.13618   1.06826 
 C                    -3.25195  -0.55928   0.01421 
 C                    -3.9208   -0.01536  -1.09235 
 C                    -5.29464  -0.08303  -1.16924 
 C                    -6.03409  -0.67992  -0.1383 
 H                    -5.93548  -1.62136   1.7748 
 H                    -3.4729   -1.52162   1.9211 
 H                    -3.35017   0.44374  -1.88343 
 H                    -5.81678   0.31122  -2.02708 
 C                    -1.70349  -0.52458   0.04255 
 C                    -0.5166   -0.49723   0.06262 
 O                    -7.45649  -0.75285  -0.24225 
 C                    -7.95677   0.32748  -1.05159 
 H                    -7.70434   1.27461  -0.60594 
 H                    -7.51917   0.27421  -2.01708 
 H                    -9.02786   0.24006  -1.13703 
 C                     1.02035  -0.46157   0.08691 
 C                     2.21878  -0.43281   0.09995 
 C                     3.77278  -0.39417   0.0784 
 C                     4.49143  -0.50728   1.28483 
 C                     4.46179  -0.18688  -1.10704 
 C                     5.86777  -0.41671   1.29389 
 H                     3.95679  -0.66775   2.23062 
 C                     5.86307  -0.09773  -1.09591 
 H                     3.9265   -0.0802   -2.03866 
 C                     6.55664  -0.2083    0.10661 
 H                     6.42052  -0.51298   2.23423 
 H                     6.40177   0.06528  -2.02859 
 H                     7.63616  -0.13028   0.11602 
 

 GradGradGradGradGradGradGradGradGradGradGradGradGradGradGradGradGradGrad
 Berny optimization.
 Initialization pass.
                           ----------------------------
                           !    Initial Parameters    !
                           ! (Angstroms and Degrees)  !
 --------------------------                            --------------------------
 ! Name  Definition              Value          Derivative Info.                !
 --------------------------------------------------------------------------------
 ! R1    R(1,2)                  1.4143         estimate D2E/DX2                !
 ! R2    R(1,6)                  1.3983         estimate D2E/DX2                !
 ! R3    R(1,7)                  1.0499         estimate D2E/DX2                !
 ! R4    R(2,3)                  1.4023         estimate D2E/DX2                !
 ! R5    R(2,8)                  1.0621         estimate D2E/DX2                !
 ! R6    R(3,4)                  1.4027         estimate D2E/DX2                !
 ! R7    R(3,11)                 1.5491         estimate D2E/DX2                !
 ! R8    R(4,5)                  1.3776         estimate D2E/DX2                !
 ! R9    R(4,9)                  1.0781         estimate D2E/DX2                !
 ! R10   R(5,6)                  1.4021         estimate D2E/DX2                !
 ! R11   R(5,10)                 1.0789         estimate D2E/DX2                !
 ! R12   R(6,13)                 1.4281         estimate D2E/DX2                !
 ! R13   R(11,12)                1.1874         estimate D2E/DX2                !
 ! R14   R(12,18)                1.5376         estimate D2E/DX2                !
 ! R15   R(13,14)                1.4396         estimate D2E/DX2                !
 ! R16   R(14,15)                1.0767         estimate D2E/DX2                !
 ! R17   R(14,16)                1.0614         estimate D2E/DX2                !
 ! R18   R(14,17)                1.078          estimate D2E/DX2                !
 ! R19   R(18,19)                1.1988         estimate D2E/DX2                !
 ! R20   R(19,20)                1.5546         estimate D2E/DX2                !
 ! R21   R(20,21)                1.4088         estimate D2E/DX2                !
 ! R22   R(20,22)                1.3867         estimate D2E/DX2                !
 ! R23   R(21,23)                1.3793         estimate D2E/DX2                !
 ! R24   R(21,24)                1.0982         estimate D2E/DX2                !
 ! R25   R(22,25)                1.4042         estimate D2E/DX2                !
 ! R26   R(22,26)                1.0797         estimate D2E/DX2                !
 ! R27   R(23,27)                1.3884         estimate D2E/DX2                !
 ! R28   R(23,28)                1.095          estimate D2E/DX2                !
 ! R29   R(25,27)                1.3926         estimate D2E/DX2                !
 ! R30   R(25,29)                1.0893         estimate D2E/DX2                !
 ! R31   R(27,30)                1.0824         estimate D2E/DX2                !
 ! A1    A(2,1,6)              119.5144         estimate D2E/DX2                !
 ! A2    A(2,1,7)              119.7967         estimate D2E/DX2                !
 ! A3    A(6,1,7)              120.6884         estimate D2E/DX2                !
 ! A4    A(1,2,3)              119.2752         estimate D2E/DX2                !
 ! A5    A(1,2,8)              120.1166         estimate D2E/DX2                !
 ! A6    A(3,2,8)              120.6076         estimate D2E/DX2                !
 ! A7    A(2,3,4)              120.4386         estimate D2E/DX2                !
 ! A8    A(2,3,11)             120.7182         estimate D2E/DX2                !
 ! A9    A(4,3,11)             118.8399         estimate D2E/DX2                !
 ! A10   A(3,4,5)              120.0316         estimate D2E/DX2                !
 ! A11   A(3,4,9)              119.4461         estimate D2E/DX2                !
 ! A12   A(5,4,9)              120.5186         estimate D2E/DX2                !
 ! A13   A(4,5,6)              120.3845         estimate D2E/DX2                !
 ! A14   A(4,5,10)             120.6013         estimate D2E/DX2                !
 ! A15   A(6,5,10)             119.0104         estimate D2E/DX2                !
 ! A16   A(1,6,5)              120.3185         estimate D2E/DX2                !
 ! A17   A(1,6,13)             120.1089         estimate D2E/DX2                !
 ! A18   A(5,6,13)             119.5719         estimate D2E/DX2                !
 ! A19   A(6,13,14)            110.4102         estimate D2E/DX2                !
 ! A20   A(13,14,15)           110.24           estimate D2E/DX2                !
 ! A21   A(13,14,16)           109.2976         estimate D2E/DX2                !
 ! A22   A(13,14,17)           109.2066         estimate D2E/DX2                !
 ! A23   A(15,14,16)           108.9042         estimate D2E/DX2                !
 ! A24   A(15,14,17)           109.6977         estimate D2E/DX2                !
 ! A25   A(16,14,17)           109.4794         estimate D2E/DX2                !
 ! A26   A(19,20,21)           119.7387         estimate D2E/DX2                !
 ! A27   A(19,20,22)           120.8122         estimate D2E/DX2                !
 ! A28   A(21,20,22)           119.3801         estimate D2E/DX2                !
 ! A29   A(20,21,23)           120.6209         estimate D2E/DX2                !
 ! A30   A(20,21,24)           120.0582         estimate D2E/DX2                !
 ! A31   A(23,21,24)           119.3208         estimate D2E/DX2                !
 ! A32   A(20,22,25)           119.9046         estimate D2E/DX2                !
 ! A33   A(20,22,26)           120.3996         estimate D2E/DX2                !
 ! A34   A(25,22,26)           119.6908         estimate D2E/DX2                !
 ! A35   A(21,23,27)           119.9556         estimate D2E/DX2                !
 ! A36   A(21,23,28)           120.236          estimate D2E/DX2                !
 ! A37   A(27,23,28)           119.8078         estimate D2E/DX2                !
 ! A38   A(22,25,27)           119.9225         estimate D2E/DX2                !
 ! A39   A(22,25,29)           119.75           estimate D2E/DX2                !
 ! A40   A(27,25,29)           120.3259         estimate D2E/DX2                !
 ! A41   A(23,27,25)           120.2144         estimate D2E/DX2                !
 ! A42   A(23,27,30)           119.8841         estimate D2E/DX2                !
 ! A43   A(25,27,30)           119.9014         estimate D2E/DX2                !
 ! A44   L(3,11,12,9,-1)       179.9124         estimate D2E/DX2                !
 ! A45   L(11,12,18,9,-1)      179.9401         estimate D2E/DX2                !
 ! A46   L(12,18,19,26,-1)     179.714          estimate D2E/DX2                !
 ! A47   L(18,19,20,26,-1)     178.5906         estimate D2E/DX2                !
 ! A48   L(3,11,12,9,-2)       180.0065         estimate D2E/DX2                !
 ! A49   L(11,12,18,9,-2)      180.036          estimate D2E/DX2                !
 ! A50   L(12,18,19,26,-2)     179.9919         estimate D2E/DX2                !
 ! A51   L(18,19,20,26,-2)     180.198          estimate D2E/DX2                !
 ! D1    D(6,1,2,3)              0.0619         estimate D2E/DX2                !
 ! D2    D(6,1,2,8)            179.7816         estimate D2E/DX2                !
 ! D3    D(7,1,2,3)           -179.7119         estimate D2E/DX2                !
 ! D4    D(7,1,2,8)              0.0077         estimate D2E/DX2                !
 ! D5    D(2,1,6,5)             -1.3461         estimate D2E/DX2                !
 ! D6    D(2,1,6,13)           178.967          estimate D2E/DX2                !
 ! D7    D(7,1,6,5)            178.4257         estimate D2E/DX2                !
 ! D8    D(7,1,6,13)            -1.2612         estimate D2E/DX2                !
 ! D9    D(1,2,3,4)              1.6291         estimate D2E/DX2                !
 ! D10   D(1,2,3,11)          -177.6999         estimate D2E/DX2                !
 ! D11   D(8,2,3,4)           -178.0891         estimate D2E/DX2                !
 ! D12   D(8,2,3,11)             2.5819         estimate D2E/DX2                !
 ! D13   D(2,3,4,5)             -2.0498         estimate D2E/DX2                !
 ! D14   D(2,3,4,9)            178.6507         estimate D2E/DX2                !
 ! D15   D(11,3,4,5)           177.2917         estimate D2E/DX2                !
 ! D16   D(11,3,4,9)            -2.0079         estimate D2E/DX2                !
 ! D17   D(2,3,20,21)          -21.6388         estimate D2E/DX2                !
 ! D18   D(2,3,20,22)          161.2865         estimate D2E/DX2                !
 ! D19   D(4,3,20,21)          159.2345         estimate D2E/DX2                !
 ! D20   D(4,3,20,22)          -17.8403         estimate D2E/DX2                !
 ! D21   D(3,4,5,6)              0.7529         estimate D2E/DX2                !
 ! D22   D(3,4,5,10)          -178.5303         estimate D2E/DX2                !
 ! D23   D(9,4,5,6)           -179.9552         estimate D2E/DX2                !
 ! D24   D(9,4,5,10)             0.7617         estimate D2E/DX2                !
 ! D25   D(4,5,6,1)              0.9473         estimate D2E/DX2                !
 ! D26   D(4,5,6,13)          -179.3642         estimate D2E/DX2                !
 ! D27   D(10,5,6,1)          -179.7583         estimate D2E/DX2                !
 ! D28   D(10,5,6,13)           -0.0698         estimate D2E/DX2                !
 ! D29   D(1,6,13,14)          151.9841         estimate D2E/DX2                !
 ! D30   D(5,6,13,14)          -27.7051         estimate D2E/DX2                !
 ! D31   D(6,13,14,15)         -60.7852         estimate D2E/DX2                !
 ! D32   D(6,13,14,16)          58.8827         estimate D2E/DX2                !
 ! D33   D(6,13,14,17)         178.6266         estimate D2E/DX2                !
 ! D34   D(19,20,21,23)       -177.1498         estimate D2E/DX2                !
 ! D35   D(19,20,21,24)          2.7647         estimate D2E/DX2                !
 ! D36   D(22,20,21,23)         -0.1457         estimate D2E/DX2                !
 ! D37   D(22,20,21,24)        179.7688         estimate D2E/DX2                !
 ! D38   D(19,20,22,25)        177.2465         estimate D2E/DX2                !
 ! D39   D(19,20,22,26)         -1.9354         estimate D2E/DX2                !
 ! D40   D(21,20,22,25)          0.2754         estimate D2E/DX2                !
 ! D41   D(21,20,22,26)       -178.9065         estimate D2E/DX2                !
 ! D42   D(20,21,23,27)          0.1877         estimate D2E/DX2                !
 ! D43   D(20,21,23,28)       -179.5439         estimate D2E/DX2                !
 ! D44   D(24,21,23,27)       -179.7274         estimate D2E/DX2                !
 ! D45   D(24,21,23,28)          0.541          estimate D2E/DX2                !
 ! D46   D(20,22,25,27)         -0.4503         estimate D2E/DX2                !
 ! D47   D(20,22,25,29)       -179.9917         estimate D2E/DX2                !
 ! D48   D(26,22,25,27)        178.7375         estimate D2E/DX2                !
 ! D49   D(26,22,25,29)         -0.804          estimate D2E/DX2                !
 ! D50   D(21,23,27,25)         -0.3622         estimate D2E/DX2                !
 ! D51   D(21,23,27,30)        179.5597         estimate D2E/DX2                !
 ! D52   D(28,23,27,25)        179.3706         estimate D2E/DX2                !
 ! D53   D(28,23,27,30)         -0.7075         estimate D2E/DX2                !
 ! D54   D(22,25,27,23)          0.493          estimate D2E/DX2                !
 ! D55   D(22,25,27,30)       -179.4289         estimate D2E/DX2                !
 ! D56   D(29,25,27,23)       -179.9682         estimate D2E/DX2                !
 ! D57   D(29,25,27,30)          0.1099         estimate D2E/DX2                !
 --------------------------------------------------------------------------------
 Trust Radius=3.00D-01 FncErr=1.00D-07 GrdErr=1.00D-06
 Number of steps in this run=    149 maximum allowed number of steps=    180.
 GradGradGradGradGradGradGradGradGradGradGradGradGradGradGradGradGradGrad

                          Input orientation:                          
 ---------------------------------------------------------------------
 Center     Atomic      Atomic             Coordinates (Angstroms)
 Number     Number       Type             X           Y           Z
 ---------------------------------------------------------------------
      1          6           0       -5.385757   -1.195312    0.988314
      2          6           0       -3.974953   -1.136181    1.068259
      3          6           0       -3.251948   -0.559276    0.014210
      4          6           0       -3.920800   -0.015360   -1.092354
      5          6           0       -5.294637   -0.083027   -1.169239
      6          6           0       -6.034085   -0.679923   -0.138304
      7          1           0       -5.935478   -1.621363    1.774800
      8          1           0       -3.472904   -1.521619    1.921105
      9          1           0       -3.350167    0.443736   -1.883433
     10          1           0       -5.816782    0.311216   -2.027083
     11          6           0       -1.703489   -0.524578    0.042549
     12          6           0       -0.516602   -0.497226    0.062617
     13          8           0       -7.456494   -0.752846   -0.242250
     14          6           0       -7.956771    0.327478   -1.051587
     15          1           0       -7.704344    1.274614   -0.605938
     16          1           0       -7.519173    0.274209   -2.017084
     17          1           0       -9.027860    0.240055   -1.137028
     18          6           0        1.020346   -0.461570    0.086911
     19          6           0        2.218776   -0.432810    0.099945
     20          6           0        3.772784   -0.394169    0.078401
     21          6           0        4.491435   -0.507280    1.284830
     22          6           0        4.461794   -0.186878   -1.107044
     23          6           0        5.867767   -0.416706    1.293891
     24          1           0        3.956792   -0.667746    2.230619
     25          6           0        5.863072   -0.097729   -1.095907
     26          1           0        3.926500   -0.080202   -2.038660
     27          6           0        6.556642   -0.208303    0.106615
     28          1           0        6.420522   -0.512977    2.234228
     29          1           0        6.401773    0.065280   -2.028588
     30          1           0        7.636164   -0.130282    0.116024
 ---------------------------------------------------------------------
                    Distance matrix (angstroms):
                    1          2          3          4          5
     1  C    0.000000
     2  C    1.414304   0.000000
     3  C    2.430342   1.402346   0.000000
     4  C    2.804918   2.434630   1.402744   0.000000
     5  C    2.429098   2.803052   2.408307   1.377650   0.000000
     6  C    1.398293   2.429814   2.788925   2.412018   1.402104
     7  H    1.049892   2.139687   3.380687   3.854705   3.382976
     8  H    2.153039   1.062055   2.147365   3.398582   3.865033
     9  H    3.882916   3.405728   2.148657   1.078052   2.137409
    10  H    3.398239   3.881808   3.391608   2.138952   1.078869
    11  C    3.860499   2.566260   1.549107   2.542396   3.815723
    12  C    5.005288   3.657837   2.736478   3.626944   4.951631
    13  O    2.449085   3.739720   4.216805   3.710484   2.445729
    14  C    3.618038   4.742459   4.904856   4.050711   2.696166
    15  H    3.744065   4.745864   4.855056   4.026889   2.822620
    16  H    3.967792   4.906123   4.798965   3.726562   2.407284
    17  H    4.454467   5.682358   5.943521   5.113638   3.747315
    18  C    6.510688   5.135285   4.274030   5.099480   6.449823
    19  C    7.694123   6.308299   5.472857   6.268192   7.627880
    20  C    9.238432   7.845879   7.026965   7.791366   9.158140
    21  C    9.905565   8.492475   7.847111   8.755495  10.098002
    22  C   10.118386   8.764235   7.803698   8.384362   9.757182
    23  C   11.284564   9.871559   9.210163  10.083218  11.435804
    24  H    9.439537   8.030136   7.542557   8.574626   9.873696
    25  C   11.492816  10.126635   9.193964   9.784219  11.157960
    26  H    9.855160   8.555758   7.481571   7.904418   9.262034
    27  C   12.015510  10.616035   9.815302  10.547585  11.920416
    28  H   11.891429  10.479206   9.924076  10.874590  12.207104
    29  H   12.232606  10.895431   9.887235  10.365257  11.728874
    30  H   13.094487  11.693443  10.897035  11.620533  12.994604
                    6          7          8          9         10
     6  C    0.000000
     7  H    2.134479   0.000000
     8  H    3.392531   2.468931   0.000000
     9  H    3.392860   4.932660   4.283946   0.000000
    10  H    2.144076   4.266529   4.943808   2.474345   0.000000
    11  C    4.337154   4.702485   2.766568   2.712671   4.679862
    12  C    5.524163   5.793054   3.639105   3.563932   5.754332
    13  O    1.428064   2.671386   4.597836   4.581180   2.646982
    14  C    2.354922   3.983976   5.688683   4.682551   2.351895
    15  H    2.613170   4.145297   5.666564   4.613155   2.551603
    16  H    2.577919   4.525447   5.925084   4.174591   1.702823
    17  H    3.287324   4.637505   6.581277   5.730166   3.332910
    18  C    7.061402   7.251040   4.967622   4.878854   7.198089
    19  C    8.259997   8.408903   6.074319   5.976223   8.345538
    20  C    9.813424   9.931471   7.560866   7.435543   9.843292
    21  C   10.622697  10.497703   8.053846   8.510760  10.858086
    22  C   10.552016  10.884211   8.597131   7.875735  10.331684
    23  C   11.990602  11.874302   9.426684   9.788056  12.169117
    24  H   10.267890   9.948576   7.485004   8.458869  10.705565
    25  C   11.949825  12.237982   9.914146   9.262675  11.724048
    26  H   10.157967  10.685330   8.515199   7.297157   9.751148
    27  C   12.601937  12.681981  10.276623  10.125725  12.566789
    28  H   12.679669  12.414118   9.949638  10.645975  12.984208
    29  H   12.600757  13.019919  10.753027   9.760360  12.221030
    30  H   13.683658  13.753702  11.340438  11.181538  13.629731
                   11         12         13         14         15
    11  C    0.000000
    12  C    1.187372   0.000000
    13  O    5.764572   6.951287   0.000000
    14  C    6.405206   7.568204   1.439584   0.000000
    15  H    6.298245   7.433036   2.074679   1.076749   0.000000
    16  H    6.221120   7.345493   2.051538   1.061374   1.739664
    17  H    7.458048   8.626949   2.062928   1.078042   1.761835
    18  C    2.724924   1.537553   8.488227   9.083359   8.922701
    19  C    3.923758   2.736390   9.686607  10.268681  10.093655
    20  C    5.477942   4.290652  11.239579  11.805935  11.617986
    21  C    6.318278   5.155030  12.047625  12.693049  12.469449
    22  C    6.280630   5.123363  11.963017  12.429336  12.263849
    23  C    7.674725   6.502513  13.416730  14.041827  13.808407
    24  H    6.070167   4.973988  11.678416  12.397432  12.157339
    25  C    7.663623   6.496307  13.362962  13.826454  13.645445
    26  H    6.018777   4.932588  11.543487  11.931163  11.796811
    27  C    8.266432   7.079279  14.028051  14.569408  14.355573
    28  H    8.414460   7.269100  14.098299  14.771915  14.518053
    29  H    8.386466   7.249376  13.996853  14.394133  14.229158
    30  H    9.348260   8.161194  15.109740  15.643288  15.421612
                   16         17         18         19         20
    16  H    0.000000
    17  H    1.746941   0.000000
    18  C    8.825619  10.146761   0.000000
    19  C    9.990462  11.334446   1.198846   0.000000
    20  C   11.504176  12.873849   2.753276   1.554637   0.000000
    21  C   12.480707  13.754826   3.672269   2.564074   1.408802
    22  C   12.024323  13.496442   3.653019   2.558992   1.386718
    23  C   13.807609  15.106965   4.995628   3.839388   2.422164
    24  H   12.273061  13.444937   3.641525   2.759649   2.177325
    25  C   13.419068  14.894820   4.998343   3.850096   2.415819
    26  H   11.451179  12.989648   3.620666   2.759400   2.145729
    27  C   14.243296  15.640472   5.542121   4.343677   2.790199
    28  H   14.594807  15.829874   5.811670   4.713412   3.416463
    29  H   13.922518  15.456358   5.806261   4.719769   3.400306
    30  H   15.310061  16.715172   6.624171   5.425852   3.872565
                   21         22         23         24         25
    21  C    0.000000
    22  C    2.413420   0.000000
    23  C    1.379339   2.791785   0.000000
    24  H    1.098230   3.409730   2.142967   0.000000
    25  C    2.777955   1.404155   2.410996   3.876158   0.000000
    26  H    3.398107   1.079735   3.871388   4.309625   2.153927
    27  C    2.396385   2.421118   1.388382   3.388466   1.392597
    28  H    2.150062   3.886779   1.095007   2.468589   3.401908
    29  H    3.867293   2.162486   3.399462   4.965492   1.089341
    30  H    3.376027   3.402311   2.143977   4.277635   2.147950
                   26         27         28         29         30
    26  H    0.000000
    27  C    3.396507   0.000000
    28  H    4.966388   2.153623   0.000000
    29  H    2.479565   2.158222   4.301899   0.000000
    30  H    4.290311   1.082378   2.472049   2.482202   0.000000
 Stoichiometry    C17H12O
 Framework group  C1[X(C17H12O)]
 Deg. of freedom    84
 Full point group                 C1      NOp   1
 Largest Abelian subgroup         C1      NOp   1
 Largest concise Abelian subgroup C1      NOp   1
                         Standard orientation:                         
 ---------------------------------------------------------------------
 Center     Atomic      Atomic             Coordinates (Angstroms)
 Number     Number       Type             X           Y           Z
 ---------------------------------------------------------------------
      1          6           0        4.551766    1.427958   -0.245669
      2          6           0        3.138406    1.432211   -0.194181
      3          6           0        2.453786    0.216847   -0.050091
      4          6           0        3.162245   -0.987230    0.076304
      5          6           0        4.538622   -0.986850    0.017099
      6          6           0        5.240791    0.214704   -0.153555
      7          1           0        5.072799    2.333582   -0.348832
      8          1           0        2.605519    2.348557   -0.259774
      9          1           0        2.620212   -1.909729    0.208183
     10          1           0        5.091713   -1.910320    0.089579
     11          6           0        0.905209    0.176950   -0.043057
     12          6           0       -0.281708    0.144556   -0.037552
     13          8           0        6.666845    0.193420   -0.226251
     14          6           0        7.189995   -0.931874    0.503426
     15          1           0        6.911202   -0.865033    1.541307
     16          1           0        6.792549   -1.828482    0.097659
     17          1           0        8.264411   -0.942916    0.415775
     18          6           0       -1.818628    0.100943   -0.030809
     19          6           0       -3.016804    0.061081   -0.026776
     20          6           0       -4.568930   -0.026949   -0.034067
     21          6           0       -5.335052    1.113877    0.276252
     22          6           0       -5.210942   -1.230988   -0.281246
     23          6           0       -6.711365    1.041928    0.332473
     24          1           0       -4.837937    2.072210    0.477705
     25          6           0       -6.612251   -1.301357   -0.226184
     26          1           0       -4.639146   -2.119568   -0.503287
     27          6           0       -7.353177   -0.164213    0.085679
     28          1           0       -7.301054    1.934299    0.566950
     29          1           0       -7.113976   -2.248519   -0.420657
     30          1           0       -8.432839   -0.221004    0.137115
 ---------------------------------------------------------------------
 Rotational constants (GHZ):      2.4484919      0.0883090      0.0856155
 Standard basis: 6-31G (6D, 7F)
 There are   186 symmetry adapted cartesian basis functions of A   symmetry.
 There are   186 symmetry adapted basis functions of A   symmetry.
   186 basis functions,   444 primitive gaussians,   186 cartesian basis functions
    61 alpha electrons       61 beta electrons
       nuclear repulsion energy       973.8311824462 Hartrees.
 NAtoms=   30 NActive=   30 NUniq=   30 SFac= 1.00D+00 NAtFMM=   60 NAOKFM=F Big=F
 Integral buffers will be    131072 words long.
 Raffenetti 2 integral format.
 Two-electron integral symmetry is turned on.
 Nuclear repulsion after empirical dispersion term =      973.8122865480 Hartrees.
 One-electron integrals computed using PRISM.
 NBasis=   186 RedAO= T EigKep=  4.16D-05  NBF=   186
 NBsUse=   186 1.00D-06 EigRej= -1.00D+00 NBFU=   186
 ExpMin= 1.61D-01 ExpMax= 5.48D+03 ExpMxC= 8.25D+02 IAcc=1 IRadAn=         1 AccDes= 0.00D+00
 Harris functional with IExCor=  402 and IRadAn=       1 diagonalized for initial guess.
 HarFok:  IExCor=  402 AccDes= 0.00D+00 IRadAn=         1 IDoV= 1 UseB2=F ITyADJ=14
 ICtDFT=  3500011 ScaDFX=  1.000000  1.000000  1.000000  1.000000
 FoFCou: FMM=F IPFlag=           0 FMFlag=      100000 FMFlg1=           0
         NFxFlg=           0 DoJE=T BraDBF=F KetDBF=T FulRan=T
         wScrn=  0.000000 ICntrl=     500 IOpCl=  0 I1Cent=   200000004 NGrid=           0
         NMat0=    1 NMatS0=      1 NMatT0=    0 NMatD0=    1 NMtDS0=    0 NMtDT0=    0
 Petite list used in FoFCou.
 Keep R1 ints in memory in canonical form, NReq=154626538.
 Requested convergence on RMS density matrix=1.00D-08 within 128 cycles.
 Requested convergence on MAX density matrix=1.00D-06.
 Requested convergence on             energy=1.00D-06.
 No special actions if energy rises.
 Integral accuracy reduced to 1.0D-05 until final iterations.
 Initial convergence to 1.0D-05 achieved.  Increase integral accuracy.
 SCF Done:  E(RB3LYP) =  -729.933297620     A.U. after   16 cycles
            NFock= 16  Conv=0.42D-08     -V/T= 2.0060

 **********************************************************************

            Population analysis using the SCF density.

 **********************************************************************

 Orbital symmetries:
       Occupied  (A) (A) (A) (A) (A) (A) (A) (A) (A) (A) (A) (A)
                 (A) (A) (A) (A) (A) (A) (A) (A) (A) (A) (A) (A)
                 (A) (A) (A) (A) (A) (A) (A) (A) (A) (A) (A) (A)
                 (A) (A) (A) (A) (A) (A) (A) (A) (A) (A) (A) (A)
                 (A) (A) (A) (A) (A) (A) (A) (A) (A) (A) (A) (A)
                 (A)
       Virtual   (A) (A) (A) (A) (A) (A) (A) (A) (A) (A) (A) (A)
                 (A) (A) (A) (A) (A) (A) (A) (A) (A) (A) (A) (A)
                 (A) (A) (A) (A) (A) (A) (A) (A) (A) (A) (A) (A)
                 (A) (A) (A) (A) (A) (A) (A) (A) (A) (A) (A) (A)
                 (A) (A) (A) (A) (A) (A) (A) (A) (A) (A) (A) (A)
                 (A) (A) (A) (A) (A) (A) (A) (A) (A) (A) (A) (A)
                 (A) (A) (A) (A) (A) (A) (A) (A) (A) (A) (A) (A)
                 (A) (A) (A) (A) (A) (A) (A) (A) (A) (A) (A) (A)
                 (A) (A) (A) (A) (A) (A) (A) (A) (A) (A) (A) (A)
                 (A) (A) (A) (A) (A) (A) (A) (A) (A) (A) (A) (A)
                 (A) (A) (A) (A) (A)
 The electronic state is 1-A.
 Alpha  occ. eigenvalues --  -19.17559 -10.25604 -10.23124 -10.23036 -10.22823
 Alpha  occ. eigenvalues --  -10.21512 -10.21229 -10.20334 -10.20284 -10.20140
 Alpha  occ. eigenvalues --  -10.20063 -10.19766 -10.19726 -10.19598 -10.19568
 Alpha  occ. eigenvalues --  -10.19539 -10.19406 -10.19355  -1.05847  -0.87199
 Alpha  occ. eigenvalues --   -0.87150  -0.79246  -0.77975  -0.76764  -0.75867
 Alpha  occ. eigenvalues --   -0.75528  -0.73749  -0.70804  -0.63038  -0.62267
 Alpha  occ. eigenvalues --   -0.61542  -0.61046  -0.56700  -0.54785  -0.53195
 Alpha  occ. eigenvalues --   -0.49960  -0.48995  -0.47629  -0.47453  -0.46470
 Alpha  occ. eigenvalues --   -0.46466  -0.44519  -0.44270  -0.43195  -0.42371
 Alpha  occ. eigenvalues --   -0.39686  -0.38730  -0.38387  -0.37635  -0.36203
 Alpha  occ. eigenvalues --   -0.35606  -0.34644  -0.33316  -0.32744  -0.31358
 Alpha  occ. eigenvalues --   -0.28603  -0.26545  -0.26178  -0.26039  -0.24617
 Alpha  occ. eigenvalues --   -0.22023
 Alpha virt. eigenvalues --   -0.03832  -0.01266  -0.01014  -0.00517   0.01297
 Alpha virt. eigenvalues --    0.06044   0.07934   0.08378   0.10667   0.11693
 Alpha virt. eigenvalues --    0.13435   0.13520   0.13632   0.14194   0.14424
 Alpha virt. eigenvalues --    0.15211   0.15644   0.16001   0.16884   0.18064
 Alpha virt. eigenvalues --    0.18407   0.19216   0.20698   0.21455   0.21972
 Alpha virt. eigenvalues --    0.22660   0.25216   0.29972   0.30485   0.31293
 Alpha virt. eigenvalues --    0.31923   0.32455   0.32968   0.34969   0.36323
 Alpha virt. eigenvalues --    0.46786   0.48240   0.49959   0.50498   0.50978
 Alpha virt. eigenvalues --    0.52229   0.52823   0.53176   0.53694   0.54650
 Alpha virt. eigenvalues --    0.55190   0.55771   0.56025   0.56736   0.57078
 Alpha virt. eigenvalues --    0.57903   0.58555   0.59023   0.60025   0.60043
 Alpha virt. eigenvalues --    0.60270   0.61324   0.61429   0.62749   0.63761
 Alpha virt. eigenvalues --    0.64238   0.64866   0.65120   0.65372   0.65862
 Alpha virt. eigenvalues --    0.66553   0.68071   0.69187   0.70341   0.72555
 Alpha virt. eigenvalues --    0.75425   0.76183   0.77557   0.77848   0.79683
 Alpha virt. eigenvalues --    0.80113   0.80601   0.84727   0.84903   0.86079
 Alpha virt. eigenvalues --    0.86757   0.87873   0.88523   0.88985   0.89170
 Alpha virt. eigenvalues --    0.91025   0.91469   0.92768   0.94258   0.94916
 Alpha virt. eigenvalues --    0.97298   0.98026   0.98936   1.00899   1.02148
 Alpha virt. eigenvalues --    1.03322   1.04019   1.04679   1.06350   1.08383
 Alpha virt. eigenvalues --    1.12057   1.12756   1.13414   1.16623   1.18320
 Alpha virt. eigenvalues --    1.19060   1.19728   1.21038   1.23859   1.25189
 Alpha virt. eigenvalues --    1.26093   1.26555   1.32433   1.33956   1.43832
 Alpha virt. eigenvalues --    1.46315   1.46526   1.48184   1.51602   1.63296
 Alpha virt. eigenvalues --    1.82725   1.89937   1.95023   2.05417   2.10346
          Condensed to atoms (all electrons):
               1          2          3          4          5          6
     1  C    5.014279   0.478234  -0.038398  -0.034176  -0.087774   0.522265
     2  C    0.478234   4.929260   0.518577  -0.069697  -0.042859  -0.039213
     3  C   -0.038398   0.518577   4.712122   0.520101  -0.036048  -0.021139
     4  C   -0.034176  -0.069697   0.520101   4.951680   0.430900  -0.024842
     5  C   -0.087774  -0.042859  -0.036048   0.430900   5.224277   0.391926
     6  C    0.522265  -0.039213  -0.021139  -0.024842   0.391926   4.785476
     7  H    0.346639  -0.035149   0.003752   0.000208   0.007462  -0.031158
     8  H   -0.032058   0.355295  -0.030843   0.004781   0.000390   0.003887
     9  H    0.000529   0.004527  -0.027712   0.350787  -0.030220   0.003017
    10  H    0.003243   0.000951   0.003493  -0.020360   0.356537  -0.058043
    11  C    0.009027  -0.022840   0.256667  -0.024231   0.011409   0.002137
    12  C    0.000876  -0.001213  -0.154020  -0.001370   0.001119   0.000120
    13  O   -0.055193   0.003468  -0.000362   0.005321  -0.074497   0.240610
    14  C    0.003338  -0.000145  -0.000028   0.001317  -0.009276  -0.048234
    15  H    0.001236  -0.000065   0.000002  -0.000350   0.003619  -0.002195
    16  H   -0.001005   0.000029   0.000005   0.000060   0.002997  -0.020107
    17  H   -0.000039   0.000004  -0.000001  -0.000010   0.000291   0.005282
    18  C    0.000005  -0.000032  -0.006407  -0.000012   0.000007   0.000000
    19  C    0.000000  -0.000001  -0.000373   0.000000   0.000000   0.000000
    20  C    0.000000   0.000000   0.000000   0.000000   0.000000   0.000000
    21  C    0.000000   0.000000   0.000000   0.000000   0.000000   0.000000
    22  C    0.000000   0.000000   0.000000   0.000000   0.000000   0.000000
    23  C    0.000000   0.000000   0.000000   0.000000   0.000000   0.000000
    24  H    0.000000   0.000000   0.000000   0.000000   0.000000   0.000000
    25  C    0.000000   0.000000   0.000000   0.000000   0.000000   0.000000
    26  H    0.000000   0.000000   0.000000   0.000000   0.000000   0.000000
    27  C    0.000000   0.000000   0.000000   0.000000   0.000000   0.000000
    28  H    0.000000   0.000000   0.000000   0.000000   0.000000   0.000000
    29  H    0.000000   0.000000   0.000000   0.000000   0.000000   0.000000
    30  H    0.000000   0.000000   0.000000   0.000000   0.000000   0.000000
               7          8          9         10         11         12
     1  C    0.346639  -0.032058   0.000529   0.003243   0.009027   0.000876
     2  C   -0.035149   0.355295   0.004527   0.000951  -0.022840  -0.001213
     3  C    0.003752  -0.030843  -0.027712   0.003493   0.256667  -0.154020
     4  C    0.000208   0.004781   0.350787  -0.020360  -0.024231  -0.001370
     5  C    0.007462   0.000390  -0.030220   0.356537   0.011409   0.001119
     6  C   -0.031158   0.003887   0.003017  -0.058043   0.002137   0.000120
     7  H    0.574173  -0.004157   0.000014  -0.000153  -0.000341  -0.000019
     8  H   -0.004157   0.564403  -0.000168   0.000013  -0.005943  -0.004861
     9  H    0.000014  -0.000168   0.561819  -0.003952  -0.005147  -0.005439
    10  H   -0.000153   0.000013  -0.003952   0.589450  -0.000391  -0.000022
    11  C   -0.000341  -0.005943  -0.005147  -0.000391   7.219664  -0.304026
    12  C   -0.000019  -0.004861  -0.005439  -0.000022  -0.304026   7.033869
    13  O   -0.000716  -0.000041  -0.000044  -0.008748  -0.000005   0.000000
    14  C   -0.000047   0.000002   0.000017  -0.002846   0.000000   0.000000
    15  H    0.000029   0.000000  -0.000008   0.001742   0.000000   0.000000
    16  H    0.000034   0.000000   0.000022   0.003796   0.000001   0.000000
    17  H   -0.000019   0.000000   0.000000  -0.000066   0.000000   0.000000
    18  C    0.000000  -0.000155  -0.000198   0.000000  -0.704576   0.290607
    19  C    0.000000  -0.000004  -0.000006   0.000000  -0.130065  -0.667302
    20  C    0.000000   0.000000   0.000000   0.000000  -0.000367  -0.005969
    21  C    0.000000   0.000000   0.000000   0.000000   0.000001   0.000033
    22  C    0.000000   0.000000   0.000000   0.000000  -0.000002  -0.000114
    23  C    0.000000   0.000000   0.000000   0.000000   0.000000   0.000004
    24  H    0.000000   0.000000   0.000000   0.000000  -0.000004  -0.000148
    25  C    0.000000   0.000000   0.000000   0.000000   0.000000   0.000005
    26  H    0.000000   0.000000   0.000000   0.000000  -0.000005  -0.000177
    27  C    0.000000   0.000000   0.000000   0.000000   0.000000   0.000000
    28  H    0.000000   0.000000   0.000000   0.000000   0.000000   0.000000
    29  H    0.000000   0.000000   0.000000   0.000000   0.000000   0.000000
    30  H    0.000000   0.000000   0.000000   0.000000   0.000000   0.000000
              13         14         15         16         17         18
     1  C   -0.055193   0.003338   0.001236  -0.001005  -0.000039   0.000005
     2  C    0.003468  -0.000145  -0.000065   0.000029   0.000004  -0.000032
     3  C   -0.000362  -0.000028   0.000002   0.000005  -0.000001  -0.006407
     4  C    0.005321   0.001317  -0.000350   0.000060  -0.000010  -0.000012
     5  C   -0.074497  -0.009276   0.003619   0.002997   0.000291   0.000007
     6  C    0.240610  -0.048234  -0.002195  -0.020107   0.005282   0.000000
     7  H   -0.000716  -0.000047   0.000029   0.000034  -0.000019   0.000000
     8  H   -0.000041   0.000002   0.000000   0.000000   0.000000  -0.000155
     9  H   -0.000044   0.000017  -0.000008   0.000022   0.000000  -0.000198
    10  H   -0.008748  -0.002846   0.001742   0.003796  -0.000066   0.000000
    11  C   -0.000005   0.000000   0.000000   0.000001   0.000000  -0.704576
    12  C    0.000000   0.000000   0.000000   0.000000   0.000000   0.290607
    13  O    8.347127   0.207076  -0.044647  -0.043683  -0.030617   0.000000
    14  C    0.207076   4.924973   0.365417   0.365952   0.376195   0.000000
    15  H   -0.044647   0.365417   0.610192  -0.057422  -0.032631   0.000000
    16  H   -0.043683   0.365952  -0.057422   0.629285  -0.032426   0.000000
    17  H   -0.030617   0.376195  -0.032631  -0.032426   0.549548   0.000000
    18  C    0.000000   0.000000   0.000000   0.000000   0.000000   6.896299
    19  C    0.000000   0.000000   0.000000   0.000000   0.000000  -0.154940
    20  C    0.000000   0.000000   0.000000   0.000000   0.000000  -0.137686
    21  C    0.000000   0.000000   0.000000   0.000000   0.000000   0.002057
    22  C    0.000000   0.000000   0.000000   0.000000   0.000000  -0.005608
    23  C    0.000000   0.000000   0.000000   0.000000   0.000000   0.000769
    24  H    0.000000   0.000000   0.000000   0.000000   0.000000  -0.004511
    25  C    0.000000   0.000000   0.000000   0.000000   0.000000   0.000973
    26  H    0.000000   0.000000   0.000000   0.000000   0.000000  -0.004884
    27  C    0.000000   0.000000   0.000000   0.000000   0.000000   0.000132
    28  H    0.000000   0.000000   0.000000   0.000000   0.000000  -0.000018
    29  H    0.000000   0.000000   0.000000   0.000000   0.000000  -0.000020
    30  H    0.000000   0.000000   0.000000   0.000000   0.000000  -0.000001
              19         20         21         22         23         24
     1  C    0.000000   0.000000   0.000000   0.000000   0.000000   0.000000
     2  C   -0.000001   0.000000   0.000000   0.000000   0.000000   0.000000
     3  C   -0.000373   0.000000   0.000000   0.000000   0.000000   0.000000
     4  C    0.000000   0.000000   0.000000   0.000000   0.000000   0.000000
     5  C    0.000000   0.000000   0.000000   0.000000   0.000000   0.000000
     6  C    0.000000   0.000000   0.000000   0.000000   0.000000   0.000000
     7  H    0.000000   0.000000   0.000000   0.000000   0.000000   0.000000
     8  H   -0.000004   0.000000   0.000000   0.000000   0.000000   0.000000
     9  H   -0.000006   0.000000   0.000000   0.000000   0.000000   0.000000
    10  H    0.000000   0.000000   0.000000   0.000000   0.000000   0.000000
    11  C   -0.130065  -0.000367   0.000001  -0.000002   0.000000  -0.000004
    12  C   -0.667302  -0.005969   0.000033  -0.000114   0.000004  -0.000148
    13  O    0.000000   0.000000   0.000000   0.000000   0.000000   0.000000
    14  C    0.000000   0.000000   0.000000   0.000000   0.000000   0.000000
    15  H    0.000000   0.000000   0.000000   0.000000   0.000000   0.000000
    16  H    0.000000   0.000000   0.000000   0.000000   0.000000   0.000000
    17  H    0.000000   0.000000   0.000000   0.000000   0.000000   0.000000
    18  C   -0.154940  -0.137686   0.002057  -0.005608   0.000769  -0.004511
    19  C    6.980186   0.254646  -0.018156  -0.030939   0.009031  -0.005764
    20  C    0.254646   4.694512   0.516548   0.534745  -0.036328  -0.029409
    21  C   -0.018156   0.516548   4.923878  -0.073751   0.514154   0.351168
    22  C   -0.030939   0.534745  -0.073751   4.922835  -0.043739   0.004760
    23  C    0.009031  -0.036328   0.514154  -0.043739   4.909711  -0.034705
    24  H   -0.005764  -0.029409   0.351168   0.004760  -0.034705   0.570350
    25  C    0.010397  -0.031512  -0.044461   0.497436  -0.044930   0.000329
    26  H   -0.006001  -0.030878   0.004851   0.354297   0.000297  -0.000152
    27  C    0.002143  -0.022451  -0.063794  -0.062062   0.538461   0.004498
    28  H   -0.000352   0.003206  -0.029734   0.000887   0.350994  -0.004310
    29  H   -0.000367   0.002956   0.000919  -0.030332   0.004285   0.000013
    30  H   -0.000014   0.000167   0.005420   0.005164  -0.036200  -0.000169
              25         26         27         28         29         30
     1  C    0.000000   0.000000   0.000000   0.000000   0.000000   0.000000
     2  C    0.000000   0.000000   0.000000   0.000000   0.000000   0.000000
     3  C    0.000000   0.000000   0.000000   0.000000   0.000000   0.000000
     4  C    0.000000   0.000000   0.000000   0.000000   0.000000   0.000000
     5  C    0.000000   0.000000   0.000000   0.000000   0.000000   0.000000
     6  C    0.000000   0.000000   0.000000   0.000000   0.000000   0.000000
     7  H    0.000000   0.000000   0.000000   0.000000   0.000000   0.000000
     8  H    0.000000   0.000000   0.000000   0.000000   0.000000   0.000000
     9  H    0.000000   0.000000   0.000000   0.000000   0.000000   0.000000
    10  H    0.000000   0.000000   0.000000   0.000000   0.000000   0.000000
    11  C    0.000000  -0.000005   0.000000   0.000000   0.000000   0.000000
    12  C    0.000005  -0.000177   0.000000   0.000000   0.000000   0.000000
    13  O    0.000000   0.000000   0.000000   0.000000   0.000000   0.000000
    14  C    0.000000   0.000000   0.000000   0.000000   0.000000   0.000000
    15  H    0.000000   0.000000   0.000000   0.000000   0.000000   0.000000
    16  H    0.000000   0.000000   0.000000   0.000000   0.000000   0.000000
    17  H    0.000000   0.000000   0.000000   0.000000   0.000000   0.000000
    18  C    0.000973  -0.004884   0.000132  -0.000018  -0.000020  -0.000001
    19  C    0.010397  -0.006001   0.002143  -0.000352  -0.000367  -0.000014
    20  C   -0.031512  -0.030878  -0.022451   0.003206   0.002956   0.000167
    21  C   -0.044461   0.004851  -0.063794  -0.029734   0.000919   0.005420
    22  C    0.497436   0.354297  -0.062062   0.000887  -0.030332   0.005164
    23  C   -0.044930   0.000297   0.538461   0.350994   0.004285  -0.036200
    24  H    0.000329  -0.000152   0.004498  -0.004310   0.000013  -0.000169
    25  C    4.919218  -0.034881   0.544762   0.004224   0.351682  -0.036210
    26  H   -0.034881   0.570096   0.004318   0.000014  -0.003875  -0.000156
    27  C    0.544762   0.004318   4.882314  -0.034769  -0.034746   0.354749
    28  H    0.004224   0.000014  -0.034769   0.579241  -0.000176  -0.004582
    29  H    0.351682  -0.003875  -0.034746  -0.000176   0.580820  -0.004412
    30  H   -0.036210  -0.000156   0.354749  -0.004582  -0.004412   0.585951
 Mulliken charges:
               1
     1  C   -0.131026
     2  C   -0.079131
     3  C    0.300614
     4  C   -0.090105
     5  C   -0.150261
     6  C    0.290211
     7  H    0.139450
     8  H    0.149458
     9  H    0.152162
    10  H    0.135356
    11  C   -0.300964
    12  C   -0.181953
    13  O   -0.545049
    14  C   -0.183711
    15  H    0.155081
    16  H    0.152463
    17  H    0.164489
    18  C   -0.171802
    19  C   -0.242118
    20  C    0.287820
    21  C   -0.089133
    22  C   -0.073575
    23  C   -0.131803
    24  H    0.148056
    25  C   -0.137032
    26  H    0.147136
    27  C   -0.113556
    28  H    0.135376
    29  H    0.133253
    30  H    0.130293
 Sum of Mulliken charges =   0.00000
 Mulliken charges with hydrogens summed into heavy atoms:
               1
     1  C    0.008424
     2  C    0.070327
     3  C    0.300614
     4  C    0.062057
     5  C   -0.014905
     6  C    0.290211
    11  C   -0.300964
    12  C   -0.181953
    13  O   -0.545049
    14  C    0.288322
    18  C   -0.171802
    19  C   -0.242118
    20  C    0.287820
    21  C    0.058923
    22  C    0.073561
    23  C    0.003573
    25  C   -0.003779
    27  C    0.016737
 Electronic spatial extent (au):  <R**2>=          11640.0956
 Charge=              0.0000 electrons
 Dipole moment (field-independent basis, Debye):
    X=             -0.1144    Y=             -1.3795    Z=              1.0097  Tot=              1.7134
 Quadrupole moment (field-independent basis, Debye-Ang):
   XX=            -74.3289   YY=            -92.0698   ZZ=           -108.2425
   XY=             -9.3175   XZ=              6.4075   YZ=              0.5613
 Traceless Quadrupole moment (field-independent basis, Debye-Ang):
   XX=             17.2181   YY=             -0.5227   ZZ=            -16.6954
   XY=             -9.3175   XZ=              6.4075   YZ=              0.5613
 Octapole moment (field-independent basis, Debye-Ang**2):
  XXX=            -66.3460  YYY=              1.0868  ZZZ=              1.3663  XYY=             13.1670
  XXY=            -77.6758  XXZ=             56.2618  XZZ=             20.8371  YZZ=             -0.7431
  YYZ=             -0.9207  XYZ=            -16.1151
 Hexadecapole moment (field-independent basis, Debye-Ang**3):
 XXXX=         -13106.4997 YYYY=           -599.4910 ZZZZ=           -150.6501 XXXY=           -544.4964
 XXXZ=            317.5280 YYYX=             15.3233 YYYZ=              3.8300 ZZZX=              9.0611
 ZZZY=             -1.3655 XXYY=          -2344.5857 XXZZ=          -2688.4439 YYZZ=           -141.1649
 XXYZ=             33.6630 YYXZ=             -2.4014 ZZXY=             -7.1051
 N-N= 9.738122865480D+02 E-N=-3.642530766343D+03  KE= 7.256152137863D+02
 Calling FoFJK, ICntrl=      2127 FMM=F ISym2X=0 I1Cent= 0 IOpClX= 0 NMat=1 NMatS=1 NMatT=0.
 ***** Axes restored to original set *****
 -------------------------------------------------------------------
 Center     Atomic                   Forces (Hartrees/Bohr)
 Number     Number              X              Y              Z
 -------------------------------------------------------------------
      1        6           0.022568686    0.008694362   -0.016160147
      2        6          -0.021694127    0.005572782   -0.016572775
      3        6           0.066935217    0.001374968    0.002491856
      4        6           0.009825135   -0.002397199    0.001645367
      5        6          -0.005920302   -0.000899849    0.000359005
      6        6          -0.009855834   -0.003238324   -0.001281941
      7        1          -0.015734160   -0.010175132    0.017735009
      8        1           0.007561484   -0.006227287    0.012132593
      9        1           0.002153652    0.001182935   -0.003377961
     10        1           0.008421846    0.001395143   -0.001598032
     11        6          -0.129713876   -0.002090744    0.000533962
     12        6           0.169559933    0.003669186    0.002942776
     13        8           0.023399533   -0.003105505    0.013285467
     14        6          -0.016784536   -0.000804538    0.005396175
     15        1           0.002199352    0.012908329    0.005003571
     16        1          -0.001989638    0.001479566   -0.023230625
     17        1          -0.008055344   -0.004986601    0.002721534
     18        6          -0.142562175   -0.002983064   -0.002008544
     19        6           0.104928669    0.000452724   -0.002516094
     20        6          -0.065625982    0.000331145    0.015463835
     21        6          -0.021227519   -0.004213114    0.014573431
     22        6           0.008796126    0.002327003   -0.013091043
     23        6           0.010980098   -0.001807114    0.012550952
     24        1           0.002117817    0.001474738   -0.009019629
     25        6          -0.004193046    0.000632131   -0.005368573
     26        1          -0.002501427   -0.000301551   -0.002321333
     27        6           0.010052364    0.001234945   -0.007304111
     28        1          -0.004155176    0.000923273   -0.005097524
     29        1          -0.001815739   -0.000398136    0.002445906
     30        1           0.002328969   -0.000025073   -0.000333109
 -------------------------------------------------------------------
 Cartesian Forces:  Max     0.169559933 RMS     0.032029107

 GradGradGradGradGradGradGradGradGradGradGradGradGradGradGradGradGradGrad
 Berny optimization.
 FormGI is forming the generalized inverse of G from B-inverse, IUseBI=4.
 GSVD:  received Info=                   1 from GESDD.
 Internal  Forces:  Max     0.102923770 RMS     0.016576624
 Search for a local minimum.
 Step number   1 out of a maximum of  149
 All quantities printed in internal units (Hartrees-Bohrs-Radians)
 Mixed Optimization -- RFO/linear search
 Second derivative matrix not updated -- first step.
 ITU=  0
     Eigenvalues ---    0.00230   0.00230   0.00230   0.00263   0.00269
     Eigenvalues ---    0.01168   0.01321   0.01488   0.01694   0.01934
     Eigenvalues ---    0.01974   0.02011   0.02023   0.02075   0.02080
     Eigenvalues ---    0.02101   0.02134   0.02167   0.02186   0.02191
     Eigenvalues ---    0.02197   0.02216   0.02263   0.02272   0.02307
     Eigenvalues ---    0.03790   0.04568   0.04761   0.04896   0.10223
     Eigenvalues ---    0.10326   0.15998   0.15998   0.15999   0.16000
     Eigenvalues ---    0.16000   0.16000   0.16000   0.16000   0.16000
     Eigenvalues ---    0.16000   0.16000   0.16000   0.21998   0.22000
     Eigenvalues ---    0.22000   0.22977   0.23472   0.23999   0.24964
     Eigenvalues ---    0.24998   0.25000   0.25000   0.27261   0.27727
     Eigenvalues ---    0.28737   0.33879   0.34240   0.34889   0.35709
     Eigenvalues ---    0.36026   0.36131   0.36231   0.36232   0.36390
     Eigenvalues ---    0.38253   0.38342   0.39643   0.39892   0.40883
     Eigenvalues ---    0.41269   0.41383   0.41588   0.42561   0.44537
     Eigenvalues ---    0.45253   0.45399   0.45600   0.46458   0.47752
     Eigenvalues ---    0.48542   0.48567   1.05405   1.11433
 RFO step:  Lambda=-9.26706653D-02 EMin= 2.30000000D-03
 Linear search not attempted -- first point.
 Maximum step size (   0.300) exceeded in Quadratic search.
    -- Step size scaled by   0.610
 Iteration  1 RMS(Cart)=  0.11831412 RMS(Int)=  0.00710086
 Iteration  2 RMS(Cart)=  0.01968410 RMS(Int)=  0.00017368
 Iteration  3 RMS(Cart)=  0.00033722 RMS(Int)=  0.00009411
 Iteration  4 RMS(Cart)=  0.00000012 RMS(Int)=  0.00009411
 Variable       Old X    -DE/DX   Delta X   Delta X   Delta X     New X
                                 (Linear)    (Quad)   (Total)
    R1        2.67265  -0.01272   0.00000  -0.01588  -0.01587   2.65678
    R2        2.64239  -0.00107   0.00000  -0.00148  -0.00147   2.64092
    R3        1.98401   0.02565   0.00000   0.03185   0.03185   2.01586
    R4        2.65005  -0.00223   0.00000  -0.00324  -0.00325   2.64680
    R5        2.00699   0.01558   0.00000   0.02001   0.02001   2.02700
    R6        2.65080   0.00094   0.00000   0.00137   0.00136   2.65216
    R7        2.92739  -0.06300   0.00000  -0.10393  -0.10393   2.82346
    R8        2.60338   0.01429   0.00000   0.01583   0.01582   2.61920
    R9        2.03722   0.00412   0.00000   0.00553   0.00553   2.04275
   R10        2.64959   0.01108   0.00000   0.01316   0.01316   2.66276
   R11        2.03877  -0.00229   0.00000  -0.00308  -0.00308   2.03568
   R12        2.69865   0.00071   0.00000   0.00086   0.00086   2.69951
   R13        2.24381   0.06670   0.00000   0.03373   0.03373   2.27754
   R14        2.90555  -0.10292   0.00000  -0.16529  -0.16529   2.74026
   R15        2.72042   0.02070   0.00000   0.02583   0.02583   2.74625
   R16        2.03476   0.01394   0.00000   0.01864   0.01864   2.05340
   R17        2.00571   0.02024   0.00000   0.02595   0.02595   2.03165
   R18        2.03720   0.00819   0.00000   0.01099   0.01099   2.04819
   R19        2.26549   0.03969   0.00000   0.02112   0.02112   2.28661
   R20        2.93784  -0.06525   0.00000  -0.10902  -0.10902   2.82882
   R21        2.66225  -0.00124   0.00000  -0.00131  -0.00130   2.66095
   R22        2.62052   0.01433   0.00000   0.01498   0.01499   2.63550
   R23        2.60657   0.01492   0.00000   0.01598   0.01598   2.62255
   R24        2.07535  -0.00901   0.00000  -0.01275  -0.01275   2.06260
   R25        2.65347  -0.00173   0.00000  -0.00239  -0.00239   2.65107
   R26        2.04040   0.00321   0.00000   0.00433   0.00433   2.04473
   R27        2.62366   0.01467   0.00000   0.01607   0.01607   2.63973
   R28        2.06926  -0.00656   0.00000  -0.00920  -0.00920   2.06007
   R29        2.63163   0.00607   0.00000   0.00650   0.00650   2.63812
   R30        2.05856  -0.00305   0.00000  -0.00422  -0.00422   2.05434
   R31        2.04540   0.00232   0.00000   0.00315   0.00315   2.04854
    A1        2.08592   0.00695   0.00000   0.01088   0.01090   2.09682
    A2        2.09085  -0.00077   0.00000   0.00111   0.00110   2.09195
    A3        2.10641  -0.00619   0.00000  -0.01199  -0.01200   2.09441
    A4        2.08174   0.00481   0.00000   0.00590   0.00590   2.08764
    A5        2.09643  -0.00223   0.00000  -0.00254  -0.00254   2.09389
    A6        2.10500  -0.00258   0.00000  -0.00337  -0.00337   2.10163
    A7        2.10205  -0.00250   0.00000  -0.00535  -0.00537   2.09668
    A8        2.10693  -0.00161   0.00000  -0.00242  -0.00241   2.10452
    A9        2.07415   0.00411   0.00000   0.00776   0.00777   2.08192
   A10        2.09495  -0.00024   0.00000   0.00181   0.00178   2.09673
   A11        2.08473   0.00020   0.00000  -0.00070  -0.00069   2.08404
   A12        2.10345   0.00004   0.00000  -0.00108  -0.00107   2.10238
   A13        2.10111  -0.00307   0.00000  -0.00297  -0.00297   2.09814
   A14        2.10489  -0.00700   0.00000  -0.01915  -0.01915   2.08574
   A15        2.07712   0.01007   0.00000   0.02210   0.02211   2.09923
   A16        2.09995  -0.00592   0.00000  -0.01002  -0.01001   2.08994
   A17        2.09630  -0.03542   0.00000  -0.06332  -0.06334   2.03295
   A18        2.08692   0.04134   0.00000   0.07338   0.07336   2.16029
   A19        1.92702   0.07736   0.00000   0.13778   0.13778   2.06480
   A20        1.92405   0.00309   0.00000   0.00867   0.00836   1.93241
   A21        1.90760   0.01497   0.00000   0.03765   0.03748   1.94508
   A22        1.90602  -0.01348   0.00000  -0.03525  -0.03521   1.87080
   A23        1.90074   0.00023   0.00000   0.00587   0.00540   1.90614
   A24        1.91459   0.00036   0.00000  -0.00199  -0.00209   1.91249
   A25        1.91078  -0.00510   0.00000  -0.01478  -0.01461   1.89617
   A26        2.08983  -0.00132   0.00000  -0.00215  -0.00216   2.08768
   A27        2.10857  -0.00347   0.00000  -0.00597  -0.00598   2.10259
   A28        2.08358   0.00484   0.00000   0.00844   0.00844   2.09202
   A29        2.10523  -0.00517   0.00000  -0.00901  -0.00900   2.09623
   A30        2.09541  -0.00011   0.00000  -0.00200  -0.00201   2.09341
   A31        2.08254   0.00528   0.00000   0.01101   0.01101   2.09355
   A32        2.09273  -0.00036   0.00000  -0.00196  -0.00196   2.09077
   A33        2.10137  -0.00092   0.00000  -0.00168  -0.00168   2.09969
   A34        2.08900   0.00129   0.00000   0.00367   0.00367   2.09266
   A35        2.09362   0.00060   0.00000   0.00266   0.00266   2.09628
   A36        2.09851  -0.00128   0.00000  -0.00370  -0.00370   2.09481
   A37        2.09104   0.00068   0.00000   0.00104   0.00104   2.09208
   A38        2.09304   0.00154   0.00000   0.00216   0.00215   2.09520
   A39        2.09003  -0.00113   0.00000  -0.00194  -0.00194   2.08809
   A40        2.10008  -0.00041   0.00000  -0.00021  -0.00020   2.09988
   A41        2.09814  -0.00144   0.00000  -0.00227  -0.00228   2.09585
   A42        2.09237   0.00105   0.00000   0.00193   0.00194   2.09431
   A43        2.09267   0.00039   0.00000   0.00034   0.00034   2.09302
   A44        3.14006  -0.00030   0.00000  -0.00122  -0.00121   3.13885
   A45        3.14055  -0.00020   0.00000  -0.00109  -0.00108   3.13946
   A46        3.13660   0.00095   0.00000   0.00416   0.00416   3.14076
   A47        3.11699   0.00182   0.00000   0.01173   0.01173   3.12873
   A48        3.14171   0.00059   0.00000   0.00268   0.00267   3.14438
   A49        3.14222  -0.00003   0.00000   0.00007   0.00007   3.14229
   A50        3.14145  -0.00024   0.00000  -0.00072  -0.00071   3.14074
   A51        3.14505  -0.00113   0.00000  -0.00644  -0.00642   3.13863
    D1        0.00108  -0.00007   0.00000  -0.00044  -0.00038   0.00070
    D2        3.13778  -0.00017   0.00000  -0.00118  -0.00119   3.13659
    D3       -3.13657  -0.00014   0.00000  -0.00060  -0.00047  -3.13704
    D4        0.00013  -0.00025   0.00000  -0.00133  -0.00128  -0.00114
    D5       -0.02349   0.00091   0.00000   0.00509   0.00505  -0.01844
    D6        3.12356  -0.00095   0.00000  -0.00450  -0.00414   3.11942
    D7        3.11412   0.00100   0.00000   0.00528   0.00517   3.11929
    D8       -0.02201  -0.00086   0.00000  -0.00431  -0.00402  -0.02603
    D9        0.02843  -0.00093   0.00000  -0.00537  -0.00541   0.02303
   D10       -3.10145  -0.00090   0.00000  -0.00507  -0.00512  -3.10656
   D11       -3.10824  -0.00082   0.00000  -0.00463  -0.00460  -3.11284
   D12        0.04506  -0.00080   0.00000  -0.00433  -0.00431   0.04075
   D13       -0.03577   0.00130   0.00000   0.00679   0.00674  -0.02904
   D14        3.11804   0.00078   0.00000   0.00428   0.00430   3.12234
   D15        3.09432   0.00124   0.00000   0.00642   0.00639   3.10071
   D16       -0.03504   0.00072   0.00000   0.00392   0.00395  -0.03109
   D17       -0.37767   0.00037   0.00000   0.00175   0.00172  -0.37594
   D18        2.81498  -0.00026   0.00000  -0.00114  -0.00113   2.81385
   D19        2.77917   0.00025   0.00000   0.00107   0.00107   2.78023
   D20       -0.31137  -0.00038   0.00000  -0.00182  -0.00179  -0.31316
   D21        0.01314  -0.00042   0.00000  -0.00206  -0.00199   0.01115
   D22       -3.11594  -0.00032   0.00000  -0.00123  -0.00111  -3.11705
   D23       -3.14081   0.00010   0.00000   0.00048   0.00047  -3.14034
   D24        0.01329   0.00020   0.00000   0.00130   0.00135   0.01464
   D25        0.01653  -0.00075   0.00000  -0.00398  -0.00397   0.01256
   D26       -3.13050   0.00086   0.00000   0.00514   0.00547  -3.12502
   D27       -3.13737  -0.00097   0.00000  -0.00508  -0.00516   3.14066
   D28       -0.00122   0.00064   0.00000   0.00404   0.00429   0.00307
   D29        2.65262   0.00022   0.00000   0.00097   0.00100   2.65362
   D30       -0.48354  -0.00148   0.00000  -0.00829  -0.00832  -0.49186
   D31       -1.06090  -0.00109   0.00000   0.00969   0.00942  -1.05148
   D32        1.02770   0.01043   0.00000   0.04570   0.04621   1.07390
   D33        3.11762   0.00510   0.00000   0.02910   0.02888  -3.13669
   D34       -3.09185  -0.00106   0.00000  -0.00604  -0.00606  -3.09791
   D35        0.04825  -0.00094   0.00000  -0.00543  -0.00545   0.04280
   D36       -0.00254   0.00011   0.00000   0.00077   0.00078  -0.00176
   D37        3.13756   0.00023   0.00000   0.00139   0.00140   3.13895
   D38        3.09354   0.00110   0.00000   0.00596   0.00596   3.09949
   D39       -0.03378   0.00067   0.00000   0.00375   0.00375  -0.03003
   D40        0.00481  -0.00016   0.00000  -0.00106  -0.00107   0.00374
   D41       -3.12251  -0.00059   0.00000  -0.00327  -0.00327  -3.12578
   D42        0.00328  -0.00008   0.00000  -0.00050  -0.00051   0.00277
   D43       -3.13363  -0.00017   0.00000  -0.00092  -0.00092  -3.13455
   D44       -3.13684  -0.00019   0.00000  -0.00110  -0.00111  -3.13794
   D45        0.00944  -0.00028   0.00000  -0.00152  -0.00152   0.00792
   D46       -0.00786   0.00019   0.00000   0.00110   0.00110  -0.00675
   D47       -3.14145  -0.00007   0.00000  -0.00029  -0.00029   3.14144
   D48        3.11956   0.00060   0.00000   0.00325   0.00325   3.12281
   D49       -0.01403   0.00034   0.00000   0.00186   0.00186  -0.01217
   D50       -0.00632   0.00011   0.00000   0.00053   0.00053  -0.00579
   D51        3.13391   0.00012   0.00000   0.00066   0.00066   3.13457
   D52        3.13061   0.00019   0.00000   0.00094   0.00093   3.13154
   D53       -0.01235   0.00020   0.00000   0.00106   0.00106  -0.01129
   D54        0.00860  -0.00016   0.00000  -0.00083  -0.00083   0.00778
   D55       -3.13162  -0.00018   0.00000  -0.00096  -0.00096  -3.13258
   D56       -3.14104   0.00009   0.00000   0.00057   0.00057  -3.14047
   D57        0.00192   0.00008   0.00000   0.00044   0.00044   0.00236
         Item               Value     Threshold  Converged?
 Maximum Force            0.102924     0.000450     NO 
 RMS     Force            0.016577     0.000300     NO 
 Maximum Displacement     0.667671     0.001800     NO 
 RMS     Displacement     0.133975     0.001200     NO 
 Predicted change in Energy=-4.363963D-02
 GradGradGradGradGradGradGradGradGradGradGradGradGradGradGradGradGradGrad

                          Input orientation:                          
 ---------------------------------------------------------------------
 Center     Atomic      Atomic             Coordinates (Angstroms)
 Number     Number       Type             X           Y           Z
 ---------------------------------------------------------------------
      1          6           0       -5.266271   -1.131396    0.922766
      2          6           0       -3.863363   -1.082490    1.000395
      3          6           0       -3.131459   -0.514335   -0.049973
      4          6           0       -3.797300    0.027664   -1.160202
      5          6           0       -5.180035   -0.027984   -1.237686
      6          6           0       -5.925456   -0.616545   -0.196810
      7          1           0       -5.827836   -1.559464    1.722359
      8          1           0       -3.360437   -1.474293    1.863017
      9          1           0       -3.221642    0.479313   -1.955907
     10          1           0       -5.679271    0.370789   -2.104970
     11          6           0       -1.638052   -0.491219   -0.010449
     12          6           0       -0.433282   -0.473422    0.017261
     13          8           0       -7.349262   -0.732083   -0.206704
     14          6           0       -8.115631    0.255811   -0.947440
     15          1           0       -7.936645    1.253591   -0.556132
     16          1           0       -7.872489    0.237534   -1.994530
     17          1           0       -9.162906    0.002279   -0.830465
     18          6           0        1.016313   -0.451132    0.047577
     19          6           0        2.225936   -0.431772    0.071967
     20          6           0        3.722533   -0.401643    0.083563
     21          6           0        4.411416   -0.518215    1.306115
     22          6           0        4.435093   -0.204705   -1.099028
     23          6           0        5.796680   -0.439507    1.334806
     24          1           0        3.854902   -0.669892    2.232733
     25          6           0        5.835474   -0.128291   -1.064539
     26          1           0        3.912185   -0.099554   -2.040457
     27          6           0        6.511917   -0.241081    0.151443
     28          1           0        6.329054   -0.536507    2.281155
     29          1           0        6.388412    0.025133   -1.987862
     30          1           0        7.593545   -0.173357    0.176817
 ---------------------------------------------------------------------
                    Distance matrix (angstroms):
                    1          2          3          4          5
     1  C    0.000000
     2  C    1.405905   0.000000
     3  C    2.425780   1.400628   0.000000
     4  C    2.800009   2.430018   1.403465   0.000000
     5  C    2.427449   2.802609   2.417408   1.386021   0.000000
     6  C    1.397515   2.429534   2.799719   2.423257   1.409071
     7  H    1.066746   2.146600   3.391741   3.866679   3.395135
     8  H    2.152638   1.072642   2.152553   3.403906   3.875191
     9  H    3.880934   3.404520   2.151291   1.080979   2.146740
    10  H    3.405043   3.879799   3.390841   2.133574   1.077237
    11  C    3.800617   2.514641   1.494109   2.500705   3.777081
    12  C    4.960912   3.619803   2.699325   3.599184   4.930007
    13  O    2.402916   3.705586   4.226327   3.755370   2.502843
    14  C    3.679792   4.864864   5.122552   4.329584   2.963530
    15  H    3.873784   4.946886   5.145053   4.359125   3.115421
    16  H    4.144510   5.175436   5.179187   4.165011   2.809381
    17  H    4.420724   5.710861   6.103639   5.375787   4.003749
    18  C    6.379622   5.011758   4.149401   4.985865   6.342372
    19  C    7.572747   6.193946   5.359418   6.165119   7.531709
    20  C    9.057340   7.671372   6.856219   7.634078   9.007832
    21  C    9.704667   8.299629   7.663808   8.588581   9.935148
    22  C    9.953033   8.604793   7.645201   8.235900   9.617751
    23  C   11.092221   9.687192   9.035203   9.924101  11.281637
    24  H    9.226310   7.826909   7.351475   8.399690   9.699791
    25  C   11.322735   9.962022   9.032400   9.634511  11.017326
    26  H    9.699971   8.406669   7.331233   7.760618   9.127870
    27  C   11.836947  10.443904   9.649349  10.395798  11.776113
    28  H   11.689768  10.287070   9.743508  10.710008  12.045744
    29  H   12.068179  10.735707   9.730076  10.219284  11.592866
    30  H   12.917010  11.522393  10.732819  11.470806  12.852482
                    6          7          8          9         10
     6  C    0.000000
     7  H    2.140522   0.000000
     8  H    3.399697   2.472872   0.000000
     9  H    3.406748   4.947575   4.291855   0.000000
    10  H    2.162524   4.289102   4.952398   2.464536   0.000000
    11  C    4.293282   4.658118   2.728172   2.689702   4.632659
    12  C    5.498208   5.760908   3.602332   3.546273   5.721622
    13  O    1.428520   2.592408   4.554705   4.643752   2.758371
    14  C    2.474130   3.956900   5.788247   5.001808   2.699804
    15  H    2.769730   4.189495   5.851095   4.978968   2.876452
    16  H    2.784275   4.607067   6.178158   4.657287   2.200036
    17  H    3.356418   4.480919   6.565345   6.065706   3.727717
    18  C    6.948039   7.132719   4.847538   4.779115   7.080951
    19  C    8.157914   8.298116   5.958378   5.883745   8.238656
    20  C    9.654454   9.758881   7.381430   7.290891   9.684021
    21  C   10.446022  10.300473   7.850218   8.360588  10.688676
    22  C   10.407910  10.729553   8.435393   7.734838  10.180544
    23  C   11.823099  11.684772   9.230525   9.643815  12.007752
    24  H   10.077744   9.736901   7.269448   8.303184  10.526118
    25  C   11.803000  12.076748   9.744079   9.121133  11.572421
    26  H   10.022250  10.543155   8.367679   7.157774   9.603198
    27  C   12.447912  12.509014  10.095231   9.985093  12.413334
    28  H   12.502789  12.212644   9.743743  10.497637  12.816441
    29  H   12.459975  12.865201  10.588560   9.620834  12.073201
    30  H   13.531423  13.580997  11.159097  11.042770  13.478513
                   11         12         13         14         15
    11  C    0.000000
    12  C    1.205220   0.000000
    13  O    5.719655   6.924438   0.000000
    14  C    6.587491   7.776948   1.453254   0.000000
    15  H    6.558537   7.720868   2.100005   1.086612   0.000000
    16  H    6.582999   7.739158   2.100059   1.075104   1.762237
    17  H    7.585473   8.783579   2.053697   1.083857   1.773347
    18  C    2.655302   1.450084   8.374153   9.213156   9.133784
    19  C    3.865323   2.660106   9.583958  10.414411  10.320513
    20  C    5.362157   4.156964  11.080527  11.901149  11.793449
    21  C    6.191133   5.013407  11.859507  12.751648  12.612766
    22  C    6.176583   5.001938  11.829852  12.560085  12.469213
    23  C    7.555635   6.367849  13.239246  14.115400  13.965903
    24  H    5.936020   4.830677  11.466822  12.420310  12.268583
    25  C    7.556216   6.370769  13.226401  13.956882  13.850607
    26  H    5.922791   4.822557  11.427288  12.082604  12.017861
    27  C    8.155414   6.950380  13.874496  14.677180  14.542890
    28  H    8.290252   7.131506  13.904100  14.822298  14.654856
    29  H    8.282566   7.127734  13.873341  14.543141  14.448745
    30  H    9.238966   8.034018  14.958166  15.755201  15.612821
                   16         17         18         19         20
    16  H    0.000000
    17  H    1.753730   0.000000
    18  C    9.146326  10.227074   0.000000
    19  C   10.329403  11.432781   1.210023   0.000000
    20  C   11.797100  12.924130   2.706912   1.496946   0.000000
    21  C   12.742046  13.751294   3.621483   2.511358   1.408113
    22  C   12.348040  13.602226   3.614344   2.510611   1.394649
    23  C   14.085065  15.121931   4.950657   3.787485   2.422629
    24  H   12.498995  13.390232   3.588920   2.716458   2.169888
    25  C   13.744343  15.000774   4.956343   3.796381   2.420202
    26  H   11.789584  13.131353   3.587417   2.723259   2.153760
    27  C   14.551475  15.707433   5.500598   4.290958   2.794826
    28  H   14.851412  15.810543   5.763798   4.661229   3.411971
    29  H   14.262485  15.594345   5.764485   4.666676   3.402917
    30  H   15.623117  16.787618   6.584363   5.374849   3.878859
                   21         22         23         24         25
    21  C    0.000000
    22  C    2.425605   0.000000
    23  C    1.387795   2.798678   0.000000
    24  H    1.091483   3.413744   2.151710   0.000000
    25  C    2.792845   1.402888   2.419756   3.884328   0.000000
    26  H    3.409406   1.082025   3.880630   4.311463   2.156914
    27  C    2.412919   2.424500   1.396884   3.402261   1.396034
    28  H    2.151365   3.888806   1.090141   2.478218   3.406454
    29  H    3.879951   2.158311   3.406781   4.971434   1.087108
    30  H    3.394140   3.406550   2.154181   4.295438   2.152629
                   26         27         28         29         30
    26  H    0.000000
    27  C    3.403390   0.000000
    28  H    4.970765   2.157866   0.000000
    29  H    2.479922   2.159340   4.306212   0.000000
    30  H    4.298158   1.084043   2.481744   2.485473   0.000000
 Stoichiometry    C17H12O
 Framework group  C1[X(C17H12O)]
 Deg. of freedom    84
 Full point group                 C1      NOp   1
 Largest Abelian subgroup         C1      NOp   1
 Largest concise Abelian subgroup C1      NOp   1
                         Standard orientation:                         
 ---------------------------------------------------------------------
 Center     Atomic      Atomic             Coordinates (Angstroms)
 Number     Number       Type             X           Y           Z
 ---------------------------------------------------------------------
      1          6           0        4.449946    1.367866   -0.253874
      2          6           0        3.044758    1.368786   -0.208975
      3          6           0        2.356665    0.159571   -0.047461
      4          6           0        3.067710   -1.041847    0.096492
      5          6           0        4.452771   -1.041123    0.044909
      6          6           0        5.154886    0.166677   -0.138755
      7          1           0        4.978134    2.287037   -0.372566
      8          1           0        2.506550    2.292817   -0.292985
      9          1           0        2.525155   -1.965975    0.238396
     10          1           0        4.987463   -1.972058    0.133809
     11          6           0        0.862861    0.129948   -0.041570
     12          6           0       -0.342042    0.102421   -0.039040
     13          8           0        6.578321    0.252943   -0.222775
     14          6           0        7.371410   -0.749799    0.468214
     15          1           0        7.170498   -0.730103    1.535909
     16          1           0        7.174391   -1.736424    0.089263
     17          1           0        8.413820   -0.512111    0.290361
     18          6           0       -1.791669    0.066159   -0.036203
     19          6           0       -3.001282    0.034788   -0.033432
     20          6           0       -4.497087   -0.023582   -0.030533
     21          6           0       -5.238189    1.137135    0.263208
     22          6           0       -5.158218   -1.229437   -0.262620
     23          6           0       -6.623759    1.082618    0.319778
     24          1           0       -4.721984    2.081013    0.447499
     25          6           0       -6.559131   -1.278324   -0.206525
     26          1           0       -4.595167   -2.128802   -0.474504
     27          6           0       -7.287538   -0.124577    0.088775
     28          1           0       -7.196521    1.983446    0.540816
     29          1           0       -7.071917   -2.219562   -0.387981
     30          1           0       -8.369565   -0.166495    0.139849
 ---------------------------------------------------------------------
 Rotational constants (GHZ):      2.5314033      0.0898492      0.0871380
 Standard basis: 6-31G (6D, 7F)
 There are   186 symmetry adapted cartesian basis functions of A   symmetry.
 There are   186 symmetry adapted basis functions of A   symmetry.
   186 basis functions,   444 primitive gaussians,   186 cartesian basis functions
    61 alpha electrons       61 beta electrons
       nuclear repulsion energy       976.2160969234 Hartrees.
 NAtoms=   30 NActive=   30 NUniq=   30 SFac= 1.00D+00 NAtFMM=   60 NAOKFM=F Big=F
 Integral buffers will be    131072 words long.
 Raffenetti 2 integral format.
 Two-electron integral symmetry is turned on.
 Nuclear repulsion after empirical dispersion term =      976.1969460288 Hartrees.
 One-electron integrals computed using PRISM.
 NBasis=   186 RedAO= T EigKep=  3.14D-05  NBF=   186
 NBsUse=   186 1.00D-06 EigRej= -1.00D+00 NBFU=   186
 Initial guess from the checkpoint file:  "D:\User Dont delete\Downloads\molecule_35.chk"
 B after Tr=     0.000000    0.000000    0.000000
         Rot=    0.999955    0.009440   -0.000589   -0.000744 Ang=   1.09 deg.
 ExpMin= 1.61D-01 ExpMax= 5.48D+03 ExpMxC= 8.25D+02 IAcc=1 IRadAn=         1 AccDes= 0.00D+00
 Harris functional with IExCor=  402 and IRadAn=       1 diagonalized for initial guess.
 HarFok:  IExCor=  402 AccDes= 0.00D+00 IRadAn=         1 IDoV= 1 UseB2=F ITyADJ=14
[...]
 0005956,-0.00001685,-0.00000327,-0.00000473,0.00000475,0.00000088,0.00
 000731,0.00000025,-0.00000028,-0.00000072,0.00000018,-0.00000011,-0.00
 000208,-0.00000102,0.00000039,0.00000016,0.00031406,0.00044072,0.00031
 154,-0.00033474,-0.00348170,-0.00181536,-0.00623732,0.00075237,0.00795
 173,-0.04705879,-0.07071959,0.08024499,0.00139769,0.00485136,0.0029474
 9,0.00164211,0.00388942,0.00008079,0.05018428,0.06219758,0.00001142,-0
 .00000685,0.00000095,0.00000877,0.00000305,0.00000864,-0.00001899,-0.0
 0001255,0.00000092,0.00001397,-0.00000025,-0.00002399,0.00001417,0.000
 00328,0.00000559,-0.00003845,0.00000033,0.00000123,0.00000282,0.000000
 97,-0.00000090,-0.00000785,0.00000116,0.00000900,-0.00000506,0.0000004
 6,-0.00000268,0.00000580,0.00000063,0.00000281,-0.00005671,0.00001506,
 -0.00000156,0.00007935,-0.00006114,0.00012989,0.00004545,-0.00000433,0
 .00000725,-0.00001282,0.00000751,-0.00001559,-0.00000053,-0.00000198,0
 .00000304,-0.00000057,-0.00000097,0.00000287,0.00000271,0.00000019,0.0
 0000006,-0.00080715,0.00030709,-0.00023667,0.00099822,-0.00180255,0.00
 037744,0.01589184,0.00831509,-0.01655313,0.11597651,0.08022729,-0.2374
 8912,-0.00373410,0.00293606,-0.00150713,-0.00458105,-0.00027977,0.0044
 7978,-0.12331261,-0.08970955,0.24889285,0.00008913,-0.00002428,0.00006
 505,-0.00014888,-0.00004831,0.00011592,0.00051669,-0.00000525,0.000026
 50,-0.00015826,0.00005100,-0.00013124,0.00009795,0.00002587,-0.0000639
 2,-0.00011165,-0.00000598,0.00001197,0.00000106,0.00000078,-0.00000176
 ,0.00000044,0.00000212,-0.00000573,-0.00000068,-0.00000190,0.00000525,
 0.00000262,-0.00000092,0.00000225,-0.00124058,0.00001859,-0.00008084,0
 .00210621,-0.00005167,0.00019599,0.00011132,-0.00000130,0.00000644,-0.
 00003068,0.00001322,-0.00003415,-0.00000007,-0.00000511,0.00000626,-0.
 00000010,-0.00000058,0.00000803,0.00000420,-0.00000023,0.00000071,-0.0
 0395217,0.00033035,-0.00092713,0.00783539,-0.00096772,0.00246199,-0.03
 489946,-0.02528479,0.06257631,-0.04817235,0.00941145,-0.02488058,-0.34
 974597,0.00936464,-0.03163971,0.06308712,0.00742693,-0.01722164,-0.000
 42853,0.00029241,-0.00073899,0.70231620,0.00001114,-0.00005048,0.00001
 346,-0.00000580,0.00005373,0.00001977,-0.00005460,0.00003737,0.0000230
 3,-0.00000560,-0.00006069,-0.00001412,0.00001513,0.00005728,-0.0000169
 1,-0.00006431,-0.00000704,0.00001279,0.00000137,-0.00000400,-0.0000049
 8,0.00000058,0.00001291,0.00000255,-0.00000014,-0.00001436,-0.00000587
 ,0.00000110,0.00000267,0.00000522,0.00012010,-0.00003219,-0.00001141,-
 0.00021188,-0.00014441,-0.00018918,0.00010604,-0.00000187,0.00000683,-
 0.00002596,0.00001044,-0.00003296,0.,-0.00000277,0.00000517,-0.0000018
 7,-0.00000075,0.00000811,0.00000473,-0.00000057,0.00000045,0.00016286,
 -0.00054173,-0.00023379,-0.00179310,0.00547839,0.00409382,-0.01117212,
 0.01083668,-0.00776360,0.01017508,-0.00870564,0.00281235,-0.01259881,-
 0.07447168,0.02253441,-0.00758949,-0.00008574,0.02365473,0.00030708,-0
 .00026369,-0.00027464,0.01829687,0.22188505,-0.00002431,0.00001247,-0.
 00007741,0.00000871,0.00001857,0.00001502,0.00015095,0.00002443,-0.000
 01021,0.00001154,-0.00001252,-0.00003430,-0.00003684,-0.00001661,0.000
 09126,0.00015914,0.00001444,-0.00003316,-0.00000325,-0.00000500,0.0000
 0652,-0.00000183,0.00000259,0.00000732,0.00000081,-0.00000592,-0.00000
 173,-0.00000284,0.00000516,-0.00000838,-0.00033683,-0.00001429,-0.0000
 1161,0.00059992,-0.00018471,0.00026573,-0.00026436,0.00000380,-0.00001
 741,0.00006469,-0.00003185,0.00007984,0.00000265,0.00001017,-0.0000146
 7,0.00000199,0.00000300,-0.00001666,-0.00001180,0.00000031,-0.00000155
 ,-0.00050428,-0.00022881,-0.00007250,0.00454346,0.00411666,-0.00313679
 ,0.02697845,-0.00816065,0.02923184,-0.02680823,0.00279107,-0.01550027,
 0.02376486,0.02315294,-0.12313548,0.02065876,0.02407780,-0.05077975,-0
 .00077613,-0.00027504,0.00029595,-0.03034016,-0.20312611,0.65270931,0.
 00002337,-0.00000264,0.00000699,0.00002322,-0.00000968,0.00002574,-0.0
 0005203,0.00000161,-0.00000474,0.00002076,0.00000678,-0.00001699,0.000
 02574,0.00000471,-0.00001060,-0.00007677,-0.00000375,0.00000718,0.0000
 0753,0.00000109,-0.00000264,-0.00000915,-0.00000221,0.00000533,-0.0000
 1116,0.00000295,-0.00000811,0.00000802,-0.00000171,0.00000450,0.000049
 06,-0.00001377,0.00003513,-0.00008783,0.00008999,-0.00022867,0.0001013
 6,-0.00000283,0.00001011,-0.00002630,0.00001250,-0.00003240,-0.0000011
 7,-0.00000314,0.00000622,-0.00000119,-0.00000198,0.00000670,0.00000552
 ,0.,0.00000014,-0.00000415,-0.00017078,0.00041475,0.00126828,-0.000020
 98,0.00020714,0.00958154,-0.00681516,0.01735029,-0.00156672,-0.0011429
 4,0.00266983,-0.12895856,0.04453963,-0.11491023,-0.00047058,-0.0002995
 7,0.00075304,0.00054314,-0.00029337,0.00074275,-0.01101418,0.01100348,
 -0.02817750,0.13571835,0.00000492,0.00001107,0.00000270,0.00000570,-0.
 00002393,0.00000058,-0.00000729,-0.00002289,-0.00001241,0.00000354,0.0
 0001574,0.00000391,0.00000458,-0.00001624,-0.00000784,-0.00001416,0.00
 000262,0.00000222,0.00000207,0.00000335,0.00000085,-0.00000204,-0.0000
 0111,0.00000060,-0.00000308,0.00001199,0.00000126,0.00000119,0.0000007
 3,0.00000114,-0.00002280,0.00002979,0.00001456,0.00003322,-0.00000370,
 -0.00006183,0.00001651,-0.00000327,-0.00000021,-0.00000447,0.00000588,
 -0.00000301,-0.00000068,-0.00000160,0.00000161,0.00000013,-0.00000121,
 -0.00000039,0.00000111,0.00000040,0.00000006,-0.00032857,0.00043831,0.
 00030909,0.00043507,-0.00348180,-0.00180099,0.00608653,0.00074440,0.00
 830489,-0.00155480,0.00482841,0.00292730,0.04390487,-0.06977616,0.0804
 7312,-0.00028462,-0.00027067,-0.00027547,0.00028129,0.00024966,0.00050
 340,-0.00179288,0.00396618,-0.00025226,-0.04659202,0.06122236,-0.00001
 210,0.00000249,0.00000547,-0.00001305,0.00000014,-0.00002449,0.0000177
 1,-0.00001216,0.00000344,-0.00000884,0.00000400,0.00000692,-0.00001029
 ,-0.00000784,0.00000009,0.00003346,0.00000252,-0.00000174,-0.00000511,
 0.00000082,0.00000145,0.00000490,0.00000060,-0.00000222,0.00000710,0.0
 0000143,0.00000912,-0.00000281,0.00000105,-0.00000158,0.00005789,0.000
 01482,0.00000008,-0.00008550,-0.00006024,0.00012093,-0.00003870,-0.000
 00076,-0.00000272,0.00001039,-0.00000253,0.00001142,0.00000054,-0.0000
 0006,-0.00000233,0.00000085,0.00000115,-0.00000270,-0.00000267,0.00000
 003,0.00000026,0.00081289,0.00031352,-0.00020346,-0.00094326,-0.001813
 78,0.00034840,-0.01519620,0.00794174,-0.01649356,0.00370926,0.00293875
 ,-0.00130289,-0.11330882,0.08049062,-0.24460826,0.00071533,-0.00027593
 ,0.00033959,-0.00070692,0.00048724,-0.00080290,0.00410259,0.00010850,0
 .00372818,0.12062436,-0.08996404,0.25642617,-0.00014988,0.00005614,-0.
 00014590,0.00012635,0.00006732,-0.00016636,-0.00032842,0.00000752,-0.0
 0002751,0.00013979,-0.00006879,0.00017738,-0.00017633,-0.00006182,0.00
 015094,0.00035584,0.00002447,-0.00005160,-0.00001631,-0.00000461,0.000
 01119,0.00001320,-0.00000052,0.00000175,0.00001246,0.00000018,-0.00000
 005,-0.00001968,0.00000594,-0.00001551,0.00101785,0.00000263,0.0000221
 8,-0.00160909,-0.00001167,-0.00001714,-0.00048056,0.00000803,-0.000033
 89,0.00012033,-0.00005714,0.00014757,0.00000291,0.00001833,-0.00002720
 ,0.00000306,0.00000534,-0.00003236,-0.00002109,0.00000106,-0.00000325,
 0.00311835,0.00002332,0.00002207,-0.00406850,-0.00002150,-0.00003344,0
 .00441624,-0.00020060,0.00086025,-0.03229442,-0.01235533,0.03000312,-0
 .02970839,0.01213721,-0.03170755,-0.18504073,-0.04572668,0.11201869,-0
 .00511070,0.00020999,-0.00088246,-0.18043412,0.04255777,-0.11055559,-0
 .00517380,-0.00038766,0.00062313,0.75530205,-0.00000150,0.00000202,-0.
 00000087,0.00000117,0.00000363,0.00000078,-0.00000157,-0.00002390,-0.0
 0000740,0.00000028,0.00000297,0.00000285,-0.00000052,0.00000151,0.0000
 0109,0.00000238,-0.00000234,-0.00000024,-0.00000004,-0.00000066,-0.000
 00021,0.00000023,-0.00000180,-0.00000097,-0.00000003,-0.00000184,-0.00
 000101,-0.00000018,-0.00000065,-0.00000042,0.00000555,0.00000271,-0.00
 001295,-0.00000949,0.00002228,0.00006137,-0.00000326,0.00000187,0.0000
 0020,0.00000086,-0.00000164,0.00000066,0.00000013,0.00000053,-0.000000
 34,-0.00000013,0.00000015,0.00000013,-0.00000012,-0.00000018,-0.000000
 09,0.00001730,0.00032060,-0.00023181,-0.00001767,-0.00096703,0.0000686
 0,-0.00020474,-0.01582420,0.01934281,-0.02753403,0.01169669,-0.0075994
 7,0.02734118,0.01207923,-0.00706040,-0.02288474,-0.09697760,0.07525673
 ,0.00055134,0.00662209,0.00201207,0.01970172,-0.09631830,0.07483688,-0
 .00073319,0.00661039,0.00199783,0.00552994,0.21306003,-0.00000050,0.00
 000075,-0.00000023,0.00000050,0.00000265,-0.00000274,-0.00000454,-0.00
 000715,-0.00000892,0.00000313,0.00000090,0.00000192,-0.00000371,-0.000
 00064,0.00000347,0.00000411,0.00000038,-0.00000330,-0.00000035,-0.0000
 0034,0.00000010,-0.00000015,-0.00000099,0.00000032,0.00000048,-0.00000
 100,0.00000030,-0.00000009,-0.00000025,-0.00000020,0.00001479,-0.00001
 303,0.00003081,-0.00002278,0.00006130,-0.00010857,-0.00000541,0.000000
 52,0.00000053,0.00000128,-0.00000098,0.00000112,0.00000013,0.00000024,
 -0.00000038,0.00000002,0.00000021,-0.00000015,-0.00000028,-0.00000006,
 -0.00000007,0.00003790,-0.00023162,0.00081389,-0.00004388,0.00006843,-
 0.00111365,0.00087098,0.01934274,-0.05692336,0.06829323,-0.00717187,0.
 02900686,-0.07006101,-0.00748852,0.02589175,0.05439867,0.07461328,-0.2
 5357021,-0.00174362,0.00200234,0.00231333,-0.05289824,0.07548050,-0.25
 876893,0.00149480,0.00200771,0.00238823,0.00336208,-0.18201915,0.60009
 171,-0.00002622,0.00000490,-0.00001310,-0.00001836,0.00001331,-0.00003
 415,0.00004669,0.00000225,-0.00000428,-0.00001792,-0.00000992,0.000024
 64,-0.00002996,-0.00000732,0.00001770,0.00008225,0.00000531,-0.0000111
 1,-0.00000870,-0.00000124,0.00000285,0.00000862,0.00000153,-0.00000368
 ,0.00000871,-0.00000258,0.00000668,-0.00000783,0.00000161,-0.00000433,
 -0.00002948,0.00000938,-0.00002445,0.00002847,-0.00005336,0.00013602,-
 0.00011240,0.00000182,-0.00000770,0.00002773,-0.00001298,0.00003348,0.
 00000111,0.00000329,-0.00000667,0.00000112,0.00000220,-0.00000709,-0.0
 0000581,0.00000014,-0.00000052,-0.00036083,0.00000177,-0.00001174,-0.0
 0039385,0.00046241,-0.00118765,-0.00468835,-0.00068600,0.00138853,-0.0
 1196218,0.01124193,-0.02879560,-0.00059501,-0.00029922,0.00074852,-0.1
 2721884,0.04325284,-0.11159881,0.00061437,-0.00012932,0.00046407,-0.00
 129935,-0.00122004,0.00284634,0.00011066,0.00005136,-0.00008990,0.0113
 4544,-0.00652990,0.01669041,0.13327776,0.00000964,-0.00000355,0.000008
 78,-0.00000084,-0.00000226,0.00000986,-0.00000266,-0.00000302,-0.00000
 096,-0.00000175,-0.00000037,-0.00000914,0.00001152,0.00000129,-0.00001
 099,-0.00003139,-0.00000070,0.00000481,0.00000190,0.00000139,-0.000000
 79,-0.00000213,0.00000136,0.00000139,-0.00000195,0.00000239,-0.0000004
 1,0.00000188,0.00000040,0.00000203,-0.00001287,-0.00000120,-0.00000028
 ,0.00002346,-0.00001784,-0.00000931,0.00004327,-0.00000257,0.00000254,
 -0.00001099,0.00000674,-0.00001242,-0.00000057,-0.00000195,0.00000278,
 -0.00000023,-0.00000096,0.00000226,0.00000216,0.00000023,0.00000028,-0
 .00002231,-0.00009816,-0.00001585,0.00001223,0.00032326,0.00009753,-0.
 00050796,0.00666662,0.00194098,-0.00162225,0.00360492,-0.00013558,-0.0
 0032533,-0.00026815,-0.00027020,0.04327708,-0.07005161,0.08010097,0.00
 020132,-0.00357321,-0.00177336,-0.00158407,0.00560951,0.00323678,0.000
 05758,-0.00112430,-0.00043624,0.00637415,0.00048802,0.00800705,-0.0460
 0645,0.06171521,-0.00002505,0.00000865,-0.00002270,0.00000156,0.000010
 26,-0.00002418,0.00000812,-0.00000082,-0.00000108,0.00000401,-0.000009
 37,0.00001977,-0.00002982,-0.00001152,0.00002503,0.00008145,0.00000585
 ,-0.00001089,-0.00000507,-0.00000088,0.00000313,0.00000556,0.00000149,
 -0.00000167,0.00000509,-0.00000043,0.00000348,-0.00000499,0.00000202,-
 0.00000405,0.00003167,0.00000035,-0.00000115,-0.00005776,-0.00001148,0
 .00000551,-0.00011225,0.00000137,-0.00000867,0.00002845,-0.00001247,0.
 00003421,0.00000098,0.00000342,-0.00000650,0.00000114,0.00000180,-0.00
 000751,-0.00000562,0.00000023,-0.00000041,0.00004905,-0.00001515,-0.00
 006455,-0.00005209,0.00011018,0.00008237,0.00093970,0.00193613,0.00258
 421,0.00365520,0.00022672,0.00310035,0.00081411,-0.00026947,0.00033111
 ,-0.11166036,0.08010032,-0.24398312,-0.00037002,-0.00178264,0.00020789
 ,0.00376448,0.00324703,-0.00117433,-0.00010555,-0.00043643,-0.00019994
 ,-0.01586041,0.00764350,-0.01613685,0.11905535,-0.08958050,0.25604182,
 -0.00002657,0.00000640,-0.00001682,-0.00001865,0.00001060,-0.00002714,
 0.00004627,-0.00000062,0.00000297,-0.00001664,-0.00001313,0.00003262,-
 0.00003251,-0.00000638,0.00001519,0.00008679,0.00000465,-0.00000932,-0
 .00000713,-0.00000122,0.00000285,0.00000918,0.00000253,-0.00000618,0.0
 0000838,-0.00000159,0.00000420,-0.00000981,0.00000180,-0.00000485,-0.0
 0002884,-0.00001059,0.00002594,0.00003011,0.00005460,-0.00013626,-0.00
 011906,0.00000381,-0.00001291,0.00003030,-0.00001517,0.00003907,0.0000
 0103,0.00000449,-0.00000699,0.00000106,0.00000154,-0.00000815,-0.00000
 579,0.00000016,-0.00000057,-0.00036069,-0.00000546,0.00000650,-0.00042
 647,-0.00047198,0.00116850,-0.00461973,0.00051272,-0.00163370,-0.00054
 908,0.00030531,-0.00077512,-0.01265171,-0.01140843,0.02832236,-0.00111
 882,0.00104999,-0.00287499,0.00010485,-0.00002548,0.00010377,-0.133359
 80,-0.04634180,0.11423588,0.00061549,0.00022761,-0.00043623,0.01134063
 ,0.00639250,-0.01590730,0.00040880,0.00028062,-0.00070344,0.13985209,-
 0.00000986,0.00000129,-0.00001043,0.00000101,-0.00000024,-0.00000967,0
 .00000313,-0.00000248,-0.00000284,0.00000140,-0.00000240,0.00000994,-0
 .00001213,-0.00000428,0.00000944,0.00003271,0.00000335,-0.00000359,-0.
 00000168,0.00000057,0.00000159,0.00000211,0.00000234,-0.00000032,0.000
 00207,0.00000126,0.00000159,-0.00000235,0.00000168,-0.00000134,0.00001
 262,-0.00000145,0.00000167,-0.00002266,-0.00001759,-0.00001165,-0.0000
 4515,-0.00000070,-0.00000497,0.00001160,-0.00000357,0.00001514,0.00000
 029,0.00000106,-0.00000245,0.00000054,0.00000033,-0.00000360,-0.000002
 20,0.00000026,-0.00000009,0.00002011,-0.00009770,-0.00001451,-0.000022
 71,0.00031934,0.00010878,0.00033432,0.00667834,0.00193952,0.00033241,-
 0.00026184,-0.00026889,0.00146182,0.00350261,0.00019687,0.00141390,0.0
 0563604,0.00325832,-0.00003164,-0.00112436,-0.00043645,-0.04636970,-0.
 07091601,0.07983465,-0.00010413,-0.00357181,-0.00178246,-0.00650999,0.
 00048450,0.00764619,-0.00029149,0.00007343,0.00044281,0.04954217,0.062
 64117,0.00002420,-0.00000997,0.00002311,-0.00000295,-0.00000940,0.0000
 1954,-0.00000649,-0.00000294,0.00000360,-0.00000403,0.00000953,-0.0000
 2263,0.00002969,0.00000960,-0.00002379,-0.00008011,-0.00000438,0.00001
 035,0.00000401,0.00000160,-0.00000271,-0.00000512,-0.00000031,0.000002
 82,-0.00000503,0.00000148,-0.00000201,0.00000561,-0.00000122,0.0000044
 2,-0.00003263,0.00000102,-0.00000442,0.00005866,-0.00000947,0.00000360
 ,0.00011061,-0.00000358,0.00001001,-0.00002848,0.00001438,-0.00003478,
 -0.00000103,-0.00000426,0.00000655,-0.00000097,-0.00000163,0.00000725,
 0.00000537,-0.00000002,0.00000046,-0.00005799,-0.00001526,-0.00006688,
 0.00003511,0.00009615,0.00012118,-0.00118342,0.00194443,0.00250511,-0.
 00084384,-0.00026960,0.00028412,-0.00414424,-0.00016585,0.00386591,-0.
 00379276,0.00324810,-0.00138863,0.00011931,-0.00043626,-0.00019314,0.1
 1430619,0.07983569,-0.23692370,0.00040056,-0.00177314,0.00020700,0.016
 64079,0.00800954,-0.01614778,0.00073973,0.00045896,-0.00088465,-0.1217
 8648,-0.08930369,0.24853294,-0.00002590,0.00000790,-0.00002065,-0.0000
 0524,0.00000862,-0.00002182,0.00002914,0.00000076,-0.00000116,-0.00000
 388,-0.00000813,0.00002046,-0.00003084,-0.00000905,0.00002198,0.000089
 03,0.00000508,-0.00001034,-0.00000553,-0.00000135,0.00000323,0.0000074
 4,0.00000168,-0.00000407,0.00000706,-0.00000175,0.00000457,-0.00000638
 ,0.00000184,-0.00000484,-0.00000335,-0.00000045,0.00000122,0.00002002,
 -0.00000059,-0.00000017,-0.00012050,0.00000300,-0.00001093,0.00003130,
 -0.00001454,0.00003751,0.00000125,0.00000394,-0.00000722,0.00000127,0.
 00000211,-0.00000793,-0.00000628,0.00000005,-0.00000030,-0.00010670,-0
 .00000077,-0.00000087,0.00011298,0.00001291,0.00000266,0.00093285,0.00
 000585,0.00002938,0.00083192,-0.00113861,0.00269588,0.00094657,0.00096
 827,-0.00261558,-0.01183733,0.00152603,-0.00428478,-0.00067821,0.00005
 565,-0.00016427,-0.01117149,-0.00167780,0.00381583,-0.00064843,-0.0000
 6465,0.00013998,-0.34268250,-0.00162347,-0.00448064,0.00081337,-0.0001
 6306,0.00054648,0.00081631,0.00025348,-0.00050424,0.36269203,-0.000000
 02,-0.00000063,-0.00000071,0.00000021,-0.00000198,-0.00000028,0.000000
 12,0.00000240,0.00000067,-0.00000022,-0.00000213,-0.00000011,-0.000000
 24,-0.00000089,-0.00000056,0.00000043,0.00000134,0.00000053,0.,0.00000
 074,0.00000031,0.00000021,0.00000143,0.00000032,-0.00000016,0.00000140
 ,0.00000035,-0.00000009,0.00000081,0.00000029,0.00000006,-0.00000535,-
 0.00000334,-0.00000071,0.00006642,0.00003142,-0.00000057,-0.00000151,-
 0.00000070,0.00000012,0.00000127,0.00000067,-0.00000012,-0.00000040,0.
 00000014,0.00000012,-0.00000017,-0.00000045,-0.00000004,0.00000020,0.0
 0000006,-0.00000047,-0.00000457,-0.00000457,0.00001246,-0.00095178,-0.
 00046723,0.00000567,-0.00069417,0.00014649,-0.00078732,0.00549186,0.00
 401745,0.00061521,0.00550874,0.00401162,-0.01136228,0.00357561,-0.0002
 2143,-0.00050285,0.00015172,0.00003076,0.01120874,0.00367171,0.0001720
 6,0.00049355,0.00015741,0.00004881,-0.00162300,-0.04127909,0.00770041,
 0.00019375,-0.00334493,-0.00161095,-0.00009963,-0.00334315,-0.00161951
 ,0.00184705,0.03099770,-0.00000065,-0.00000049,0.00000030,-0.00000061,
 -0.00000004,-0.00000200,0.00000044,0.00000068,0.00000095,0.00000049,-0
 .00000033,-0.00000132,-0.00000022,-0.00000081,0.00000092,0.00000137,0.
 00000066,-0.00000008,-0.00000020,0.00000028,0.00000016,-0.00000037,0.0
 0000036,0.00000064,0.00000056,0.00000030,0.00000079,0.00000002,0.00000
 035,0.00000005,-0.00000006,-0.00000335,0.00000178,0.00000014,0.0000314
 3,-0.00000039,-0.00000191,-0.00000060,-0.00000033,0.00000054,0.0000002
 6,0.00000089,0.,-0.00000010,-0.00000004,0.00000010,-0.00000005,-0.0000
 0029,-0.00000009,0.00000006,0.00000007,-0.00000167,-0.00000458,0.00000
 513,0.00000383,-0.00046722,0.00004158,0.00002981,0.00014642,-0.0010046
 9,0.00180950,0.00400755,-0.00296496,-0.00172497,0.00402164,-0.00310132
 ,0.02822653,0.00014163,0.00405258,0.00124460,0.00004650,0.00008732,-0.
 02869184,-0.00019085,0.00328785,-0.00126809,0.00003306,0.00005204,-0.0
 0448091,0.00770034,-0.05775899,-0.00035354,-0.00162100,0.00009334,0.00
 038658,-0.00160958,0.00008715,0.00482063,-0.01223251,0.05712087||-0.00
 000554,0.00000137,-0.00000387,0.00000757,0.00000023,-0.00000623,-0.000
 00629,-0.00000115,0.00001354,-0.00000903,0.00000176,-0.00000585,0.0000
 1259,0.00000153,-0.00000319,-0.00000885,-0.00000106,0.00000913,0.00000
 128,-0.00000086,0.00000144,-0.00000102,-0.00000030,0.00000070,0.000001
 15,-0.00000043,0.00000108,-0.00000100,-0.00000173,0.00000050,0.0000082
 1,-0.00000215,-0.00000252,-0.00000407,0.00000227,-0.00000185,0.0000052
 9,-0.00000158,0.00000301,-0.00000220,-0.00000174,-0.00000618,-0.000000
 83,0.00000057,0.00000142,0.00000004,0.00000064,0.00000287,0.00000178,0
 .00000004,0.00000300,0.00000347,-0.00000033,0.00000254,-0.00000863,-0.
 00000195,-0.00000149,0.00000713,0.00000612,-0.00000260,0.00000232,-0.0
 0000138,0.00000081,-0.00000441,-0.00000285,0.00000027,-0.00000330,-0.0
 0000063,0.00000034,-0.00000007,0.00000017,-0.00000113,0.00000295,0.000
 00047,0.00000122,0.00000003,0.00000023,-0.00000062,0.00000103,0.000001
 83,-0.00000350,0.00000090,0.00000051,-0.00000092,-0.00000036,0.0000004
 1,-0.00000100,-0.00000013,0.,-0.00000092|||@


 JUST WHEN YOU THINK YOU'VE GOT THE WORLD ON A STRING,
 YOU FIND OUT IT'S YOUR LEASH.
 Job cpu time:       0 days  0 hours  4 minutes 47.0 seconds.
 File lengths (MBytes):  RWF=    153 Int=      0 D2E=      0 Chk=      4 Scr=      1
 Normal termination of Gaussian 09 at Mon Sep 11 23:49:00 2023.
