 Entering Gaussian System, Link 0=C:\G09W\g09.exe
 Input=D:\machine learning\molecule_12.gjf
 Output=D:\machine learning\molecule_12.log
 Initial command:
 C:/G09W\l1.exe ".\Gau-36.inp" "D:\machine learning\molecule_12.log" /scrdir=".\"
 Entering Link 1 = C:/G09W\l1.exe PID=      2268.
  
 Copyright (c) 1988,1990,1992,1993,1995,1998,2003,2009,2013,
            Gaussian, Inc.  All Rights Reserved.
  
 This is part of the Gaussian(R) 09 program.  It is based on
 the Gaussian(R) 03 system (copyright 2003, Gaussian, Inc.),
 the Gaussian(R) 98 system (copyright 1998, Gaussian, Inc.),
 the Gaussian(R) 94 system (copyright 1995, Gaussian, Inc.),
 the Gaussian 92(TM) system (copyright 1992, Gaussian, Inc.),
 the Gaussian 90(TM) system (copyright 1990, Gaussian, Inc.),
 the Gaussian 88(TM) system (copyright 1988, Gaussian, Inc.),
 the Gaussian 86(TM) system (copyright 1986, Carnegie Mellon
 University), and the Gaussian 82(TM) system (copyright 1983,
 Carnegie Mellon University). Gaussian is a federally registered
 trademark of Gaussian, Inc.
  
 This software contains proprietary and confidential information,
 including trade secrets, belonging to Gaussian, Inc.
  
 This software is provided under written license and may be
 used, copied, transmitted, or stored only in accord with that
 written license.
  
 The following legend is applicable only to US Government
 contracts under FAR:
  
                    RESTRICTED RIGHTS LEGEND
  
 Use, reproduction and disclosure by the US Government is
 subject to restrictions as set forth in subparagraphs (a)
 and (c) of the Commercial Computer Software - Restricted
 Rights clause in FAR 52.227-19.
  
 Gaussian, Inc.
 340 Quinnipiac St., Bldg. 40, Wallingford CT 06492
  
  
 ---------------------------------------------------------------
 Warning -- This program may not be used in any manner that
 competes with the business of Gaussian, Inc. or will provide
 assistance to any competitor of Gaussian, Inc.  The licensee
 of this program is prohibited from giving any competitor of
 Gaussian, Inc. access to this program.  By using this program,
 the user acknowledges that Gaussian, Inc. is engaged in the
 business of creating and licensing software in the field of
 computational chemistry and represents and warrants to the
 licensee that it is not a competitor of Gaussian, Inc. and that
 it will not use this program in any manner prohibited above.
 ---------------------------------------------------------------
  

 Cite this work as:
 Gaussian 09, Revision D.01,
 M. J. Frisch, G. W. Trucks, H. B. Schlegel, G. E. Scuseria, 
 M. A. Robb, J. R. Cheeseman, G. Scalmani, V. Barone, B. Mennucci, 
 G. A. Petersson, H. Nakatsuji, M. Caricato, X. Li, H. P. Hratchian, 
 A. F. Izmaylov, J. Bloino, G. Zheng, J. L. Sonnenberg, M. Hada, 
 M. Ehara, K. Toyota, R. Fukuda, J. Hasegawa, M. Ishida, T. Nakajima, 
 Y. Honda, O. Kitao, H. Nakai, T. Vreven, J. A. Montgomery, Jr., 
 J. E. Peralta, F. Ogliaro, M. Bearpark, J. J. Heyd, E. Brothers, 
 K. N. Kudin, V. N. Staroverov, T. Keith, R. Kobayashi, J. Normand, 
 K. Raghavachari, A. Rendell, J. C. Burant, S. S. Iyengar, J. Tomasi, 
 M. Cossi, N. Rega, J. M. Millam, M. Klene, J. E. Knox, J. B. Cross, 
 V. Bakken, C. Adamo, J. Jaramillo, R. Gomperts, R. E. Stratmann, 
 O. Yazyev, A. J. Austin, R. Cammi, C. Pomelli, J. W. Ochterski, 
 R. L. Martin, K. Morokuma, V. G. Zakrzewski, G. A. Voth, 
 P. Salvador, J. J. Dannenberg, S. Dapprich, A. D. Daniels, 
 O. Farkas, J. B. Foresman, J. V. Ortiz, J. Cioslowski, 
 and D. J. Fox, Gaussian, Inc., Wallingford CT, 2013.
 
 ******************************************
 Gaussian 09:  EM64W-G09RevD.01 13-Apr-2013
                24-Aug-2023 
 ******************************************
 %nprocshared=6
 Will use up to    6 processors via shared memory.
 %mem=8GB
 %chk=D:\machine learning\molecule_12.chk
 --------------------------------------------------
 # opt freq b3lyp/6-31+g(d) empiricaldispersion=gd3
 --------------------------------------------------
 1/14=-1,18=20,19=15,26=3,38=1/1,3;
 2/9=110,12=2,17=6,18=5,40=1/2;
 3/5=1,6=6,7=11,11=2,16=1,25=1,30=1,71=1,74=-5,124=31/1,2,3;
 4//1;
 5/5=2,38=5/2;
 6/7=2,8=2,9=2,10=2,28=1/1;
 7//1,2,3,16;
 1/14=-1,18=20,19=15,26=3/3(2);
 2/9=110/2;
 99//99;
 2/9=110/2;
 3/5=1,6=6,7=11,11=2,16=1,25=1,30=1,71=1,74=-5,124=31/1,2,3;
 4/5=5,16=3,69=1/1;
 5/5=2,38=5/2;
 7//1,2,3,16;
 1/14=-1,18=20,19=15,26=3/3(-5);
 2/9=110/2;
 6/7=2,8=2,9=2,10=2,19=2,28=1/1;
 99/9=1/99;
 -------------------
 Title Card Required
 -------------------
 Symbolic Z-matrix:
 Charge =  0 Multiplicity = 1
 C                    -1.90256  -1.12801   0.77489 
 C                    -1.23584  -0.64732  -0.3627 
 C                    -1.96158  -0.21483  -1.46767 
 C                    -3.35953  -0.18381  -1.41582 
 C                    -4.0276   -0.625    -0.26926 
 H                    -1.33162  -1.49996   1.63189 
 H                    -1.43981   0.13179  -2.36242 
 H                    -3.9299    0.18691  -2.27217 
 C                     0.30537  -0.66013  -0.31415 
 C                     1.50453  -0.6646   -0.3118 
 C                     3.04583  -0.67033  -0.3088 
 C                     3.74094  -0.64815   0.90391 
 C                     3.74301  -0.64953  -1.51823 
 C                     5.13893  -0.65108   0.90431 
 H                     3.19319  -0.65075   1.84979 
 C                     5.14129  -0.65299  -1.51765 
 H                     3.19713  -0.65265  -2.46661 
 C                     5.83663  -0.65189  -0.30607 
 H                     5.68512  -0.65063   1.85176 
 H                     5.68889  -0.65374  -2.46414 
 H                     6.90601  -0.65232  -0.30508 
 C                    -3.29873  -1.09919   0.82567 
 H                    -3.80921  -1.4399    1.70216 
 N                    -5.49627  -0.5921   -0.21607 
 C                    -6.65521  -0.56613  -0.17409 
 

 GradGradGradGradGradGradGradGradGradGradGradGradGradGradGradGradGradGrad
 Berny optimization.
 Initialization pass.
                           ----------------------------
                           !    Initial Parameters    !
                           ! (Angstroms and Degrees)  !
 --------------------------                            --------------------------
 ! Name  Definition              Value          Derivative Info.                !
 --------------------------------------------------------------------------------
 ! R1    R(1,2)                  1.4035         estimate D2E/DX2                !
 ! R2    R(1,6)                  1.0949         estimate D2E/DX2                !
 ! R3    R(1,22)                 1.3974         estimate D2E/DX2                !
 ! R4    R(2,3)                  1.3909         estimate D2E/DX2                !
 ! R5    R(2,9)                  1.542          estimate D2E/DX2                !
 ! R6    R(3,4)                  1.3993         estimate D2E/DX2                !
 ! R7    R(3,7)                  1.0922         estimate D2E/DX2                !
 ! R8    R(4,5)                  1.3984         estimate D2E/DX2                !
 ! R9    R(4,8)                  1.0937         estimate D2E/DX2                !
 ! R10   R(5,22)                 1.3982         estimate D2E/DX2                !
 ! R11   R(5,24)                 1.47           estimate D2E/DX2                !
 ! R12   R(9,10)                 1.1992         estimate D2E/DX2                !
 ! R13   R(10,11)                1.5413         estimate D2E/DX2                !
 ! R14   R(11,12)                1.398          estimate D2E/DX2                !
 ! R15   R(11,13)                1.3961         estimate D2E/DX2                !
 ! R16   R(12,14)                1.398          estimate D2E/DX2                !
 ! R17   R(12,15)                1.093          estimate D2E/DX2                !
 ! R18   R(13,16)                1.3983         estimate D2E/DX2                !
 ! R19   R(13,17)                1.0943         estimate D2E/DX2                !
 ! R20   R(14,18)                1.3971         estimate D2E/DX2                !
 ! R21   R(14,19)                1.0936         estimate D2E/DX2                !
 ! R22   R(16,18)                1.3969         estimate D2E/DX2                !
 ! R23   R(16,20)                1.0935         estimate D2E/DX2                !
 ! R24   R(18,21)                1.0694         estimate D2E/DX2                !
 ! R25   R(22,23)                1.07           estimate D2E/DX2                !
 ! R26   R(24,25)                1.16           estimate D2E/DX2                !
 ! A1    A(2,1,6)              120.204          estimate D2E/DX2                !
 ! A2    A(2,1,22)             119.8047         estimate D2E/DX2                !
 ! A3    A(6,1,22)             119.971          estimate D2E/DX2                !
 ! A4    A(1,2,3)              120.1683         estimate D2E/DX2                !
 ! A5    A(1,2,9)              116.5157         estimate D2E/DX2                !
 ! A6    A(3,2,9)              123.304          estimate D2E/DX2                !
 ! A7    A(2,3,4)              119.9162         estimate D2E/DX2                !
 ! A8    A(2,3,7)              120.0131         estimate D2E/DX2                !
 ! A9    A(4,3,7)              120.0388         estimate D2E/DX2                !
 ! A10   A(3,4,5)              120.0444         estimate D2E/DX2                !
 ! A11   A(3,4,8)              119.9699         estimate D2E/DX2                !
 ! A12   A(5,4,8)              119.9857         estimate D2E/DX2                !
 ! A13   A(4,5,22)             120.0015         estimate D2E/DX2                !
 ! A14   A(4,5,24)             119.9936         estimate D2E/DX2                !
 ! A15   A(22,5,24)            120.0048         estimate D2E/DX2                !
 ! A16   A(10,11,12)           119.9238         estimate D2E/DX2                !
 ! A17   A(10,11,13)           119.8422         estimate D2E/DX2                !
 ! A18   A(12,11,13)           120.1945         estimate D2E/DX2                !
 ! A19   A(11,12,14)           119.8308         estimate D2E/DX2                !
 ! A20   A(11,12,15)           120.098          estimate D2E/DX2                !
 ! A21   A(14,12,15)           120.0575         estimate D2E/DX2                !
 ! A22   A(11,13,16)           119.9314         estimate D2E/DX2                !
 ! A23   A(11,13,17)           120.108          estimate D2E/DX2                !
 ! A24   A(16,13,17)           119.947          estimate D2E/DX2                !
 ! A25   A(12,14,18)           119.944          estimate D2E/DX2                !
 ! A26   A(12,14,19)           119.9792         estimate D2E/DX2                !
 ! A27   A(18,14,19)           120.0767         estimate D2E/DX2                !
 ! A28   A(13,16,18)           119.8756         estimate D2E/DX2                !
 ! A29   A(13,16,20)           120.0284         estimate D2E/DX2                !
 ! A30   A(18,16,20)           120.0958         estimate D2E/DX2                !
 ! A31   A(14,18,16)           120.1873         estimate D2E/DX2                !
 ! A32   A(14,18,21)           119.9076         estimate D2E/DX2                !
 ! A33   A(16,18,21)           119.9051         estimate D2E/DX2                !
 ! A34   A(1,22,5)             119.958          estimate D2E/DX2                !
 ! A35   A(1,22,23)            119.9918         estimate D2E/DX2                !
 ! A36   A(5,22,23)            120.0502         estimate D2E/DX2                !
 ! A37   L(2,9,10,6,-1)        181.6583         estimate D2E/DX2                !
 ! A38   L(9,10,11,17,-1)      179.9996         estimate D2E/DX2                !
 ! A39   L(5,24,25,8,-1)       179.9999         estimate D2E/DX2                !
 ! A40   L(2,9,10,6,-2)        179.4663         estimate D2E/DX2                !
 ! A41   L(9,10,11,17,-2)      179.9998         estimate D2E/DX2                !
 ! A42   L(5,24,25,8,-2)       179.9997         estimate D2E/DX2                !
 ! D1    D(6,1,2,3)            177.9414         estimate D2E/DX2                !
 ! D2    D(6,1,2,9)             -0.8433         estimate D2E/DX2                !
 ! D3    D(22,1,2,3)            -3.6992         estimate D2E/DX2                !
 ! D4    D(22,1,2,9)           177.5162         estimate D2E/DX2                !
 ! D5    D(2,1,22,5)             1.6809         estimate D2E/DX2                !
 ! D6    D(2,1,22,23)         -178.3191         estimate D2E/DX2                !
 ! D7    D(6,1,22,5)          -179.9557         estimate D2E/DX2                !
 ! D8    D(6,1,22,23)            0.0443         estimate D2E/DX2                !
 ! D9    D(1,2,3,4)              3.816          estimate D2E/DX2                !
 ! D10   D(1,2,3,7)           -178.2399         estimate D2E/DX2                !
 ! D11   D(9,2,3,4)           -177.4853         estimate D2E/DX2                !
 ! D12   D(9,2,3,7)              0.4589         estimate D2E/DX2                !
 ! D13   D(1,2,11,12)          -24.1431         estimate D2E/DX2                !
 ! D14   D(1,2,11,13)          158.2445         estimate D2E/DX2                !
 ! D15   D(3,2,11,12)          157.4038         estimate D2E/DX2                !
 ! D16   D(3,2,11,13)          -20.2086         estimate D2E/DX2                !
 ! D17   D(2,3,4,5)             -1.9249         estimate D2E/DX2                !
 ! D18   D(2,3,4,8)            178.0            estimate D2E/DX2                !
 ! D19   D(7,3,4,5)           -179.8685         estimate D2E/DX2                !
 ! D20   D(7,3,4,8)              0.0564         estimate D2E/DX2                !
 ! D21   D(3,4,5,22)            -0.0841         estimate D2E/DX2                !
 ! D22   D(3,4,5,24)          -179.9913         estimate D2E/DX2                !
 ! D23   D(8,4,5,22)           179.991          estimate D2E/DX2                !
 ! D24   D(8,4,5,24)             0.0838         estimate D2E/DX2                !
 ! D25   D(4,5,22,1)             0.1967         estimate D2E/DX2                !
 ! D26   D(4,5,22,23)         -179.8033         estimate D2E/DX2                !
 ! D27   D(24,5,22,1)         -179.8961         estimate D2E/DX2                !
 ! D28   D(24,5,22,23)           0.1039         estimate D2E/DX2                !
 ! D29   D(10,11,12,14)       -179.8905         estimate D2E/DX2                !
 ! D30   D(10,11,12,15)          1.4544         estimate D2E/DX2                !
 ! D31   D(13,11,12,14)         -2.1768         estimate D2E/DX2                !
 ! D32   D(13,11,12,15)        179.1681         estimate D2E/DX2                !
 ! D33   D(10,11,13,16)        179.9195         estimate D2E/DX2                !
 ! D34   D(10,11,13,17)         -1.4191         estimate D2E/DX2                !
 ! D35   D(12,11,13,16)          2.2039         estimate D2E/DX2                !
 ! D36   D(12,11,13,17)       -179.1347         estimate D2E/DX2                !
 ! D37   D(11,12,14,18)          1.1475         estimate D2E/DX2                !
 ! D38   D(11,12,14,19)       -178.9793         estimate D2E/DX2                !
 ! D39   D(15,12,14,18)        179.8032         estimate D2E/DX2                !
 ! D40   D(15,12,14,19)         -0.3236         estimate D2E/DX2                !
 ! D41   D(11,13,16,18)         -1.1998         estimate D2E/DX2                !
 ! D42   D(11,13,16,20)        178.9699         estimate D2E/DX2                !
 ! D43   D(17,13,16,18)       -179.8633         estimate D2E/DX2                !
 ! D44   D(17,13,16,20)          0.3064         estimate D2E/DX2                !
 ! D45   D(12,14,18,16)         -0.1518         estimate D2E/DX2                !
 ! D46   D(12,14,18,21)        179.8876         estimate D2E/DX2                !
 ! D47   D(19,14,18,16)        179.9751         estimate D2E/DX2                !
 ! D48   D(19,14,18,21)          0.0145         estimate D2E/DX2                !
 ! D49   D(13,16,18,14)          0.1766         estimate D2E/DX2                !
 ! D50   D(13,16,18,21)       -179.8628         estimate D2E/DX2                !
 ! D51   D(20,16,18,14)       -179.9932         estimate D2E/DX2                !
 ! D52   D(20,16,18,21)         -0.0326         estimate D2E/DX2                !
 --------------------------------------------------------------------------------
 Trust Radius=3.00D-01 FncErr=1.00D-07 GrdErr=1.00D-06
 Number of steps in this run=    130 maximum allowed number of steps=    150.
 GradGradGradGradGradGradGradGradGradGradGradGradGradGradGradGradGradGrad

                          Input orientation:                          
 ---------------------------------------------------------------------
 Center     Atomic      Atomic             Coordinates (Angstroms)
 Number     Number       Type             X           Y           Z
 ---------------------------------------------------------------------
      1          6           0       -1.902563   -1.128006    0.774886
      2          6           0       -1.235836   -0.647325   -0.362698
      3          6           0       -1.961577   -0.214830   -1.467672
      4          6           0       -3.359529   -0.183806   -1.415822
      5          6           0       -4.027596   -0.625001   -0.269257
      6          1           0       -1.331625   -1.499960    1.631886
      7          1           0       -1.439805    0.131794   -2.362418
      8          1           0       -3.929902    0.186908   -2.272165
      9          6           0        0.305369   -0.660132   -0.314145
     10          6           0        1.504530   -0.664596   -0.311803
     11          6           0        3.045831   -0.670330   -0.308802
     12          6           0        3.740935   -0.648145    0.903907
     13          6           0        3.743007   -0.649532   -1.518233
     14          6           0        5.138930   -0.651076    0.904311
     15          1           0        3.193188   -0.650751    1.849788
     16          6           0        5.141288   -0.652990   -1.517655
     17          1           0        3.197135   -0.652649   -2.466612
     18          6           0        5.836634   -0.651893   -0.306072
     19          1           0        5.685118   -0.650629    1.851758
     20          1           0        5.688891   -0.653741   -2.464145
     21          1           0        6.906012   -0.652317   -0.305084
     22          6           0       -3.298726   -1.099189    0.825675
     23          1           0       -3.809209   -1.439901    1.702158
     24          7           0       -5.496265   -0.592095   -0.216065
     25          6           0       -6.655215   -0.566132   -0.174095
 ---------------------------------------------------------------------
                    Distance matrix (angstroms):
                    1          2          3          4          5
     1  C    0.000000
     2  C    1.403451   0.000000
     3  C    2.422073   1.390941   0.000000
     4  C    2.795257   2.415365   1.399257   0.000000
     5  C    2.420541   2.793413   2.423402   1.398420   0.000000
     6  H    1.094883   2.171296   3.414038   3.890139   3.412940
     7  H    3.412318   2.155808   1.092229   2.163558   3.413316
     8  H    3.888910   3.405877   2.164002   1.093653   2.163419
     9  C    2.505965   1.542023   2.582240   3.856430   4.333341
    10  C    3.606095   2.740893   3.681334   5.010897   5.532432
    11  C    5.086300   4.282068   5.159902   6.518499   7.073683
    12  C    5.665332   5.135421   6.191187   7.484206   7.856649
    13  C    6.112265   5.111179   5.721346   7.118525   7.870376
    14  C    7.058812   6.499459   7.498920   8.821857   9.241382
    15  H    5.229709   4.950895   6.145499   7.336235   7.525340
    16  C    7.422750   6.480869   7.116542   8.514363   9.253525
    17  H    6.061368   4.906905   5.272748   6.656861   7.551548
    18  C    7.828813   7.072698   7.896355   9.274699   9.864335
    19  H    7.678571   7.266598   8.347484   9.628117   9.941639
    20  H    8.267189   7.236571   7.727564   9.121058   9.961349
    21  H    8.887272   8.142054   8.954168  10.336081  10.933701
    22  C    1.397384   2.423205   2.798124   2.421968   1.398207
    23  H    2.142991   3.393236   3.868121   3.391428   2.144349
    24  N    3.766149   4.263309   3.768670   2.484303   1.470000
    25  C    4.878931   5.423267   4.881290   3.542543   2.630000
                    6          7          8          9         10
     6  H    0.000000
     7  H    4.316107   0.000000
     8  H    4.983792   2.492341   0.000000
     9  C    2.678077   2.805031   4.742240   0.000000
    10  C    3.538295   3.675373   5.839617   1.199171   0.000000
    11  C    4.859699   4.998166   7.297294   2.740486   1.541315
    12  C    5.194844   6.173917   8.344249   3.645121   2.545531
    13  C    6.033106   5.308923   7.755100   3.642429   2.542927
    14  C    6.566433   7.386755   9.645513   4.984779   3.832490
    15  H    4.608966   6.310283   8.272277   3.608627   2.743033
    16  C    7.248142   6.681339   9.141181   4.983432   3.831478
    17  H    6.166464   4.703979   7.178949   3.604924   2.740120
    18  C    7.473876   7.601926   9.997716   5.531276   4.332126
    19  H    7.071378   8.314806  10.495562   5.799390   4.707283
    20  H    8.171976   7.172567   9.657366   5.796968   4.705483
    21  H    8.504646   8.631345  11.044941   6.600654   5.401500
    22  C    2.163349   3.890352   3.413069   3.805452   4.955199
    23  H    2.479308   4.960350   4.296082   4.647932   5.735238
    24  N    4.645791   4.646043   2.699609   5.802862   7.001825
    25  C    5.698615   5.698803   3.520838   6.962628   8.161501
                   11         12         13         14         15
    11  C    0.000000
    12  C    1.397972   0.000000
    13  C    1.396141   2.422141   0.000000
    14  C    2.419314   1.397998   2.795948   0.000000
    15  H    2.163703   1.093035   3.412604   2.163294   0.000000
    16  C    2.419207   2.797315   1.398285   2.421968   3.890343
    17  H    2.163180   3.414109   1.094262   3.890205   4.316402
    18  C    2.790865   2.419920   2.419217   1.397075   3.411091
    19  H    3.410902   2.162932   3.889555   1.093608   2.491931
    20  H    3.410504   3.890801   2.163615   3.413057   4.983830
    21  H    3.860225   3.388124   3.387674   2.141312   4.292848
    22  C    6.459440   7.054530   7.435193   8.449913   6.587476
    23  H    7.185247   7.633397   8.248125   9.018203   7.048270
    24  N    8.542958   9.305018   9.330761  10.694209   8.931841
    25  C    9.702541  10.452213  10.485070  11.843649  10.054566
                   16         17         18         19         20
    16  C    0.000000
    17  H    2.163389   0.000000
    18  C    1.396940   3.410995   0.000000
    19  H    3.413020   4.983813   2.163144   0.000000
    20  H    1.093486   2.491757   2.163125   4.315906   0.000000
    21  H    2.141163   4.292782   1.069379   2.478418   2.478493
    22  C    8.770639   7.296215   9.216058   9.053370   9.581158
    23  H    9.544517   8.190681   9.884140   9.528251  10.401443
    24  N   10.717060   8.980191  11.333414  11.371133  11.409004
    25  C   11.873086  10.115924  12.492840  12.505800  12.555037
                   21         22         23         24         25
    21  H    0.000000
    22  C   10.276915   0.000000
    23  H   10.930017   1.070000   0.000000
    24  N   12.402743   2.484260   2.691564   0.000000
    25  C   13.562133   3.542557   3.519027   1.160000   0.000000
 Stoichiometry    C15H9N
 Framework group  C1[X(C15H9N)]
 Deg. of freedom    69
 Full point group                 C1      NOp   1
 Largest Abelian subgroup         C1      NOp   1
 Largest concise Abelian subgroup C1      NOp   1
                         Standard orientation:                         
 ---------------------------------------------------------------------
 Center     Atomic      Atomic             Coordinates (Angstroms)
 Number     Number       Type             X           Y           Z
 ---------------------------------------------------------------------
      1          6           0        2.016745   -1.138540    0.280142
      2          6           0        1.346606    0.067279    0.022092
      3          6           0        2.068852    1.237364   -0.187622
      4          6           0        3.467161    1.197896   -0.220683
      5          6           0        4.138858   -0.009191   -0.003099
      6          1           0        1.448359   -2.053046    0.478595
      7          1           0        1.544258    2.179783   -0.359705
      8          1           0        4.034981    2.111519   -0.418047
      9          6           0       -0.194387    0.011110    0.017349
     10          6           0       -1.393530    0.003239    0.015026
     11          6           0       -2.934808   -0.006867    0.012039
     12          6           0       -3.623908   -1.195738   -0.244967
     13          6           0       -3.637755    1.181517    0.218963
     14          6           0       -5.021884   -1.202196   -0.249463
     15          1           0       -3.071587   -2.122540   -0.420195
     16          6           0       -5.036019    1.174787    0.214951
     17          1           0       -3.096517    2.113982    0.405992
     18          6           0       -5.725458   -0.017007   -0.021142
     19          1           0       -5.563455   -2.134257   -0.433695
     20          1           0       -5.588212    2.101546    0.393592
     21          1           0       -6.794810   -0.022266   -0.026495
     22          6           0        3.413251   -1.177395    0.249441
     23          1           0        3.926493   -2.100803    0.419150
     24          7           0        5.607898   -0.049339   -0.037894
     25          6           0        6.767140   -0.081017   -0.065348
 ---------------------------------------------------------------------
 Rotational constants (GHZ):      2.8293171      0.1571413      0.1494706
 Standard basis: 6-31+G(d) (6D, 7F)
 There are   322 symmetry adapted cartesian basis functions of A   symmetry.
 There are   322 symmetry adapted basis functions of A   symmetry.
   322 basis functions,   548 primitive gaussians,   322 cartesian basis functions
    53 alpha electrons       53 beta electrons
       nuclear repulsion energy       817.0886466022 Hartrees.
 NAtoms=   25 NActive=   25 NUniq=   25 SFac= 1.00D+00 NAtFMM=   60 NAOKFM=F Big=F
 Integral buffers will be    131072 words long.
 Raffenetti 2 integral format.
 Two-electron integral symmetry is turned on.
 Nuclear repulsion after empirical dispersion term =      817.0725276904 Hartrees.
 One-electron integrals computed using PRISM.
 NBasis=   322 RedAO= T EigKep=  1.26D-06  NBF=   322
 NBsUse=   319 1.00D-06 EigRej=  9.64D-07 NBFU=   319
 ExpMin= 4.38D-02 ExpMax= 4.17D+03 ExpMxC= 6.27D+02 IAcc=2 IRadAn=         4 AccDes= 0.00D+00
 Harris functional with IExCor=  402 and IRadAn=       4 diagonalized for initial guess.
 HarFok:  IExCor=  402 AccDes= 0.00D+00 IRadAn=         4 IDoV= 1 UseB2=F ITyADJ=14
 ICtDFT=  3500011 ScaDFX=  1.000000  1.000000  1.000000  1.000000
 FoFCou: FMM=F IPFlag=           0 FMFlag=      100000 FMFlg1=           0
         NFxFlg=           0 DoJE=T BraDBF=F KetDBF=T FulRan=T
         wScrn=  0.000000 ICntrl=     500 IOpCl=  0 I1Cent=   200000004 NGrid=           0
         NMat0=    1 NMatS0=      1 NMatT0=    0 NMatD0=    1 NMtDS0=    0 NMtDT0=    0
 Petite list used in FoFCou.
 Requested convergence on RMS density matrix=1.00D-08 within 128 cycles.
 Requested convergence on MAX density matrix=1.00D-06.
 Requested convergence on             energy=1.00D-06.
 No special actions if energy rises.
 SCF Done:  E(RB3LYP) =  -631.691172946     A.U. after   15 cycles
            NFock= 15  Conv=0.49D-08     -V/T= 2.0104

 **********************************************************************

            Population analysis using the SCF density.

 **********************************************************************

 Orbital symmetries:
       Occupied  (A) (A) (A) (A) (A) (A) (A) (A) (A) (A) (A) (A)
                 (A) (A) (A) (A) (A) (A) (A) (A) (A) (A) (A) (A)
                 (A) (A) (A) (A) (A) (A) (A) (A) (A) (A) (A) (A)
                 (A) (A) (A) (A) (A) (A) (A) (A) (A) (A) (A) (A)
                 (A) (A) (A) (A) (A)
       Virtual   (A) (A) (A) (A) (A) (A) (A) (A) (A) (A) (A) (A)
                 (A) (A) (A) (A) (A) (A) (A) (A) (A) (A) (A) (A)
                 (A) (A) (A) (A) (A) (A) (A) (A) (A) (A) (A) (A)
                 (A) (A) (A) (A) (A) (A) (A) (A) (A) (A) (A) (A)
                 (A) (A) (A) (A) (A) (A) (A) (A) (A) (A) (A) (A)
                 (A) (A) (A) (A) (A) (A) (A) (A) (A) (A) (A) (A)
                 (A) (A) (A) (A) (A) (A) (A) (A) (A) (A) (A) (A)
                 (A) (A) (A) (A) (A) (A) (A) (A) (A) (A) (A) (A)
                 (A) (A) (A) (A) (A) (A) (A) (A) (A) (A) (A) (A)
                 (A) (A) (A) (A) (A) (A) (A) (A) (A) (A) (A) (A)
                 (A) (A) (A) (A) (A) (A) (A) (A) (A) (A) (A) (A)
                 (A) (A) (A) (A) (A) (A) (A) (A) (A) (A) (A) (A)
                 (A) (A) (A) (A) (A) (A) (A) (A) (A) (A) (A) (A)
                 (A) (A) (A) (A) (A) (A) (A) (A) (A) (A) (A) (A)
                 (A) (A) (A) (A) (A) (A) (A) (A) (A) (A) (A) (A)
                 (A) (A) (A) (A) (A) (A) (A) (A) (A) (A) (A) (A)
                 (A) (A) (A) (A) (A) (A) (A) (A) (A) (A) (A) (A)
                 (A) (A) (A) (A) (A) (A) (A) (A) (A) (A) (A) (A)
                 (A) (A) (A) (A) (A) (A) (A) (A) (A) (A) (A) (A)
                 (A) (A) (A) (A) (A) (A) (A) (A) (A) (A) (A) (A)
                 (A) (A) (A) (A) (A) (A) (A) (A) (A) (A) (A) (A)
                 (A) (A) (A) (A) (A) (A) (A) (A) (A) (A) (A) (A)
                 (A) (A)
 The electronic state is 1-A.
 Alpha  occ. eigenvalues --  -14.38912 -10.28681 -10.25654 -10.24378 -10.23413
 Alpha  occ. eigenvalues --  -10.23204 -10.23093 -10.23080 -10.22979 -10.21561
 Alpha  occ. eigenvalues --  -10.21560 -10.21511 -10.21334 -10.21326 -10.21229
 Alpha  occ. eigenvalues --  -10.21055  -0.96953  -0.89416  -0.87830  -0.81023
 Alpha  occ. eigenvalues --   -0.78612  -0.78460  -0.76608  -0.74583  -0.67780
 Alpha  occ. eigenvalues --   -0.64803  -0.62828  -0.62511  -0.58952  -0.55794
 Alpha  occ. eigenvalues --   -0.53664  -0.50121  -0.49075  -0.47676  -0.47157
 Alpha  occ. eigenvalues --   -0.45774  -0.45226  -0.44103  -0.43171  -0.41470
 Alpha  occ. eigenvalues --   -0.39684  -0.39447  -0.38334  -0.37333  -0.36778
 Alpha  occ. eigenvalues --   -0.36365  -0.32703  -0.31477  -0.30035  -0.28841
 Alpha  occ. eigenvalues --   -0.28189  -0.27239  -0.24537
 Alpha virt. eigenvalues --   -0.07084  -0.04373  -0.03256  -0.02876  -0.00825
 Alpha virt. eigenvalues --    0.00142   0.00857   0.01642   0.02006   0.02225
 Alpha virt. eigenvalues --    0.02470   0.03703   0.03782   0.04062   0.04227
 Alpha virt. eigenvalues --    0.04402   0.05169   0.05629   0.06258   0.06686
 Alpha virt. eigenvalues --    0.07330   0.07500   0.07885   0.08086   0.08350
 Alpha virt. eigenvalues --    0.08720   0.09245   0.09593   0.10602   0.10953
 Alpha virt. eigenvalues --    0.11640   0.12206   0.12401   0.12933   0.13319
 Alpha virt. eigenvalues --    0.13431   0.13864   0.14091   0.14525   0.14718
 Alpha virt. eigenvalues --    0.14736   0.14824   0.15783   0.15989   0.16247
 Alpha virt. eigenvalues --    0.16863   0.17210   0.18217   0.18674   0.19315
 Alpha virt. eigenvalues --    0.19746   0.19897   0.20001   0.20659   0.20756
 Alpha virt. eigenvalues --    0.21046   0.21547   0.21678   0.22475   0.22798
 Alpha virt. eigenvalues --    0.23544   0.23825   0.24199   0.24767   0.24926
 Alpha virt. eigenvalues --    0.25514   0.25781   0.26201   0.26311   0.26690
 Alpha virt. eigenvalues --    0.26908   0.27183   0.28809   0.29205   0.29334
 Alpha virt. eigenvalues --    0.30739   0.31304   0.32338   0.32564   0.33060
 Alpha virt. eigenvalues --    0.33311   0.33712   0.34110   0.35092   0.35774
 Alpha virt. eigenvalues --    0.36526   0.38392   0.39732   0.40354   0.42603
 Alpha virt. eigenvalues --    0.43276   0.51470   0.54837   0.56099   0.58606
 Alpha virt. eigenvalues --    0.59106   0.62820   0.64743   0.65593   0.66039
 Alpha virt. eigenvalues --    0.67933   0.68317   0.68924   0.69919   0.69970
 Alpha virt. eigenvalues --    0.70704   0.71145   0.71781   0.71978   0.72744
 Alpha virt. eigenvalues --    0.73503   0.73836   0.74267   0.74659   0.74856
 Alpha virt. eigenvalues --    0.75530   0.76865   0.77445   0.77777   0.79000
 Alpha virt. eigenvalues --    0.79584   0.80735   0.82488   0.82704   0.84585
 Alpha virt. eigenvalues --    0.84611   0.86586   0.89029   0.90930   0.91224
 Alpha virt. eigenvalues --    0.92038   0.92473   0.92948   0.94315   0.94863
 Alpha virt. eigenvalues --    0.95314   0.95864   0.98203   0.98638   1.00350
 Alpha virt. eigenvalues --    1.00520   1.03448   1.06474   1.07461   1.09203
 Alpha virt. eigenvalues --    1.10032   1.12405   1.13107   1.13275   1.16098
 Alpha virt. eigenvalues --    1.16837   1.18075   1.19046   1.19998   1.21808
 Alpha virt. eigenvalues --    1.23285   1.24330   1.25426   1.25772   1.26969
 Alpha virt. eigenvalues --    1.27405   1.30124   1.32970   1.34490   1.35025
 Alpha virt. eigenvalues --    1.36137   1.40427   1.41924   1.42184   1.42441
 Alpha virt. eigenvalues --    1.43405   1.45083   1.45437   1.46505   1.46954
 Alpha virt. eigenvalues --    1.47224   1.48886   1.51171   1.54165   1.54295
 Alpha virt. eigenvalues --    1.55286   1.57668   1.60911   1.72337   1.74296
 Alpha virt. eigenvalues --    1.76652   1.79136   1.80887   1.82918   1.83949
 Alpha virt. eigenvalues --    1.85808   1.86010   1.89319   1.89544   1.92257
 Alpha virt. eigenvalues --    1.93202   1.94444   1.95270   1.96400   1.96795
 Alpha virt. eigenvalues --    1.96920   2.05237   2.06213   2.07035   2.07547
 Alpha virt. eigenvalues --    2.09719   2.10447   2.11792   2.13618   2.14373
 Alpha virt. eigenvalues --    2.15058   2.16040   2.16839   2.19011   2.21752
 Alpha virt. eigenvalues --    2.24339   2.27027   2.27618   2.28607   2.29068
 Alpha virt. eigenvalues --    2.31973   2.43612   2.45899   2.47358   2.49978
 Alpha virt. eigenvalues --    2.51788   2.55955   2.58593   2.60003   2.61125
 Alpha virt. eigenvalues --    2.62896   2.63962   2.65632   2.71685   2.72226
 Alpha virt. eigenvalues --    2.73461   2.74452   2.75099   2.75522   2.80518
 Alpha virt. eigenvalues --    2.81265   2.83161   2.93849   2.95958   3.08865
 Alpha virt. eigenvalues --    3.16837   3.23481   3.33133   3.43040   3.54059
 Alpha virt. eigenvalues --    4.15257   4.17642   4.20288   4.21529   4.23059
 Alpha virt. eigenvalues --    4.23494   4.29649   4.33518   4.37276   4.38253
 Alpha virt. eigenvalues --    4.39201   4.45260   4.55506   4.64703   4.75298
 Alpha virt. eigenvalues --    4.87415
          Condensed to atoms (all electrons):
               1          2          3          4          5          6
     1  C   23.722710  -3.272266 -13.634105   5.417090   0.318501   0.352385
     2  C   -3.272266  12.073090  -2.501612   1.109043  -1.004716  -0.033304
     3  C  -13.634105  -2.501612  24.253814  -7.390095   1.392587  -0.009821
     4  C    5.417090   1.109043  -7.390095  10.576418  -0.366920   0.001416
     5  C    0.318501  -1.004716   1.392587  -0.366920   6.161307  -0.022043
     6  H    0.352385  -0.033304  -0.009821   0.001416  -0.022043   0.503855
     7  H    0.032763   0.032698   0.273992  -0.045342  -0.028825  -0.000144
     8  H   -0.014459  -0.002903  -0.042723   0.215506   0.088967   0.000013
     9  C    2.342322  -2.594015  -0.647945   0.233070  -0.048008   0.043391
    10  C   -0.206311   1.154447  -0.744544   0.151639  -0.121035   0.002696
    11  C    0.568149  -0.762634  -0.509125   0.081498  -0.017845   0.004881
    12  C   -0.097159   0.572597   0.150993  -0.031951   0.008804   0.000011
    13  C    0.047906  -0.493854  -0.135456   0.036244  -0.009979   0.000554
    14  C    0.033687  -0.089169  -0.031822  -0.007602   0.000157  -0.000320
    15  H    0.000845   0.001536   0.000047  -0.000027   0.000028   0.000001
    16  C   -0.020168   0.125066   0.029466   0.010949   0.002496  -0.000044
    17  H   -0.000188   0.001157   0.001587  -0.000123   0.000030   0.000000
    18  C    0.000640  -0.018931   0.002430   0.000616  -0.000264   0.000040
    19  H    0.000022  -0.000066  -0.000008  -0.000001   0.000000   0.000000
    20  H   -0.000006  -0.000098   0.000008   0.000002   0.000000   0.000000
    21  H   -0.000002  -0.000004   0.000001   0.000000   0.000000   0.000000
    22  C   -8.704037   1.258847   6.168027  -4.265689   0.153171  -0.050273
    23  H   -0.046231  -0.003076  -0.015474   0.067713   0.074884  -0.004531
    24  N    0.012337   0.039573  -0.102729   0.016296  -0.170716  -0.000059
    25  C   -0.032122  -0.014185   0.009048  -0.043453  -0.306506   0.000172
               7          8          9         10         11         12
     1  C    0.032763  -0.014459   2.342322  -0.206311   0.568149  -0.097159
     2  C    0.032698  -0.002903  -2.594015   1.154447  -0.762634   0.572597
     3  C    0.273992  -0.042723  -0.647945  -0.744544  -0.509125   0.150993
     4  C   -0.045342   0.215506   0.233070   0.151639   0.081498  -0.031951
     5  C   -0.028825   0.088967  -0.048008  -0.121035  -0.017845   0.008804
     6  H   -0.000144   0.000013   0.043391   0.002696   0.004881   0.000011
     7  H    0.505847  -0.004293   0.026078   0.006983   0.001916  -0.000253
     8  H   -0.004293   0.501910  -0.002848   0.000240  -0.000055  -0.000009
     9  C    0.026078  -0.002848   7.870877  -0.967858   1.463747  -0.377632
    10  C    0.006983   0.000240  -0.967858   8.162913  -2.894365   2.333620
    11  C    0.001916  -0.000055   1.463747  -2.894365  11.865628  -5.120055
    12  C   -0.000253  -0.000009  -0.377632   2.333620  -5.120055  27.045527
    13  C    0.001692   0.000024  -0.571913   0.010843  -1.087823 -15.078977
    14  C    0.000006  -0.000001   0.007157  -0.658364   1.635705  -7.535798
    15  H    0.000000   0.000000   0.002511   0.028138  -0.019256   0.304172
    16  C   -0.000115   0.000001   0.093687  -0.013942   0.560245   4.436584
    17  H    0.000000   0.000000   0.004602   0.025209  -0.015132   0.018688
    18  C    0.000025   0.000000   0.017503  -0.211798   0.191590  -0.238005
    19  H    0.000000   0.000000  -0.000277  -0.005381   0.002891  -0.026086
    20  H    0.000000   0.000000  -0.000811  -0.005657  -0.000462  -0.002852
    21  H    0.000000   0.000000   0.000155   0.000356  -0.000357   0.013152
    22  C   -0.011163   0.064764  -0.809663  -0.017159  -0.105240   0.044982
    23  H    0.000014  -0.000146   0.000127   0.000580   0.000056   0.000025
    24  N   -0.000080  -0.009022   0.001880   0.004124   0.000348  -0.000002
    25  C    0.000167  -0.003961  -0.001399  -0.000627  -0.000001   0.000022
              13         14         15         16         17         18
     1  C    0.047906   0.033687   0.000845  -0.020168  -0.000188   0.000640
     2  C   -0.493854  -0.089169   0.001536   0.125066   0.001157  -0.018931
     3  C   -0.135456  -0.031822   0.000047   0.029466   0.001587   0.002430
     4  C    0.036244  -0.007602  -0.000027   0.010949  -0.000123   0.000616
     5  C   -0.009979   0.000157   0.000028   0.002496   0.000030  -0.000264
     6  H    0.000554  -0.000320   0.000001  -0.000044   0.000000   0.000040
     7  H    0.001692   0.000006   0.000000  -0.000115   0.000000   0.000025
     8  H    0.000024  -0.000001   0.000000   0.000001   0.000000   0.000000
     9  C   -0.571913   0.007157   0.002511   0.093687   0.004602   0.017503
    10  C    0.010843  -0.658364   0.028138  -0.013942   0.025209  -0.211798
    11  C   -1.087823   1.635705  -0.019256   0.560245  -0.015132   0.191590
    12  C  -15.078977  -7.535798   0.304172   4.436584   0.018688  -0.238005
    13  C   25.361417   4.854802   0.014731  -6.398541   0.295580  -0.451586
    14  C    4.854802   8.790652  -0.048842  -1.778616  -0.003589   0.527290
    15  H    0.014731  -0.048842   0.523454  -0.001336  -0.000141   0.002499
    16  C   -6.398541  -1.778616  -0.001336   8.162166  -0.046686   0.601208
    17  H    0.295580  -0.003589  -0.000141  -0.046686   0.523733   0.003795
    18  C   -0.451586   0.527290   0.002499   0.601208   0.003795   5.496265
    19  H    0.001196   0.292348  -0.004502   0.002992   0.000015   0.026643
    20  H   -0.013321   0.004914   0.000015   0.286729  -0.004509   0.025976
    21  H    0.006017  -0.007080  -0.000148  -0.004401  -0.000148   0.284261
    22  C   -0.024928   0.015737  -0.000303  -0.009015  -0.000006   0.000780
    23  H   -0.000010   0.000002   0.000000  -0.000001   0.000000   0.000000
    24  N    0.000010  -0.000004   0.000000  -0.000017   0.000000   0.000002
    25  C   -0.000031  -0.000001   0.000000   0.000001   0.000000   0.000000
              19         20         21         22         23         24
     1  C    0.000022  -0.000006  -0.000002  -8.704037  -0.046231   0.012337
     2  C   -0.000066  -0.000098  -0.000004   1.258847  -0.003076   0.039573
     3  C   -0.000008   0.000008   0.000001   6.168027  -0.015474  -0.102729
     4  C   -0.000001   0.000002   0.000000  -4.265689   0.067713   0.016296
     5  C    0.000000   0.000000   0.000000   0.153171   0.074884  -0.170716
     6  H    0.000000   0.000000   0.000000  -0.050273  -0.004531  -0.000059
     7  H    0.000000   0.000000   0.000000  -0.011163   0.000014  -0.000080
     8  H    0.000000   0.000000   0.000000   0.064764  -0.000146  -0.009022
     9  C   -0.000277  -0.000811   0.000155  -0.809663   0.000127   0.001880
    10  C   -0.005381  -0.005657   0.000356  -0.017159   0.000580   0.004124
    11  C    0.002891  -0.000462  -0.000357  -0.105240   0.000056   0.000348
    12  C   -0.026086  -0.002852   0.013152   0.044982   0.000025  -0.000002
    13  C    0.001196  -0.013321   0.006017  -0.024928  -0.000010   0.000010
    14  C    0.292348   0.004914  -0.007080   0.015737   0.000002  -0.000004
    15  H   -0.004502   0.000015  -0.000148  -0.000303   0.000000   0.000000
    16  C    0.002992   0.286729  -0.004401  -0.009015  -0.000001  -0.000017
    17  H    0.000015  -0.004509  -0.000148  -0.000006   0.000000   0.000000
    18  C    0.026643   0.025976   0.284261   0.000780   0.000000   0.000002
    19  H    0.528946  -0.000153  -0.004943   0.000001   0.000000   0.000000
    20  H   -0.000153   0.528789  -0.004935  -0.000001   0.000000   0.000000
    21  H   -0.004943  -0.004935   0.535903   0.000000   0.000000   0.000000
    22  C    0.000001  -0.000001   0.000000  11.836022   0.227510  -0.064582
    23  H    0.000000   0.000000   0.000000   0.227510   0.507970  -0.010041
    24  N    0.000000   0.000000   0.000000  -0.064582  -0.010041   6.500671
    25  C    0.000000   0.000000   0.000000   0.016705  -0.004435   0.965383
              25
     1  C   -0.032122
     2  C   -0.014185
     3  C    0.009048
     4  C   -0.043453
     5  C   -0.306506
     6  H    0.000172
     7  H    0.000167
     8  H   -0.003961
     9  C   -0.001399
    10  C   -0.000627
    11  C   -0.000001
    12  C    0.000022
    13  C   -0.000031
    14  C   -0.000001
    15  H    0.000000
    16  C    0.000001
    17  H    0.000000
    18  C    0.000000
    19  H    0.000000
    20  H    0.000000
    21  H    0.000000
    22  C    0.016705
    23  H   -0.004435
    24  N    0.965383
    25  C    5.452021
 Mulliken charges:
               1
     1  C   -0.822305
     2  C    0.422779
     3  C   -0.516541
     4  C    0.233702
     5  C   -0.104078
     6  H    0.211123
     7  H    0.208033
     8  H    0.208992
     9  C   -0.084738
    10  C   -0.034747
    11  C    0.155698
    12  C   -0.420399
    13  C   -0.364597
    14  C   -0.001250
    15  H    0.196579
    16  C   -0.038708
    17  H    0.196127
    18  C   -0.260980
    19  H    0.186363
    20  H    0.186372
    21  H    0.182172
    22  C    0.275512
    23  H    0.205061
    24  N   -0.183371
    25  C   -0.036797
 Sum of Mulliken charges =   0.00000
 Mulliken charges with hydrogens summed into heavy atoms:
               1
     1  C   -0.611183
     2  C    0.422779
     3  C   -0.308509
     4  C    0.442693
     5  C   -0.104078
     9  C   -0.084738
    10  C   -0.034747
    11  C    0.155698
    12  C   -0.223820
    13  C   -0.168470
    14  C    0.185113
    16  C    0.147664
    18  C   -0.078808
    22  C    0.480573
    24  N   -0.183371
    25  C   -0.036797
 Electronic spatial extent (au):  <R**2>=           6626.9918
 Charge=              0.0000 electrons
 Dipole moment (field-independent basis, Debye):
    X=             -5.1041    Y=              0.1178    Z=              0.0733  Tot=              5.1060
 Quadrupole moment (field-independent basis, Debye-Ang):
   XX=           -118.0398   YY=            -80.6555   ZZ=            -98.3165
   XY=              0.9245   XZ=              0.5371   YZ=             -0.2612
 Traceless Quadrupole moment (field-independent basis, Debye-Ang):
   XX=            -19.0359   YY=             18.3484   ZZ=              0.6874
   XY=              0.9245   XZ=              0.5371   YZ=             -0.2612
 Octapole moment (field-independent basis, Debye-Ang**2):
  XXX=           -455.5714  YYY=              0.6234  ZZZ=             -0.0018  XYY=             -3.3305
  XXY=              6.4249  XXZ=              3.4120  XZZ=              6.9015  YZZ=             -0.2089
  YYZ=              0.0309  XYZ=            -12.6966
 Hexadecapole moment (field-independent basis, Debye-Ang**3):
 XXXX=         -11079.9765 YYYY=           -544.5718 ZZZZ=           -142.1467 XXXY=             48.3867
 XXXZ=             35.0445 YYYX=              3.3848 YYYZ=             -1.6302 ZZZX=              0.0145
 ZZZY=             -0.5584 XXYY=          -1423.9401 XXZZ=          -1602.4017 YYZZ=           -131.5524
 XXYZ=             16.0628 YYXZ=              0.4837 ZZXY=              0.0190
 N-N= 8.170725276904D+02 E-N=-3.095200339595D+03  KE= 6.251664823044D+02
 Calling FoFJK, ICntrl=      2127 FMM=F ISym2X=0 I1Cent= 0 IOpClX= 0 NMat=1 NMatS=1 NMatT=0.
 ***** Axes restored to original set *****
 -------------------------------------------------------------------
 Center     Atomic                   Forces (Hartrees/Bohr)
 Number     Number              X              Y              Z
 -------------------------------------------------------------------
      1        6          -0.006137941    0.002362725    0.004359747
      2        6           0.064985920   -0.010206225    0.015310855
      3        6          -0.002795770    0.007561617   -0.007851937
      4        6          -0.004542358    0.001987999   -0.008201500
      5        6          -0.036793458    0.001702977   -0.000060247
      6        1          -0.003586055    0.002734204   -0.005429107
      7        1          -0.002744791   -0.001194050    0.003897186
      8        1           0.002340842   -0.002599559    0.004616379
      9        6          -0.089523881    0.002334364   -0.010549493
     10        6           0.088301493   -0.000650306    0.000486325
     11        6          -0.060832494    0.004411692    0.001575270
     12        6           0.001326421   -0.003003965    0.010029965
     13        6           0.001400067   -0.002714225   -0.012209251
     14        6          -0.000924880    0.000745189    0.003210533
     15        1           0.001645115    0.000244253   -0.004676261
     16        6          -0.000960793    0.000828701   -0.002714579
     17        1           0.001934042    0.000142409    0.005380594
     18        6          -0.008643345   -0.000358407   -0.000104441
     19        1          -0.002736589    0.000263212   -0.003806966
     20        1          -0.002773941    0.000236212    0.003738446
     21        1           0.012662158   -0.000127054    0.000031863
     22        6           0.004361356   -0.000024272   -0.003723402
     23        1          -0.006242948   -0.003765519    0.008436722
     24        7           0.090305586   -0.001783047   -0.003199689
     25        6          -0.040023756    0.000871076    0.001452988
 -------------------------------------------------------------------
 Cartesian Forces:  Max     0.090305586 RMS     0.022065237

 GradGradGradGradGradGradGradGradGradGradGradGradGradGradGradGradGradGrad
 Berny optimization.
 FormGI is forming the generalized inverse of G from B-inverse, IUseBI=4.
 GSVD:  received Info=                   1 from GESDD.
 Internal  Forces:  Max     0.059416386 RMS     0.010408325
 Search for a local minimum.
 Step number   1 out of a maximum of  130
 All quantities printed in internal units (Hartrees-Bohrs-Radians)
 Mixed Optimization -- RFO/linear search
 Second derivative matrix not updated -- first step.
 ITU=  0
     Eigenvalues ---    0.00230   0.00230   0.00230   0.01530   0.01651
     Eigenvalues ---    0.02077   0.02091   0.02104   0.02111   0.02111
     Eigenvalues ---    0.02116   0.02117   0.02118   0.02119   0.02122
     Eigenvalues ---    0.02124   0.02126   0.02128   0.02132   0.02148
     Eigenvalues ---    0.02166   0.03986   0.04701   0.04867   0.04867
     Eigenvalues ---    0.15990   0.15994   0.15995   0.15996   0.16000
     Eigenvalues ---    0.16000   0.16000   0.16000   0.16000   0.21985
     Eigenvalues ---    0.21994   0.22000   0.22976   0.23476   0.23987
     Eigenvalues ---    0.24980   0.24994   0.25000   0.28340   0.28403
     Eigenvalues ---    0.34254   0.34325   0.34394   0.34399   0.34413
     Eigenvalues ---    0.34464   0.34556   0.35740   0.37230   0.37309
     Eigenvalues ---    0.41551   0.41750   0.42025   0.42154   0.45390
     Eigenvalues ---    0.45833   0.45928   0.45974   0.45996   0.46091
     Eigenvalues ---    0.46204   0.46785   1.05241   1.27794
 RFO step:  Lambda=-3.36388135D-02 EMin= 2.30000000D-03
 Linear search not attempted -- first point.
 Maximum step size (   0.300) exceeded in Quadratic search.
    -- Step size scaled by   0.957
 Iteration  1 RMS(Cart)=  0.08748204 RMS(Int)=  0.00071282
 Iteration  2 RMS(Cart)=  0.00158203 RMS(Int)=  0.00004843
 Iteration  3 RMS(Cart)=  0.00000347 RMS(Int)=  0.00004842
 Iteration  4 RMS(Cart)=  0.00000000 RMS(Int)=  0.00004842
 Variable       Old X    -DE/DX   Delta X   Delta X   Delta X     New X
                                 (Linear)    (Quad)   (Total)
    R1        2.65214   0.00266   0.00000   0.00568   0.00564   2.65778
    R2        2.06903  -0.00705   0.00000  -0.01793  -0.01793   2.05110
    R3        2.64067  -0.00448   0.00000  -0.00874  -0.00874   2.63194
    R4        2.62850   0.00755   0.00000   0.01477   0.01473   2.64323
    R5        2.91400  -0.05942   0.00000  -0.17930  -0.17930   2.73470
    R6        2.64421  -0.00502   0.00000  -0.00971  -0.00972   2.63450
    R7        2.06401  -0.00488   0.00000  -0.01232  -0.01232   2.05169
    R8        2.64263  -0.00281   0.00000  -0.00587  -0.00583   2.63680
    R9        2.06671  -0.00572   0.00000  -0.01448  -0.01448   2.05222
   R10        2.64223  -0.00108   0.00000  -0.00258  -0.00254   2.63969
   R11        2.77790  -0.05032   0.00000  -0.12312  -0.12312   2.65478
   R12        2.26611   0.03040   0.00000   0.02678   0.02678   2.29289
   R13        2.91266  -0.05791   0.00000  -0.17440  -0.17440   2.73826
   R14        2.64178   0.00356   0.00000   0.00710   0.00710   2.64888
   R15        2.63832   0.00470   0.00000   0.00929   0.00928   2.64760
   R16        2.64183  -0.00168   0.00000  -0.00329  -0.00329   2.63854
   R17        2.06554  -0.00487   0.00000  -0.01232  -0.01232   2.05322
   R18        2.64238  -0.00170   0.00000  -0.00327  -0.00327   2.63910
   R19        2.06786  -0.00563   0.00000  -0.01429  -0.01429   2.05357
   R20        2.64009   0.00217   0.00000   0.00397   0.00397   2.64406
   R21        2.06662  -0.00466   0.00000  -0.01182  -0.01182   2.05480
   R22        2.63983   0.00213   0.00000   0.00392   0.00393   2.64376
   R23        2.06639  -0.00463   0.00000  -0.01172  -0.01172   2.05467
   R24        2.02083   0.01266   0.00000   0.02979   0.02979   2.05062
   R25        2.02201   0.01109   0.00000   0.02613   0.02613   2.04814
   R26        2.19208   0.04006   0.00000   0.02922   0.02922   2.22130
    A1        2.09796  -0.00049   0.00000  -0.00256  -0.00255   2.09540
    A2        2.09099   0.00079   0.00000   0.00442   0.00431   2.09530
    A3        2.09389  -0.00027   0.00000  -0.00148  -0.00148   2.09241
    A4        2.09733  -0.00053   0.00000   0.00048   0.00035   2.09769
    A5        2.03358   0.01013   0.00000   0.03311   0.03316   2.06674
    A6        2.15206  -0.00959   0.00000  -0.03344  -0.03339   2.11867
    A7        2.09293  -0.00037   0.00000   0.00052   0.00039   2.09332
    A8        2.09462   0.00068   0.00000   0.00238   0.00238   2.09701
    A9        2.09507  -0.00028   0.00000  -0.00236  -0.00236   2.09271
   A10        2.09517  -0.00371   0.00000  -0.01394  -0.01395   2.08122
   A11        2.09387   0.00260   0.00000   0.01068   0.01069   2.10456
   A12        2.09414   0.00110   0.00000   0.00326   0.00326   2.09741
   A13        2.09442   0.00832   0.00000   0.02714   0.02717   2.12160
   A14        2.09428  -0.00417   0.00000  -0.01359  -0.01361   2.08068
   A15        2.09448  -0.00416   0.00000  -0.01355  -0.01357   2.08091
   A16        2.09307  -0.00017   0.00000  -0.00086  -0.00088   2.09219
   A17        2.09164  -0.00042   0.00000  -0.00169  -0.00172   2.08993
   A18        2.09779   0.00062   0.00000   0.00306   0.00301   2.10080
   A19        2.09144  -0.00111   0.00000  -0.00375  -0.00378   2.08766
   A20        2.09611  -0.00039   0.00000  -0.00270  -0.00271   2.09339
   A21        2.09540   0.00151   0.00000   0.00667   0.00666   2.10206
   A22        2.09320  -0.00149   0.00000  -0.00499  -0.00502   2.08818
   A23        2.09628  -0.00029   0.00000  -0.00255  -0.00256   2.09372
   A24        2.09347   0.00179   0.00000   0.00774   0.00774   2.10121
   A25        2.09342   0.00135   0.00000   0.00466   0.00465   2.09807
   A26        2.09403  -0.00116   0.00000  -0.00473  -0.00473   2.08930
   A27        2.09573  -0.00019   0.00000   0.00007   0.00008   2.09581
   A28        2.09222   0.00150   0.00000   0.00543   0.00542   2.09765
   A29        2.09489  -0.00130   0.00000  -0.00541  -0.00541   2.08948
   A30        2.09607  -0.00020   0.00000  -0.00001  -0.00001   2.09606
   A31        2.09766  -0.00083   0.00000  -0.00385  -0.00386   2.09381
   A32        2.09278   0.00039   0.00000   0.00182   0.00182   2.09461
   A33        2.09274   0.00043   0.00000   0.00203   0.00203   2.09477
   A34        2.09366  -0.00442   0.00000  -0.01705  -0.01705   2.07662
   A35        2.09425   0.00329   0.00000   0.01386   0.01385   2.10810
   A36        2.09527   0.00113   0.00000   0.00320   0.00319   2.09846
   A37        3.17054  -0.00302   0.00000  -0.03613  -0.03617   3.13437
   A38        3.14159   0.00128   0.00000   0.03514   0.03512   3.17671
   A39        3.14159   0.00003   0.00000   0.00030   0.00030   3.14189
   A40        3.13228   0.00081   0.00000   0.01035   0.01020   3.14248
   A41        3.14159  -0.00004   0.00000   0.00119   0.00135   3.14294
   A42        3.14159  -0.00004   0.00000  -0.00045  -0.00045   3.14114
    D1        3.10566   0.00060   0.00000   0.01148   0.01150   3.11717
    D2       -0.01472   0.00038   0.00000   0.00406   0.00398  -0.01074
    D3       -0.06456   0.00150   0.00000   0.02710   0.02710  -0.03747
    D4        3.09824   0.00128   0.00000   0.01967   0.01957   3.11782
    D5        0.02934  -0.00066   0.00000  -0.01271  -0.01273   0.01661
    D6       -3.11226  -0.00075   0.00000  -0.01374  -0.01375  -3.12601
    D7       -3.14082   0.00023   0.00000   0.00285   0.00282  -3.13800
    D8        0.00077   0.00014   0.00000   0.00182   0.00180   0.00257
    D9        0.06660  -0.00159   0.00000  -0.02831  -0.02826   0.03834
   D10       -3.11087  -0.00062   0.00000  -0.01085  -0.01077  -3.12164
   D11       -3.09770  -0.00109   0.00000  -0.01948  -0.01966  -3.11736
   D12        0.00801  -0.00012   0.00000  -0.00202  -0.00216   0.00585
   D13       -0.42138   0.00103   0.00000   0.02024   0.02021  -0.40117
   D14        2.76189   0.00005   0.00000   0.00167   0.00184   2.76373
   D15        2.74721   0.00009   0.00000   0.00188   0.00171   2.74892
   D16       -0.35271  -0.00090   0.00000  -0.01669  -0.01666  -0.36936
   D17       -0.03360   0.00087   0.00000   0.01515   0.01510  -0.01849
   D18        3.10669   0.00089   0.00000   0.01572   0.01570   3.12238
   D19       -3.13930  -0.00013   0.00000  -0.00241  -0.00244   3.14144
   D20        0.00098  -0.00010   0.00000  -0.00184  -0.00185  -0.00087
   D21       -0.00147  -0.00006   0.00000  -0.00083  -0.00084  -0.00231
   D22       -3.14144  -0.00012   0.00000  -0.00235  -0.00235   3.13939
   D23        3.14144  -0.00009   0.00000  -0.00141  -0.00143   3.14000
   D24        0.00146  -0.00015   0.00000  -0.00293  -0.00295  -0.00149
   D25        0.00343   0.00001   0.00000  -0.00023  -0.00023   0.00321
   D26       -3.13816   0.00010   0.00000   0.00080   0.00079  -3.13737
   D27       -3.13978   0.00007   0.00000   0.00129   0.00129  -3.13849
   D28        0.00181   0.00016   0.00000   0.00232   0.00230   0.00412
   D29       -3.13968   0.00019   0.00000   0.00201   0.00194  -3.13774
   D30        0.02538  -0.00044   0.00000  -0.00890  -0.00893   0.01645
   D31       -0.03799   0.00089   0.00000   0.01658   0.01662  -0.02137
   D32        3.12707   0.00026   0.00000   0.00567   0.00575   3.13282
   D33        3.14019  -0.00019   0.00000  -0.00209  -0.00203   3.13816
   D34       -0.02477   0.00039   0.00000   0.00795   0.00798  -0.01679
   D35        0.03847  -0.00090   0.00000  -0.01667  -0.01670   0.02176
   D36       -3.12649  -0.00032   0.00000  -0.00663  -0.00670  -3.13319
   D37        0.02003  -0.00048   0.00000  -0.00882  -0.00883   0.01120
   D38       -3.12378  -0.00048   0.00000  -0.00859  -0.00860  -3.13238
   D39        3.13816   0.00012   0.00000   0.00195   0.00197   3.14013
   D40       -0.00565   0.00013   0.00000   0.00218   0.00220  -0.00345
   D41       -0.02094   0.00050   0.00000   0.00896   0.00896  -0.01198
   D42        3.12361   0.00045   0.00000   0.00816   0.00817   3.13178
   D43       -3.13921  -0.00006   0.00000  -0.00093  -0.00095  -3.14016
   D44        0.00535  -0.00010   0.00000  -0.00172  -0.00174   0.00361
   D45       -0.00265   0.00007   0.00000   0.00111   0.00111  -0.00154
   D46        3.13963   0.00007   0.00000   0.00117   0.00116   3.14079
   D47        3.14116   0.00006   0.00000   0.00089   0.00089  -3.14113
   D48        0.00025   0.00006   0.00000   0.00095   0.00095   0.00120
   D49        0.00308  -0.00007   0.00000  -0.00115  -0.00116   0.00193
   D50       -3.13920  -0.00006   0.00000  -0.00121  -0.00121  -3.14041
   D51       -3.14147  -0.00003   0.00000  -0.00036  -0.00037   3.14134
   D52       -0.00057  -0.00002   0.00000  -0.00042  -0.00042  -0.00099
         Item               Value     Threshold  Converged?
 Maximum Force            0.059416     0.000450     NO 
 RMS     Force            0.010408     0.000300     NO 
 Maximum Displacement     0.307833     0.001800     NO 
 RMS     Displacement     0.088323     0.001200     NO 
 Predicted change in Energy=-1.838907D-02
 GradGradGradGradGradGradGradGradGradGradGradGradGradGradGradGradGradGrad

                          Input orientation:                          
 ---------------------------------------------------------------------
 Center     Atomic      Atomic             Coordinates (Angstroms)
 Number     Number       Type             X           Y           Z
 ---------------------------------------------------------------------
      1          6           0       -1.814849   -1.113729    0.781828
      2          6           0       -1.158652   -0.642788   -0.369557
      3          6           0       -1.899851   -0.199115   -1.469667
      4          6           0       -3.292497   -0.180413   -1.408460
      5          6           0       -3.930053   -0.628448   -0.250987
      6          1           0       -1.237741   -1.478716    1.625518
      7          1           0       -1.392719    0.146914   -2.365126
      8          1           0       -3.877756    0.178699   -2.249817
      9          6           0        0.288363   -0.647455   -0.387969
     10          6           0        1.501669   -0.653947   -0.394984
     11          6           0        2.950039   -0.663496   -0.352496
     12          6           0        3.612366   -0.652931    0.882840
     13          6           0        3.680589   -0.652763   -1.547958
     14          6           0        5.008188   -0.657533    0.917417
     15          1           0        3.038880   -0.653101    1.805677
     16          6           0        5.076457   -0.657832   -1.504520
     17          1           0        3.160258   -0.653143   -2.501988
     18          6           0        5.741950   -0.659059   -0.273923
     19          1           0        5.523511   -0.658051    1.874903
     20          1           0        5.644575   -0.658778   -2.431577
     21          1           0        6.826655   -0.661888   -0.243295
     22          6           0       -3.205977   -1.098032    0.847390
     23          1           0       -3.723468   -1.444664    1.734370
     24          7           0       -5.333367   -0.606810   -0.189008
     25          6           0       -6.507548   -0.589245   -0.136985
 ---------------------------------------------------------------------
                    Distance matrix (angstroms):
                    1          2          3          4          5
     1  C    0.000000
     2  C    1.406437   0.000000
     3  C    2.431660   1.398736   0.000000
     4  C    2.802122   2.417934   1.394116   0.000000
     5  C    2.403392   2.773973   2.406497   1.395334   0.000000
     6  H    1.085395   2.164568   3.414079   3.887498   3.390099
     7  H    3.416245   2.158868   1.085710   2.152094   3.392467
     8  H    3.888037   3.406428   2.159511   1.085988   2.156280
     9  C    2.451395   1.447140   2.481806   3.752611   4.220682
    10  C    3.549024   2.660465   3.596130   4.922945   5.433690
    11  C    4.918695   4.108779   4.998515   6.349621   6.880930
    12  C    5.447678   4.932668   6.010388   7.290436   7.627204
    13  C    5.986671   4.980661   5.599396   6.990458   7.720401
    14  C    6.839614   6.299716   7.323203   8.633580   9.014330
    15  H    4.981880   4.727687   5.943488   7.116210   7.266120
    16  C    7.274979   6.337582   6.991460   8.383111   9.093373
    17  H    5.978902   4.816674   5.184258   6.561808   7.439094
    18  C    7.643725   6.901283   7.748449   9.117977   9.672078
    19  H    7.433303   7.049052   8.154942   9.419693   9.689693
    20  H    8.134860   7.108873   7.619378   9.008155   9.819847
    21  H    8.713818   7.986327   8.824400  10.197385  10.756762
    22  C    1.392761   2.424818   2.807626   2.436877   1.396863
    23  H    2.158630   3.412887   3.891378   3.414887   2.156508
    24  N    3.685032   4.178772   3.687185   2.415373   1.404849
    25  C    4.810481   5.354217   4.812391   3.481428   2.580313
                    6          7          8          9         10
     6  H    0.000000
     7  H    4.311836   0.000000
     8  H    4.973422   2.487915   0.000000
     9  C    2.659722   2.714076   4.637409   0.000000
    10  C    3.502433   3.591700   5.750819   1.213343   0.000000
    11  C    4.702620   4.854584   7.136379   2.661961   1.449025
    12  C    4.975644   6.019959   8.161316   3.558648   2.467363
    13  C    5.911271   5.200547   7.636263   3.585080   2.465166
    14  C    6.339351   7.238358   9.470515   4.897027   3.744073
    15  H    4.359310   6.137971   8.060942   3.518161   2.684387
    16  C    7.095075   6.575598   9.024034   4.916567   3.743020
    17  H    6.087715   4.624761   7.091487   3.566074   2.681489
    18  C    7.279821   7.478383   9.856203   5.454791   4.242012
    19  H    6.815440   8.152304  10.300355   5.703287   4.618184
    20  H    8.031102   7.083576   9.560816   5.732841   4.616428
    21  H    8.318302   8.527275  10.923238   6.539908   5.327152
    22  C    2.150432   3.893334   3.416726   3.733570   4.889032
    23  H    2.488343   4.977086   4.304981   4.608108   5.697494
    24  N    4.563647   4.564241   2.642491   5.625397   6.838301
    25  C    5.627472   5.627434   3.459711   6.800793   8.013632
                   11         12         13         14         15
    11  C    0.000000
    12  C    1.401729   0.000000
    13  C    1.401052   2.431755   0.000000
    14  C    2.418406   1.396257   2.800110   0.000000
    15  H    2.160027   1.086515   3.414478   2.160370   0.000000
    16  C    2.418438   2.800549   1.396553   2.422899   3.887049
    17  H    2.159772   3.414889   1.086701   3.886797   4.309375
    18  C    2.793019   2.423482   2.423306   1.399179   3.410478
    19  H    3.403542   2.153298   3.887463   1.087354   2.485600
    20  H    3.403398   3.887836   2.153615   3.408922   4.974334
    21  H    3.878153   3.405864   3.405871   2.157335   4.306460
    22  C    6.286898   6.832947   7.304844   8.226265   6.333602
    23  H    7.035691   7.427409   8.137619   8.805044   6.808892
    24  N    8.285214   9.009835   9.115934  10.400697   8.606709
    25  C    9.460334  10.171369  10.285573  11.564108   9.742294
                   16         17         18         19         20
    16  C    0.000000
    17  H    2.160274   0.000000
    18  C    1.399017   3.410197   0.000000
    19  H    3.408865   4.974150   2.159901   0.000000
    20  H    1.087287   2.485321   2.159849   4.308181   0.000000
    21  H    2.157289   4.306302   1.085141   2.486958   2.487147
    22  C    8.621135   7.207302   9.028589   8.800757   9.448642
    23  H    9.410005   8.121510   9.707964   9.281441  10.282654
    24  N   10.492741   8.803050  11.075765  11.051433  11.204777
    25  C   11.664648   9.953079  12.250462  12.198312  12.367056
                   21         22         23         24         25
    21  H    0.000000
    22  C   10.101164   0.000000
    23  H   10.762388   1.083829   0.000000
    24  N   12.160267   2.416859   2.644458   0.000000
    25  C   13.334824   3.482561   3.461908   1.175464   0.000000
 Stoichiometry    C15H9N
 Framework group  C1[X(C15H9N)]
 Deg. of freedom    69
 Full point group                 C1      NOp   1
 Largest Abelian subgroup         C1      NOp   1
 Largest concise Abelian subgroup C1      NOp   1
                         Standard orientation:                         
 ---------------------------------------------------------------------
 Center     Atomic      Atomic             Coordinates (Angstroms)
 Number     Number       Type             X           Y           Z
 ---------------------------------------------------------------------
      1          6           0        1.943676   -1.140063    0.264643
      2          6           0        1.280030    0.075298    0.018602
      3          6           0        2.014025    1.245296   -0.202349
      4          6           0        3.407197    1.198937   -0.224306
      5          6           0        4.052352   -0.018159   -0.002021
      6          1           0        1.371987   -2.042141    0.458315
      7          1           0        1.501012    2.186668   -0.373823
      8          1           0        3.987031    2.097660   -0.412610
      9          6           0       -0.167095    0.081941    0.018289
     10          6           0       -1.380433    0.078750    0.018948
     11          6           0       -2.828431    0.024674    0.011781
     12          6           0       -3.480480   -1.190657   -0.238510
     13          6           0       -3.568776    1.194794    0.225449
     14          6           0       -4.875976   -1.235640   -0.248714
     15          1           0       -2.899398   -2.092312   -0.411360
     16          6           0       -4.964247    1.141024    0.214010
     17          1           0       -3.056349    2.134926    0.411161
     18          6           0       -5.619552   -0.071932   -0.023820
     19          1           0       -5.383371   -2.179300   -0.434175
     20          1           0       -5.540001    2.046646    0.388793
     21          1           0       -6.703969   -0.110435   -0.033202
     22          6           0        3.335353   -1.191284    0.244794
     23          1           0        3.858652   -2.124373    0.418541
     24          7           0        5.456210   -0.064638   -0.026945
     25          6           0        6.630846   -0.103792   -0.047301
 ---------------------------------------------------------------------
 Rotational constants (GHZ):      2.8112690      0.1646293      0.1561641
 Standard basis: 6-31+G(d) (6D, 7F)
 There are   322 symmetry adapted cartesian basis functions of A   symmetry.
 There are   322 symmetry adapted basis functions of A   symmetry.
   322 basis functions,   548 primitive gaussians,   322 cartesian basis functions
    53 alpha electrons       53 beta electrons
       nuclear repulsion energy       827.6060779183 Hartrees.
 NAtoms=   25 NActive=   25 NUniq=   25 SFac= 1.00D+00 NAtFMM=   60 NAOKFM=F Big=F
 Integral buffers will be    131072 words long.
 Raffenetti 2 integral format.
 Two-electron integral symmetry is turned on.
 Nuclear repulsion after empirical dispersion term =      827.5896474830 Hartrees.
 One-electron integrals computed using PRISM.
 NBasis=   322 RedAO= T EigKep=  1.06D-06  NBF=   322
 NBsUse=   319 1.00D-06 EigRej=  5.16D-07 NBFU=   319
 Initial guess from the checkpoint file:  "D:\machine learning\molecule_12.chk"
 B after Tr=     0.000000    0.000000    0.000000
         Rot=    1.000000    0.000143    0.000246   -0.000716 Ang=   0.09 deg.
 ExpMin= 4.38D-02 ExpMax= 4.17D+03 ExpMxC= 6.27D+02 IAcc=2 IRadAn=         4 AccDes= 0.00D+00
 Harris functional with IExCor=  402 and IRadAn=       4 diagonalized for initial guess.
 HarFok:  IExCor=  402 AccDes= 0.00D+00 IRadAn=         4 IDoV= 1 UseB2=F ITyADJ=14
 ICtDFT=  3500011 ScaDFX=  1.000000  1.000000  1.000000  1.000000
 FoFCou: FMM=F IPFlag=           0 FMFlag=      100000 FMFlg1=           0
         NFxFlg=           0 DoJE=T BraDBF=F KetDBF=T FulRan=T
         wScrn=  0.000000 ICntrl=     500 IOpCl=  0 I1Cent=   200000004 NGrid=           0
         NMat0=    1 NMatS0=      1 NMatT0=    0 NMatD0=    1 NMtDS0=    0 NMtDT0=    0
 Petite list used in FoFCou.
 Requested convergence on RMS density matrix=1.00D-08 within 128 cycles.
 Requested convergence on MAX density matrix=1.00D-06.
 Requested convergence on             energy=1.00D-06.
 No special actions if energy rises.
 SCF Done:  E(RB3LYP) =  -631.711596861     A.U. after   14 cycles
            NFock= 14  Conv=0.32D-08     -V/T= 2.0099
 Calling FoFJK, ICntrl=      2127 FMM=F ISym2X=0 I1Cent= 0 IOpClX= 0 NMat=1 NMatS=1 NMatT=0.
 ***** Axes restored to original set *****
 -------------------------------------------------------------------
 Center     Atomic                   Forces (Hartrees/Bohr)
 Number     Number              X              Y              Z
 -------------------------------------------------------------------
      1        6          -0.007630146    0.001603404    0.001888822
      2        6           0.025586459   -0.005074339    0.004940837
      3        6          -0.006921969    0.003597620   -0.003367736
      4        6           0.004802455    0.000800560   -0.004389244
      5        6          -0.020013546    0.000519966    0.001163037
      6        1           0.000620952    0.000542482   -0.000583787
      7        1           0.000481078   -0.000042189    0.000724185
      8        1          -0.000489512   -0.000689797    0.000968453
      9        6          -0.019105543    0.000653545   -0.003050608
     10        6           0.018769104   -0.000616891    0.002352138
     11        6          -0.024607200    0.002929736   -0.001777106
     12        6           0.006421423   -0.001914304    0.003590460
     13        6           0.007377617   -0.001428715   -0.003550757
     14        6          -0.000945610    0.000425065    0.000566902
     15        1          -0.000259441    0.000163097   -0.000824888
     16        6          -0.000947598    0.000463598   -0.000569550
     17        1          -0.000271038    0.000089457    0.000935612
     18        6          -0.000703692   -0.000242307   -0.000068541
     19        1          -0.000118860    0.000133085   -0.000301868
     20        1          -0.000096831    0.000102724    0.000269821
     21        1           0.001166710   -0.000045825    0.000035604
     22        6           0.005955311   -0.001521122    0.001446012
     23        1          -0.001254574   -0.000273737    0.000119238
     24        7           0.018519222   -0.000264295   -0.000813037
     25        6          -0.006334770    0.000089182    0.000296003
 -------------------------------------------------------------------
 Cartesian Forces:  Max     0.025586459 RMS     0.006531132

 GradGradGradGradGradGradGradGradGradGradGradGradGradGradGradGradGradGrad
 Berny optimization.
 Using GEDIIS/GDIIS optimizer.
 FormGI is forming the generalized inverse of G from B-inverse, IUseBI=4.
 GSVD:  received Info=                   1 from GESDD.
 Internal  Forces:  Max     0.013291644 RMS     0.002688546
 Search for a local minimum.
 Step number   2 out of a maximum of  130
 All quantities printed in internal units (Hartrees-Bohrs-Radians)
 Mixed Optimization -- RFO/linear search
 Update second derivatives using D2CorX and points    1    2
 DE= -2.04D-02 DEPred=-1.84D-02 R= 1.11D+00
 TightC=F SS=  1.41D+00  RLast= 3.09D-01 DXNew= 5.0454D-01 9.2556D-01
 Trust test= 1.11D+00 RLast= 3.09D-01 DXMaxT set to 5.05D-01
 ITU=  1  0
 Use linear search instead of GDIIS.
     Eigenvalues ---    0.00230   0.00230   0.00232   0.01517   0.01653
     Eigenvalues ---    0.02077   0.02091   0.02104   0.02111   0.02112
     Eigenvalues ---    0.02116   0.02117   0.02118   0.02119   0.02122
     Eigenvalues ---    0.02124   0.02126   0.02128   0.02132   0.02148
     Eigenvalues ---    0.02165   0.03945   0.04730   0.04867   0.04867
     Eigenvalues ---    0.15921   0.15998   0.15999   0.15999   0.16000
     Eigenvalues ---    0.16000   0.16000   0.16000   0.16006   0.21881
     Eigenvalues ---    0.21998   0.22007   0.22044   0.23076   0.23673
     Eigenvalues ---    0.24929   0.25000   0.25008   0.28041   0.28373
     Eigenvalues ---    0.34279   0.34332   0.34392   0.34405   0.34440
     Eigenvalues ---    0.34480   0.34580   0.34755   0.37259   0.37414
     Eigenvalues ---    0.41577   0.41767   0.42089   0.42325   0.45612
     Eigenvalues ---    0.45808   0.45916   0.45943   0.46027   0.46096
     Eigenvalues ---    0.46241   0.47149   1.04812   1.27327
 RFO step:  Lambda=-3.59511139D-03 EMin= 2.29975631D-03
 Quartic linear search produced a step of  0.21975.
 Maximum step size (   0.505) exceeded in Quadratic search.
    -- Step size scaled by   0.830
 Iteration  1 RMS(Cart)=  0.20220014 RMS(Int)=  0.02910046
 Iteration  2 RMS(Cart)=  0.19527748 RMS(Int)=  0.01157043
 Iteration  3 RMS(Cart)=  0.10524260 RMS(Int)=  0.00181015
 Iteration  4 RMS(Cart)=  0.00456848 RMS(Int)=  0.00075984
 Iteration  5 RMS(Cart)=  0.00000120 RMS(Int)=  0.00075984
 Iteration  6 RMS(Cart)=  0.00000001 RMS(Int)=  0.00075984
 Variable       Old X    -DE/DX   Delta X   Delta X   Delta X     New X
                                 (Linear)    (Quad)   (Total)
    R1        2.65778   0.00362   0.00124   0.00743   0.00868   2.66646
    R2        2.05110  -0.00031  -0.00394   0.00153  -0.00241   2.04869
    R3        2.63194  -0.00055  -0.00192  -0.00026  -0.00218   2.62976
    R4        2.64323   0.00704   0.00324   0.01340   0.01665   2.65988
    R5        2.73470  -0.01329  -0.03940  -0.02064  -0.06008   2.67462
    R6        2.63450  -0.00070  -0.00213  -0.00023  -0.00237   2.63213
    R7        2.05169  -0.00039  -0.00271   0.00054  -0.00216   2.04953
    R8        2.63680   0.00374  -0.00128   0.00885   0.00755   2.64435
    R9        2.05222  -0.00071  -0.00318  -0.00012  -0.00331   2.04891
   R10        2.63969   0.00374  -0.00056   0.00832   0.00775   2.64744
   R11        2.65478  -0.01220  -0.02705  -0.01782  -0.04487   2.60991
   R12        2.29289   0.00578   0.00588   0.00288   0.00874   2.30162
   R13        2.73826  -0.01303  -0.03832  -0.02037  -0.05862   2.67964
   R14        2.64888   0.00520   0.00156   0.01092   0.01248   2.66137
   R15        2.64760   0.00578   0.00204   0.01186   0.01390   2.66150
   R16        2.63854  -0.00080  -0.00072  -0.00136  -0.00208   2.63646
   R17        2.05322  -0.00056  -0.00271   0.00003  -0.00268   2.05053
   R18        2.63910  -0.00085  -0.00072  -0.00146  -0.00217   2.63693
   R19        2.05357  -0.00069  -0.00314  -0.00009  -0.00323   2.05034
   R20        2.64406   0.00013   0.00087  -0.00063   0.00024   2.64431
   R21        2.05480  -0.00032  -0.00260   0.00066  -0.00194   2.05286
   R22        2.64376   0.00007   0.00086  -0.00076   0.00010   2.64386
   R23        2.05467  -0.00028  -0.00257   0.00077  -0.00181   2.05287
   R24        2.05062   0.00117   0.00655  -0.00077   0.00578   2.05640
   R25        2.04814   0.00078   0.00574  -0.00132   0.00443   2.05257
   R26        2.22130   0.00634   0.00642   0.00220   0.00862   2.22993
    A1        2.09540  -0.00198  -0.00056  -0.00972  -0.01030   2.08510
    A2        2.09530   0.00208   0.00095   0.00803   0.00896   2.10426
    A3        2.09241  -0.00009  -0.00033   0.00175   0.00141   2.09381
    A4        2.09769  -0.00427   0.00008  -0.01710  -0.01718   2.08050
    A5        2.06674   0.00608   0.00729   0.01923   0.02656   2.09330
    A6        2.11867  -0.00181  -0.00734  -0.00196  -0.00929   2.10938
    A7        2.09332   0.00218   0.00009   0.00991   0.00996   2.10328
    A8        2.09701  -0.00185   0.00052  -0.01010  -0.00960   2.08741
    A9        2.09271  -0.00032  -0.00052   0.00029  -0.00024   2.09246
   A10        2.08122   0.00081  -0.00306   0.00552   0.00242   2.08365
   A11        2.10456   0.00065   0.00235   0.00305   0.00541   2.10997
   A12        2.09741  -0.00146   0.00072  -0.00857  -0.00784   2.08957
   A13        2.12160  -0.00235   0.00597  -0.01455  -0.00862   2.11298
   A14        2.08068   0.00121  -0.00299   0.00743   0.00446   2.08513
   A15        2.08091   0.00114  -0.00298   0.00713   0.00417   2.08508
   A16        2.09219   0.00147  -0.00019   0.00548   0.00513   2.09731
   A17        2.08993   0.00283  -0.00038   0.01106   0.01066   2.10059
   A18        2.10080  -0.00429   0.00066  -0.01620  -0.01552   2.08528
   A19        2.08766   0.00151  -0.00083   0.00802   0.00715   2.09482
   A20        2.09339  -0.00143  -0.00060  -0.00723  -0.00782   2.08557
   A21        2.10206  -0.00008   0.00146  -0.00073   0.00073   2.10279
   A22        2.08818   0.00149  -0.00110   0.00822   0.00708   2.09526
   A23        2.09372  -0.00145  -0.00056  -0.00744  -0.00799   2.08573
   A24        2.10121  -0.00004   0.00170  -0.00073   0.00097   2.10217
   A25        2.09807   0.00058   0.00102   0.00055   0.00155   2.09962
   A26        2.08930  -0.00025  -0.00104   0.00044  -0.00059   2.08871
   A27        2.09581  -0.00033   0.00002  -0.00098  -0.00096   2.09486
   A28        2.09765   0.00051   0.00119   0.00021   0.00138   2.09903
   A29        2.08948  -0.00020  -0.00119   0.00079  -0.00039   2.08909
   A30        2.09606  -0.00032   0.00000  -0.00100  -0.00099   2.09506
   A31        2.09381   0.00021  -0.00085  -0.00059  -0.00146   2.09234
   A32        2.09461  -0.00011   0.00040   0.00030   0.00071   2.09532
[...]
 0698,-0.00004932,0.00021982,-0.00340858,-0.00075148,0.00297200,0.00246
 322,0.00415496,-0.00078765,0.00570923,0.00165115,0.02394203,-0.0451876
 9,0.04452411,-0.00014591,-0.00063317,-0.00017546,0.00015836,0.00038275
 ,0.00027072,-0.00040613,0.00361037,-0.00009000,-0.02573733,0.03470763,
 -0.00002636,0.00000660,-0.00005870,-0.00001160,0.00003732,-0.00001039,
 0.00002340,0.00000804,-0.00002629,-0.00000900,-0.00001005,0.00000401,0
 .00003430,0.00000283,-0.00000219,0.00000206,0.00000051,0.00000170,0.00
 003482,0.00000207,0.00003650,-0.00000477,0.00000135,-0.00000002,0.0008
 4661,-0.00005318,0.00025114,-0.00121511,-0.00074305,0.00025744,-0.0152
 9993,0.00427532,-0.01820247,0.00416628,0.00164638,-0.00244817,-0.12016
 124,0.04451746,-0.26093949,0.00074191,-0.00017549,0.00021175,-0.000810
 56,0.00027706,-0.00095988,0.00235268,-0.00021004,0.00461504,0.12897328
 ,-0.04950775,0.27474286,0.00002346,0.00004365,-0.00022257,-0.00023248,
 0.00000136,0.00000135,0.00002553,-0.00004361,0.00022237,-0.00008059,-0
 .00002699,0.00013842,0.00009811,-0.00000028,-0.00000060,0.00001243,0.0
 0000010,-0.00000065,0.00001244,-0.00000013,0.00000055,-0.00002362,0.00
 000224,-0.00001096,0.00204427,-0.00000635,-0.00000640,-0.00371719,0.00
 000559,0.00001044,0.00325324,0.00001677,-0.00026284,-0.02720309,-0.005
 58610,0.02916517,-0.02801062,0.00575818,-0.02866038,-0.17979873,-0.022
 66667,0.11792735,-0.00553234,0.00016605,-0.00058917,-0.18114960,0.0237
 1312,-0.11852209,-0.00551440,-0.00007935,0.00066167,0.74159332,0.00000
 977,0.00001931,0.00000387,0.00000142,0.00018649,0.00003174,-0.00000975
 ,0.00001964,0.00000263,0.00000846,-0.00002670,-0.00001006,-0.00000027,
 -0.00000563,0.00000907,0.00000004,0.00000627,0.00000139,-0.00000006,0.
 00000627,0.00000138,0.00000022,-0.00000103,-0.00000025,-0.00000651,0.0
 0008970,-0.00012634,0.00000581,-0.00169101,-0.00007028,0.00001665,-0.0
 0782689,0.01115422,-0.01445907,0.00796440,-0.00485129,0.01463174,0.007
 84112,-0.00480613,-0.01013471,-0.07008720,0.04139048,0.00036939,0.0070
 9815,0.00108646,0.01118158,-0.07029228,0.04201111,-0.00028261,0.007100
 92,0.00108555,-0.00224516,0.15221534,-0.00004986,0.00000319,0.00000481
 ,0.00000129,0.00003174,0.00003093,0.00004969,0.00000328,0.00000236,-0.
 00004219,-0.00000934,0.00001983,-0.00000064,0.00000907,-0.00005007,-0.
 00000029,0.00000139,-0.00000052,0.00000018,0.00000138,-0.00000053,-0.0
 0000066,-0.00000029,0.00000043,-0.00000641,-0.00012640,0.00070940,0.00
 001048,-0.00007025,-0.00134694,-0.00026289,0.01115416,-0.06250598,0.07
 440724,-0.00502901,0.03110575,-0.07390237,-0.00462838,0.03203637,0.054
 03150,0.04164192,-0.27540213,-0.00162570,0.00109048,0.00178503,-0.0546
 2605,0.04175950,-0.27384275,0.00169824,0.00108156,0.00176440,-0.000760
 33,-0.09967262,0.64087395,-0.00011296,0.00000678,-0.00003222,0.0001910
 7,-0.00001910,0.00009325,-0.00006995,-0.00000168,0.00000967,0.00000708
 ,0.00000076,-0.00000411,0.00000400,0.00000059,-0.00000306,0.00000942,0
 .00000156,-0.00000805,0.00001317,-0.00000231,0.00001160,-0.00000983,0.
 00000051,-0.00000235,-0.00044576,-0.00000446,0.00002808,-0.00033602,0.
 00026325,-0.00132583,-0.00503722,-0.00025121,0.00152714,-0.01130045,0.
 00568423,-0.02869268,-0.00072906,-0.00016247,0.00083002,-0.13009619,0.
 02366219,-0.11877421,0.00062219,-0.00008893,0.00035772,-0.00116433,-0.
 00057171,0.00307639,0.00010351,0.00001374,-0.00009486,0.01230578,-0.00
 295046,0.01486146,0.13486536,0.00000691,0.00000343,0.00000083,-0.00001
 920,-0.00001378,-0.00000052,0.00000720,-0.00001307,-0.00000177,-0.0000
 0166,-0.00000497,-0.00000272,-0.00000028,0.00000143,0.00000027,-0.0000
 0111,0.00000396,0.00000135,-0.00000110,0.00000388,-0.00000001,0.000000
 78,0.00000200,0.00000087,0.00000235,-0.00017225,-0.00002721,-0.0000057
 3,0.00046155,0.00007671,-0.00014334,0.00705837,0.00102450,-0.00033018,
 0.00314424,-0.00007769,-0.00016344,-0.00061511,-0.00016500,0.02367349,
 -0.04551187,0.04439157,0.00004637,-0.00397082,-0.00094590,-0.00077971,
 0.00653136,0.00185807,0.00001513,-0.00109229,-0.00021391,0.00308260,0.
 00241206,0.00407871,-0.02545831,0.03532227,-0.00003287,0.00000084,0.,0
 .00009373,-0.00000051,-0.00001323,-0.00003558,-0.00000160,-0.00000453,
 0.00000822,-0.00000277,0.00000846,0.00000137,0.00000025,0.00000015,0.0
 0000557,0.00000130,-0.00000251,0.00000541,0.,0.00000371,-0.00000373,0.
 00000088,-0.00000224,-0.00000650,-0.00002708,-0.00003942,0.00004555,0.
 00007129,0.00011220,0.00097754,0.00102677,0.00200410,0.00197322,-0.000
 19837,0.00409948,0.00083458,-0.00016500,0.00017641,-0.11883247,0.04439
 207,-0.26067014,-0.00033227,-0.00094320,0.00065948,0.00413661,0.001853
 91,-0.00264244,-0.00010195,-0.00021390,-0.00004159,-0.01589851,0.00419
 941,-0.01786881,0.12761246,-0.04936355,0.27467043,-0.00006973,0.000002
 01,-0.00000909,0.00018960,0.00001786,-0.00009509,-0.00011246,-0.000006
 07,0.00003323,0.00000429,0.00000390,-0.00001981,0.00000401,-0.00000060
 ,0.00000303,0.00001304,0.00000226,-0.00001168,0.00000944,-0.00000158,0
 .00000796,-0.00001575,0.00000041,-0.00000174,-0.00044591,0.00000585,-0
 .00002456,-0.00032595,-0.00025774,0.00133022,-0.00505627,0.00033417,-0
 .00145713,-0.00074205,0.00016173,-0.00082270,-0.01109011,-0.00559797,0
 .02882874,-0.00122085,0.00063554,-0.00307785,0.00010503,-0.00002297,0.
 00009224,-0.12824256,-0.02275212,0.11784665,0.00062195,0.00005244,-0.0
 0036314,0.01231195,0.00292745,-0.01510876,0.00046934,0.00016258,-0.000
 83432,0.13287419,-0.00000687,-0.00001303,-0.00000165,0.00001796,-0.000
 01400,-0.00000010,-0.00000619,0.00000350,0.00000069,0.00000155,0.00000
 792,0.00000310,0.00000026,0.00000143,0.00000025,0.00000104,0.00000386,
 0.00000005,0.00000109,0.00000397,0.00000129,-0.00000087,0.00000138,-0.
 00000019,-0.00000092,-0.00017227,-0.00002704,0.00001126,0.00046310,0.0
 0006850,0.00022635,0.00705550,0.00103205,0.00016256,-0.00061710,-0.000
 16141,0.00041620,0.00317635,-0.00025636,0.00084350,0.00652274,0.001869
 39,-0.00002435,-0.00109206,-0.00021431,-0.02276345,-0.04522805,0.04387
 799,-0.00008289,-0.00397091,-0.00094310,-0.00310520,0.00241307,0.00419
 770,-0.00016240,0.00014876,0.00023577,0.02441258,0.03501737,0.00003615
 ,-0.00000183,-0.00000476,-0.00009556,-0.00000010,-0.00001152,0.0000338
 9,0.00000070,-0.00000059,-0.00000780,0.00000305,-0.00000687,-0.0000014
 0,0.00000027,0.00000013,-0.00000549,0.00000002,0.00000387,-0.00000567,
 0.00000135,-0.00000253,0.00000476,-0.00000022,0.00000235,0.00001001,-0
 .00002718,-0.00003925,-0.00004115,0.00007389,0.00010058,-0.00090752,0.
 00102978,0.00202609,-0.00082731,-0.00016139,0.00019139,-0.00183722,-0.
 00013579,0.00385702,-0.00413807,0.00187350,-0.00257738,0.00009932,-0.0
 0021432,-0.00004334,0.11790489,0.04387786,-0.26280748,0.00032686,-0.00
 094579,0.00065978,0.01565131,0.00407670,-0.01787605,0.00082256,0.00022
 928,-0.00099108,-0.12663042,-0.04881150,0.27696650,-0.00004429,-0.0000
 0102,0.00000607,0.00012290,-0.00000021,-0.00000059,-0.00004432,0.00000
 130,-0.00000575,0.00000715,-0.00000051,0.00000243,0.00000869,0.,-0.000
 00003,0.00000951,0.00000138,-0.00000719,0.00000959,-0.00000143,0.00000
 713,-0.00000568,0.00000053,-0.00000257,-0.00013011,0.00000058,0.000000
 80,0.00012544,-0.00000448,-0.00000065,0.00072491,-0.00000461,-0.000008
 57,0.00069878,-0.00057489,0.00305784,0.00065853,0.00063096,-0.00308962
 ,-0.01113264,0.00053185,-0.00242102,-0.00063559,0.00004367,-0.00020761
 ,-0.01133424,-0.00044518,0.00256463,-0.00064502,-0.00003905,0.00021433
 ,-0.34007596,0.00094368,0.00128109,0.00076295,-0.00009974,0.00041546,0
 .00076214,0.00006464,-0.00042270,0.36019336,0.00000059,-0.00000106,0.0
 0000159,-0.00000023,0.00003824,0.00001065,-0.00000030,-0.00000107,0.00
 000163,-0.00000018,-0.00000133,-0.00000109,0.,0.00000469,0.00000086,0.
 00000065,0.00000146,-0.00000034,-0.00000070,0.00000147,-0.00000038,-0.
 00000007,0.00000152,0.00000033,0.00000059,0.00005742,0.00000279,-0.000
 00446,-0.00099864,-0.00023194,-0.00000459,-0.00089002,0.00006708,-0.00
 037643,0.00657964,0.00222007,0.00043244,0.00657351,0.00223490,-0.00549
 246,0.00342217,-0.00026543,-0.00027502,0.00011620,0.00000445,0.0055785
 0,0.00339138,-0.00033070,0.00027961,0.00011476,0.00000066,0.00094432,-
 0.03741736,0.00449176,0.00004423,-0.00370610,-0.00086893,-0.00007930,-
 0.00370620,-0.00086575,-0.00104752,0.02642197,-0.00000210,0.00000163,-
 0.00000899,-0.00000059,0.00001065,-0.00001397,0.00000244,0.00000160,-0
 .00000895,0.00000074,-0.00000108,0.00000394,-0.00000003,0.00000086,0.0
 0000046,-0.00000348,-0.00000036,0.00000329,0.00000342,-0.00000037,0.00
 000320,0.00000052,0.00000031,-0.00000003,0.00000079,0.00000280,0.00004
 374,-0.00000064,-0.00023195,0.00013846,-0.00000856,0.00006709,-0.00121
 882,0.00204592,0.00222397,-0.00436653,-0.00207771,0.00223101,-0.004320
 23,0.02829324,-0.00038639,0.00475069,0.00141722,-0.00000193,0.00009745
 ,-0.02814978,-0.00020979,0.00498302,-0.00141050,0.00000704,0.00010830,
 0.00128124,0.00449185,-0.05946084,-0.00031854,-0.00086605,0.00054568,0
 .00031128,-0.00086869,0.00054663,-0.00138381,-0.00647084,0.05816937,-0
 .35447893,0.00681771,-0.02885320,-0.03171627,-0.01336227,0.06881685,-0
 .04618439,0.00483257,-0.02378782,0.05827817,0.00412326,-0.02198382,-0.
 14908287,0.00841665,-0.04120672,-0.01137016,-0.00038693,0.00226640,-0.
 00060647,0.00015227,-0.00077897,-0.00153839,-0.00076185,0.00401696,0.0
 0892959,-0.00031896,0.00158491,-0.00454198,0.00012526,-0.00054908,0.00
 161007,0.00000270,-0.00005524,-0.00047634,0.00007954,-0.00039946,-0.00
 034063,-0.00008401,0.00043619,0.00029136,0.00003394,-0.00017501,0.0000
 0197,-0.00000195,0.00000895,0.00020333,-0.00002514,0.00012312,0.000008
 47,0.00000463,-0.00002350,-0.00008135,-0.00000825,0.00004304,0.0000045
 0,-0.00000150,0.00000772,0.00000705,0.00000157,-0.00000822,0.00000713,
 0.00000011,-0.00000077,0.70943015,-0.00523698,-0.06108599,0.01380544,-
 0.00505162,0.00603963,-0.00550136,0.00540993,-0.00450329,0.00236624,-0
 .00432854,0.00695841,0.01188676,0.02077000,-0.07268618,0.04072733,0.00
 552243,0.00348367,-0.00027114,0.00012710,-0.00069785,-0.00017512,-0.00
 054266,0.00496195,0.00150114,-0.00091316,0.00644029,0.00226309,0.00014
 669,-0.00007306,-0.00002081,-0.00013031,-0.00042940,-0.00014671,0.0000
 0161,-0.00018275,0.00001572,0.00002750,0.00007985,-0.00001205,-0.00002
 471,0.00018901,0.00002188,-0.00000108,-0.00004545,-0.00001010,-0.00001
 630,-0.00005929,-0.00000596,0.00000460,0.00001520,-0.00000257,0.000027
 23,-0.00002682,-0.00000985,-0.00000385,0.00000795,0.00000304,-0.000000
 86,-0.00000497,-0.00000272,0.00000045,-0.00000134,-0.00000108,0.006357
 84,0.15134746,0.03257339,0.01356620,-0.12816819,0.02646549,-0.00533666
 ,0.03160559,-0.02672776,0.00237768,-0.01560226,0.02108282,0.01171899,-
 0.05085913,-0.10415355,0.04097261,-0.27131598,-0.02784396,-0.00015370,
 0.00478849,-0.00065019,-0.00017562,0.00017611,0.00290020,0.00150536,-0
 .00247480,0.00461213,0.00225162,-0.00468181,-0.00065857,-0.00002057,0.
 00004017,0.00062291,-0.00014934,0.00029021,-0.00000235,0.00001412,-0.0
 0025173,-0.00013199,-0.00000979,0.00013034,0.00012399,0.00002079,0.000
 08497,0.00000452,-0.00001009,0.00000388,0.00007779,-0.00000586,-0.0000
 3246,-0.00002326,-0.00000255,0.00002821,-0.00013761,-0.00000914,0.0000
 2070,0.00001972,0.00000299,-0.00000713,0.00000410,-0.00000276,0.000008
 50,-0.00000246,-0.00000107,0.00000396,-0.04392310,-0.11088576,0.695490
 15,-0.01038814,-0.00536655,0.02761670,-0.00479121,0.00035145,-0.001548
 90,-0.00063665,0.00013022,-0.00066523,-0.00159177,0.00059562,-0.002898
 87,0.01042523,0.00306820,-0.01574942,0.00061339,0.00003748,-0.00028925
 ,0.00008038,-0.00002011,0.00008336,0.00057641,0.00015287,-0.00078148,-
 0.00033630,-0.00024980,0.00128518,-0.00034890,0.00000867,-0.00004011,0
 .00012146,0.00001649,-0.00008665,-0.00008857,-0.00000829,0.00004422,-0
 .00004710,0.00000415,-0.00002069,-0.00000063,0.00000345,-0.00001762,0.
 00000903,-0.00000093,0.00000469,-0.00000114,-0.00000060,0.00000309,0.0
 0001150,0.00000183,-0.00000949,-0.00002353,-0.00000008,0.00000087,-0.0
 0001577,0.00000097,-0.00000460,-0.00000978,-0.00000070,0.00000381,-0.0
 0000566,0.00000012,-0.00000046,-0.13191319,-0.02391317,0.12374937,0.13
 664159,0.00042327,0.00342600,-0.00046596,0.00029247,0.00713831,0.00108
 858,0.00014611,-0.00068248,-0.00018631,0.00081470,0.00495443,0.0015162
 9,-0.00318323,0.00372074,0.00455871,-0.00006946,-0.00413876,-0.0009685
 5,-0.00001987,-0.00085096,-0.00016664,-0.00015163,0.00040565,0.0002619
 9,-0.00000855,0.00029195,0.00001592,0.00002248,-0.00014082,-0.00001805
 ,0.00000066,-0.00000925,0.00000161,0.00000021,0.00000837,0.00000292,-0
 .00000117,-0.00002057,-0.00000504,-0.00000081,-0.00000213,0.00000095,0
 .00000049,0.00000650,0.00000132,-0.00000028,-0.00000059,-0.00000154,0.
 00000045,0.00000330,0.00000058,-0.00000210,-0.00000101,-0.00000028,-0.
 00000031,0.00000138,-0.00000019,-0.00000043,0.00000200,0.00000086,-0.0
 0000049,0.00000152,0.00000032,-0.02337416,-0.04481484,0.04437805,0.025
 19921,0.03454030,-0.00188608,-0.00035096,0.00516187,-0.00124857,0.0010
 8768,0.00183571,-0.00074501,-0.00018610,0.00024458,-0.00401565,0.00152
 055,-0.00241268,0.01610353,0.00443488,-0.01831446,0.00025565,-0.000970
 61,0.00061148,0.00008209,-0.00016666,-0.00003618,0.00077019,0.00025590
 ,-0.00086292,0.00005588,0.00002071,0.00018836,-0.00011033,-0.00001776,
 -0.00005149,-0.00000605,0.00000129,-0.00001542,0.00000089,0.00000308,-
 0.00000678,0.00000647,-0.00000514,0.00000451,0.00000410,0.00000087,-0.
 00000645,-0.00000253,0.00000134,-0.00000004,0.00000143,-0.00000153,0.0
 0000689,-0.00000246,0.00000056,0.00000064,0.00001117,-0.00000032,0.000
 00033,0.00000190,-0.00000021,0.00000237,0.00000242,0.00000087,-0.00000
 229,0.00000263,0.00000031,-0.00000005,0.12100426,0.04438840,-0.2647762
 8,-0.13061757,-0.04899264,0.27725490,0.00688276,0.00127115,-0.00646779
 ,-0.00575046,0.00001234,0.00002544,0.00693457,-0.00124900,0.00637304,-
 0.05383685,-0.00278435,0.01533686,-0.29080956,0.00074310,0.00094384,-0
 .00149610,0.00001361,-0.00003135,-0.00148435,-0.00000182,0.00004701,0.
 00197691,0.00016892,-0.00098727,0.00409211,-0.00001673,-0.00001724,-0.
 00285379,0.00000827,0.00001273,0.00161650,-0.00000437,-0.00000731,-0.0
 0052074,0.00001501,-0.00006605,-0.00052027,-0.00001182,0.00007061,0.00
 015002,-0.00001752,0.00008642,0.00007202,-0.00000848,0.00004174,0.0001
 4930,0.00001660,-0.00008768,0.00007166,0.00000801,-0.00004233,-0.00040
 760,0.00000123,0.00000183,-0.00006936,0.00001194,-0.00005948,-0.000068
 91,-0.00001152,0.00006011,-0.00006667,0.00000020,0.00000031,-0.0542349
 3,0.00313150,-0.01480019,0.00198456,-0.00021585,0.00097335,1.46712576,
 0.00007856,0.00683279,0.00253431,0.00001259,-0.00119263,-0.00028054,-0
 .00005675,0.00683987,0.00249572,-0.00698961,0.00398250,-0.00057185,0.0
 0074315,-0.05452124,0.00568120,0.00029785,0.00041200,0.00003297,-0.000
 28601,0.00041378,0.00003529,-0.00002119,-0.00416784,-0.00108820,-0.000
 01692,-0.00104237,-0.00030654,0.00000849,-0.00004718,-0.00000496,-0.00
 000447,0.00010379,0.00002638,-0.00000038,0.00000145,0.00000436,0.00000
 359,0.00000151,0.00000393,-0.00000133,0.00000264,-0.00000209,-0.000001
 02,-0.00000366,-0.00000235,0.00000042,0.00000254,-0.00000156,0.0000005
 4,-0.00000371,-0.00000210,0.00000124,-0.00000013,0.00000018,-0.0000003
 1,-0.00000065,-0.00000007,0.00000072,-0.00000058,-0.00000044,0.0000001
 9,-0.00000262,-0.00000081,0.00733673,0.00392114,-0.00054426,-0.0000258
 3,-0.00416744,-0.00109439,-0.00428299,0.06618197,-0.00039138,0.0025105
 8,-0.00545429,0.00002537,-0.00028053,0.00018135,0.00029683,0.00251939,
 -0.00551479,0.03676481,-0.00065553,0.00645152,0.00094300,0.00568117,-0
 .08237121,-0.00147964,0.00003858,0.00025233,0.00149524,0.00002968,0.00
 023877,-0.00001847,-0.00109201,0.00118340,-0.00001705,-0.00030657,0.00
 045982,0.00001252,-0.00000492,-0.00002309,-0.00000720,0.00002636,-0.00
 002534,0.00001236,0.00000405,-0.00001860,-0.00000789,0.00000422,-0.000
 01912,0.00000384,-0.00000176,0.00001115,0.00000367,-0.00000220,0.00000
 704,-0.00000507,-0.00000188,0.00001195,-0.00000426,-0.00000225,0.00000
 745,0.00000180,0.00000018,-0.00000103,0.00000293,-0.00000032,0.0000009
 0,-0.00000231,-0.00000020,0.00000039,0.00000030,-0.00000081,0.00000133
 ,-0.03622847,-0.00046052,0.00691092,0.00000507,-0.00109058,0.00117458,
 -0.00610221,-0.00580202,0.09471281,-0.00239393,-0.00014584,0.00077722,
 0.00281266,-0.00000805,-0.00001038,-0.00240318,0.00015486,-0.00075491,
 0.00774298,0.00132806,-0.00689626,-0.02702844,0.00010969,0.00016515,0.
 00015539,-0.00003330,0.00016324,0.00015330,0.00003121,-0.00016540,-0.0
 0025973,-0.00012415,0.00064448,-0.00189388,0.00000634,0.00000857,0.001
 31843,-0.00000415,-0.00000605,-0.00072153,0.00000221,0.00000329,0.0002
 2786,-0.00000970,0.00004509,0.00022751,0.00000840,-0.00004713,-0.00007
 212,0.00000605,-0.00002955,-0.00003066,0.00000409,-0.00002027,-0.00007
 187,-0.00000566,0.00003020,-0.00003050,-0.00000392,0.00002055,0.000170
 58,-0.00000050,-0.00000076,0.00002852,-0.00000500,0.00002488,0.0000283
 2,0.00000481,-0.00002514,0.00002911,-0.00000009,-0.00000014,0.00779412
 ,-0.00136364,0.00681855,-0.00026520,0.00012828,-0.00064170,-1.07893661
 ,0.00320275,0.00469622,1.09341889,-0.00008479,-0.00064213,-0.00017939,
 -0.00000820,0.00021233,-0.00006823,0.00009389,-0.00064349,-0.00017551,
 -0.00007579,0.00115882,0.00054094,0.00010978,0.00942393,-0.00023150,-0
 .00002299,-0.00016511,-0.00001860,0.00002089,-0.00016545,-0.00001780,-
 0.00001113,0.00032918,0.00006608,0.00000647,0.00017796,0.00003978,-0.0
 0000427,-0.00007224,-0.00001117,0.00000226,0.00001802,0.00000213,-0.00
 000019,0.00000906,0.00000152,-0.00000113,0.00000901,0.00000181,0.00000
 035,-0.00000698,-0.00000143,0.00000007,-0.00000202,-0.00000036,0.00000
 003,-0.00000694,-0.00000161,0.00000010,-0.00000199,-0.00000048,-0.0000
 0051,0.00000331,0.00000040,-0.00000032,-0.00000173,-0.00000039,0.00000
 013,-0.00000176,-0.00000024,-0.00000009,-0.00000020,0.00000018,0.00004
 024,0.00116667,0.00049875,0.00001532,0.00032841,0.00006990,0.00320259,
 -0.02354593,-0.00111211,-0.00328273,0.01241927,0.00046618,-0.00017817,
 0.00022093,-0.00001022,-0.00006823,0.00054675,-0.00044404,-0.00017672,
 0.00023183,0.00025719,0.00051297,-0.00135441,0.00016601,-0.00023148,0.
 01055521,0.00011072,-0.00001839,-0.00007732,-0.00011287,-0.00001801,-0
 .00007487,0.00006870,0.00006833,-0.00000745,0.00000843,0.00003976,-0.0
 0001706,-0.00000595,-0.00001116,-0.00001739,0.00000324,0.00000213,0.00
 000751,-0.00000340,0.00000171,0.00000070,0.00000140,0.00000162,0.00000
 108,-0.00000050,-0.00000154,0.00000063,0.00000021,-0.00000044,0.000000
 13,0.00000113,-0.00000150,0.00000036,0.00000006,-0.00000040,-0.0000000
 5,-0.00000075,0.00000040,0.00000134,0.00000103,-0.00000030,-0.00000031
 ,-0.00000128,-0.00000033,-0.00000007,-0.00000013,0.00000018,-0.0000011
 0,-0.00033502,0.00052670,-0.00141245,-0.00006601,0.00006765,-0.0000011
 9,0.00469561,-0.00111212,-0.01817823,-0.00479975,0.00059734,0.00957542
 ||0.00001445,0.00000038,-0.00001046,-0.00000343,-0.00000036,0.00002118
 ,-0.00000936,0.00000115,-0.00000869,0.00000906,0.00000105,-0.00000696,
 0.00000609,-0.00000306,0.00001300,-0.00000202,-0.00000051,0.00000072,0
 .00000117,-0.00000086,0.00000104,-0.00000073,0.00000003,0.00000094,-0.
 00000010,-0.00000138,-0.00000393,0.00000310,0.00000118,0.00000018,0.00
 000043,0.00000135,0.00000083,-0.00000360,0.00000025,-0.00000275,-0.000
 00231,-0.00000130,0.00000181,0.00000148,-0.00000163,0.00000073,0.00000
 042,0.00000004,0.00000053,0.,-0.00000006,-0.00000183,0.00000045,0.0000
 0027,-0.00000030,-0.00000160,0.00000182,0.00000112,-0.00000027,0.00000
 026,-0.00000079,-0.00000011,-0.00000047,0.00000082,0.00000008,-0.00000
 040,-0.00000017,-0.00001219,0.00000152,-0.00000507,0.00000224,0.,-0.00
 000017,-0.00001119,0.00000082,-0.00000162,0.00000797,-0.00000007,-0.00
 000015|||@


 THE HURRIEDER I GO, THE BEHINDER I GET.
 Job cpu time:       0 days  0 hours 22 minutes 35.0 seconds.
 File lengths (MBytes):  RWF=    490 Int=      0 D2E=      0 Chk=      9 Scr=      1
 Normal termination of Gaussian 09 at Thu Aug 24 17:58:26 2023.
