 Entering Link 1 = C:\G09W\l1.exe PID=      2600.
  
 Copyright (c) 1988,1990,1992,1993,1995,1998,2003,2009,2013,
            Gaussian, Inc.  All Rights Reserved.
  
 This is part of the Gaussian(R) 09 program.  It is based on
 the Gaussian(R) 03 system (copyright 2003, Gaussian, Inc.),
 the Gaussian(R) 98 system (copyright 1998, Gaussian, Inc.),
 the Gaussian(R) 94 system (copyright 1995, Gaussian, Inc.),
 the Gaussian 92(TM) system (copyright 1992, Gaussian, Inc.),
 the Gaussian 90(TM) system (copyright 1990, Gaussian, Inc.),
 the Gaussian 88(TM) system (copyright 1988, Gaussian, Inc.),
 the Gaussian 86(TM) system (copyright 1986, Carnegie Mellon
 University), and the Gaussian 82(TM) system (copyright 1983,
 Carnegie Mellon University). Gaussian is a federally registered
 trademark of Gaussian, Inc.
  
 This software contains proprietary and confidential information,
 including trade secrets, belonging to Gaussian, Inc.
  
 This software is provided under written license and may be
 used, copied, transmitted, or stored only in accord with that
 written license.
  
 The following legend is applicable only to US Government
 contracts under FAR:
  
                    RESTRICTED RIGHTS LEGEND
  
 Use, reproduction and disclosure by the US Government is
 subject to restrictions as set forth in subparagraphs (a)
 and (c) of the Commercial Computer Software - Restricted
 Rights clause in FAR 52.227-19.
  
 Gaussian, Inc.
 340 Quinnipiac St., Bldg. 40, Wallingford CT 06492
  
  
 ---------------------------------------------------------------
 Warning -- This program may not be used in any manner that
 competes with the business of Gaussian, Inc. or will provide
 assistance to any competitor of Gaussian, Inc.  The licensee
 of this program is prohibited from giving any competitor of
 Gaussian, Inc. access to this program.  By using this program,
 the user acknowledges that Gaussian, Inc. is engaged in the
 business of creating and licensing software in the field of
 computational chemistry and represents and warrants to the
 licensee that it is not a competitor of Gaussian, Inc. and that
 it will not use this program in any manner prohibited above.
 ---------------------------------------------------------------
  

 Cite this work as:
 Gaussian 09, Revision D.01,
 M. J. Frisch, G. W. Trucks, H. B. Schlegel, G. E. Scuseria, 
 M. A. Robb, J. R. Cheeseman, G. Scalmani, V. Barone, B. Mennucci, 
 G. A. Petersson, H. Nakatsuji, M. Caricato, X. Li, H. P. Hratchian, 
 A. F. Izmaylov, J. Bloino, G. Zheng, J. L. Sonnenberg, M. Hada, 
 M. Ehara, K. Toyota, R. Fukuda, J. Hasegawa, M. Ishida, T. Nakajima, 
 Y. Honda, O. Kitao, H. Nakai, T. Vreven, J. A. Montgomery, Jr., 
 J. E. Peralta, F. Ogliaro, M. Bearpark, J. J. Heyd, E. Brothers, 
 K. N. Kudin, V. N. Staroverov, T. Keith, R. Kobayashi, J. Normand, 
 K. Raghavachari, A. Rendell, J. C. Burant, S. S. Iyengar, J. Tomasi, 
 M. Cossi, N. Rega, J. M. Millam, M. Klene, J. E. Knox, J. B. Cross, 
 V. Bakken, C. Adamo, J. Jaramillo, R. Gomperts, R. E. Stratmann, 
 O. Yazyev, A. J. Austin, R. Cammi, C. Pomelli, J. W. Ochterski, 
 R. L. Martin, K. Morokuma, V. G. Zakrzewski, G. A. Voth, 
 P. Salvador, J. J. Dannenberg, S. Dapprich, A. D. Daniels, 
 O. Farkas, J. B. Foresman, J. V. Ortiz, J. Cioslowski, 
 and D. J. Fox, Gaussian, Inc., Wallingford CT, 2013.
 
 ******************************************
 Gaussian 09:  EM64W-G09RevD.01 13-Apr-2013
                11-Sep-2023 
 ******************************************
 %nprocshared=6
 Will use up to    6 processors via shared memory.
 %mem=6GB
 %chk=D:\User Dont delete\Downloads\molecule_24.chk
 ----------------------------------------------
 # opt freq b3lyp/6-31g empiricaldispersion=gd3
 ----------------------------------------------
 1/14=-1,18=20,19=15,26=3,38=1/1,3;
 2/9=110,12=2,17=6,18=5,40=1/2;
 3/5=1,6=6,11=2,16=1,25=1,30=1,71=1,74=-5,124=31/1,2,3;
 4//1;
 5/5=2,38=5/2;
 6/7=2,8=2,9=2,10=2,28=1/1;
 7//1,2,3,16;
 1/14=-1,18=20,19=15,26=3/3(2);
 2/9=110/2;
 99//99;
 2/9=110/2;
 3/5=1,6=6,11=2,16=1,25=1,30=1,71=1,74=-5,124=31/1,2,3;
 4/5=5,16=3,69=1/1;
 5/5=2,38=5/2;
 7//1,2,3,16;
 1/14=-1,18=20,19=15,26=3/3(-5);
 2/9=110/2;
 6/7=2,8=2,9=2,10=2,19=2,28=1/1;
 99/9=1/99;
 -------------------
 Title Card Required
 -------------------
 Symbolic Z-matrix:
 Charge =  0 Multiplicity = 1
 C                    -5.30642  -0.95004   1.13808 
 C                    -3.91026  -0.97885   1.0873 
 C                    -3.24353  -0.49817  -0.05029 
 C                    -3.96927  -0.06568  -1.15526 
 C                    -5.36722  -0.03465  -1.10341 
 C                    -6.03529  -0.47585   0.04315 
 H                    -5.82877  -1.29526   2.03458 
 H                    -3.33932  -1.35081   1.9443 
 H                    -3.4475    0.28095  -2.05001 
 H                    -5.9376    0.33606  -1.95976 
 C                    -1.70232  -0.51098  -0.00174 
 C                    -0.50316  -0.51544   0.00061 
 C                     1.03814  -0.52118   0.00361 
 C                     1.73324  -0.49899   1.21632 
 C                     1.73531  -0.50038  -1.20582 
 C                     3.13124  -0.50192   1.21672 
 H                     1.18549  -0.5016    2.1622 
 C                     3.13359  -0.50384  -1.20525 
 H                     1.18944  -0.5035   -2.1542 
 C                     3.82894  -0.50274   0.00634 
 H                     3.67742  -0.50148   2.16417 
 H                     3.6812   -0.50459  -2.15173 
 C                     5.36894  -0.50335   0.00776 
 H                     5.7252   -1.5123    0.01065 
 H                     5.72661  -0.00131  -0.86684 
 H                     5.725     0.00313   0.88046 
 Cl                   -7.79361  -0.43423   0.10793 
 

 GradGradGradGradGradGradGradGradGradGradGradGradGradGradGradGradGradGrad
 Berny optimization.
 Initialization pass.
                           ----------------------------
                           !    Initial Parameters    !
                           ! (Angstroms and Degrees)  !
 --------------------------                            --------------------------
 ! Name  Definition              Value          Derivative Info.                !
 --------------------------------------------------------------------------------
 ! R1    R(1,2)                  1.3974         estimate D2E/DX2                !
 ! R2    R(1,6)                  1.3982         estimate D2E/DX2                !
 ! R3    R(1,7)                  1.0935         estimate D2E/DX2                !
 ! R4    R(2,3)                  1.4035         estimate D2E/DX2                !
 ! R5    R(2,8)                  1.0949         estimate D2E/DX2                !
 ! R6    R(3,4)                  1.3909         estimate D2E/DX2                !
 ! R7    R(3,11)                 1.542          estimate D2E/DX2                !
 ! R8    R(4,5)                  1.3993         estimate D2E/DX2                !
 ! R9    R(4,9)                  1.0922         estimate D2E/DX2                !
 ! R10   R(5,6)                  1.3984         estimate D2E/DX2                !
 ! R11   R(5,10)                 1.0937         estimate D2E/DX2                !
 ! R12   R(6,27)                 1.76           estimate D2E/DX2                !
 ! R13   R(11,12)                1.1992         estimate D2E/DX2                !
 ! R14   R(12,13)                1.5413         estimate D2E/DX2                !
 ! R15   R(13,14)                1.398          estimate D2E/DX2                !
 ! R16   R(13,15)                1.3961         estimate D2E/DX2                !
 ! R17   R(14,16)                1.398          estimate D2E/DX2                !
 ! R18   R(14,17)                1.093          estimate D2E/DX2                !
 ! R19   R(15,18)                1.3983         estimate D2E/DX2                !
 ! R20   R(15,19)                1.0943         estimate D2E/DX2                !
 ! R21   R(16,20)                1.3971         estimate D2E/DX2                !
 ! R22   R(16,21)                1.0936         estimate D2E/DX2                !
 ! R23   R(18,20)                1.3969         estimate D2E/DX2                !
 ! R24   R(18,22)                1.0935         estimate D2E/DX2                !
 ! R25   R(20,23)                1.54           estimate D2E/DX2                !
 ! R26   R(23,24)                1.07           estimate D2E/DX2                !
 ! R27   R(23,25)                1.07           estimate D2E/DX2                !
 ! R28   R(23,26)                1.07           estimate D2E/DX2                !
 ! A1    A(2,1,6)              119.958          estimate D2E/DX2                !
 ! A2    A(2,1,7)              120.0372         estimate D2E/DX2                !
 ! A3    A(6,1,7)              120.0045         estimate D2E/DX2                !
 ! A4    A(1,2,3)              119.8047         estimate D2E/DX2                !
 ! A5    A(1,2,8)              119.971          estimate D2E/DX2                !
 ! A6    A(3,2,8)              120.204          estimate D2E/DX2                !
 ! A7    A(2,3,4)              120.1683         estimate D2E/DX2                !
 ! A8    A(2,3,11)             116.5157         estimate D2E/DX2                !
 ! A9    A(4,3,11)             123.304          estimate D2E/DX2                !
 ! A10   A(3,4,5)              119.9162         estimate D2E/DX2                !
 ! A11   A(3,4,9)              120.0131         estimate D2E/DX2                !
 ! A12   A(5,4,9)              120.0388         estimate D2E/DX2                !
 ! A13   A(4,5,6)              120.0444         estimate D2E/DX2                !
 ! A14   A(4,5,10)             119.9699         estimate D2E/DX2                !
 ! A15   A(6,5,10)             119.9857         estimate D2E/DX2                !
 ! A16   A(1,6,5)              120.0015         estimate D2E/DX2                !
 ! A17   A(1,6,27)             119.9992         estimate D2E/DX2                !
 ! A18   A(5,6,27)             119.9992         estimate D2E/DX2                !
 ! A19   A(12,13,14)           119.9238         estimate D2E/DX2                !
 ! A20   A(12,13,15)           119.8422         estimate D2E/DX2                !
 ! A21   A(14,13,15)           120.1945         estimate D2E/DX2                !
 ! A22   A(13,14,16)           119.8308         estimate D2E/DX2                !
 ! A23   A(13,14,17)           120.098          estimate D2E/DX2                !
 ! A24   A(16,14,17)           120.0575         estimate D2E/DX2                !
 ! A25   A(13,15,18)           119.9314         estimate D2E/DX2                !
 ! A26   A(13,15,19)           120.108          estimate D2E/DX2                !
 ! A27   A(18,15,19)           119.947          estimate D2E/DX2                !
 ! A28   A(14,16,20)           119.944          estimate D2E/DX2                !
 ! A29   A(14,16,21)           119.9792         estimate D2E/DX2                !
 ! A30   A(20,16,21)           120.0767         estimate D2E/DX2                !
 ! A31   A(15,18,20)           119.8756         estimate D2E/DX2                !
 ! A32   A(15,18,22)           120.0284         estimate D2E/DX2                !
 ! A33   A(20,18,22)           120.0958         estimate D2E/DX2                !
 ! A34   A(16,20,18)           120.1873         estimate D2E/DX2                !
 ! A35   A(16,20,23)           119.9076         estimate D2E/DX2                !
 ! A36   A(18,20,23)           119.9051         estimate D2E/DX2                !
 ! A37   A(20,23,24)           109.4712         estimate D2E/DX2                !
 ! A38   A(20,23,25)           109.4712         estimate D2E/DX2                !
 ! A39   A(20,23,26)           109.4712         estimate D2E/DX2                !
 ! A40   A(24,23,25)           109.4713         estimate D2E/DX2                !
 ! A41   A(24,23,26)           109.4712         estimate D2E/DX2                !
 ! A42   A(25,23,26)           109.4712         estimate D2E/DX2                !
 ! A43   L(3,11,12,8,-1)       181.6583         estimate D2E/DX2                !
 ! A44   L(11,12,13,19,-1)     179.9996         estimate D2E/DX2                !
 ! A45   L(3,11,12,8,-2)       179.4663         estimate D2E/DX2                !
 ! A46   L(11,12,13,19,-2)     179.9998         estimate D2E/DX2                !
 ! D1    D(6,1,2,3)              1.6809         estimate D2E/DX2                !
 ! D2    D(6,1,2,8)           -179.9557         estimate D2E/DX2                !
 ! D3    D(7,1,2,3)           -178.1363         estimate D2E/DX2                !
 ! D4    D(7,1,2,8)              0.227          estimate D2E/DX2                !
 ! D5    D(2,1,6,5)              0.1967         estimate D2E/DX2                !
 ! D6    D(2,1,6,27)          -179.8033         estimate D2E/DX2                !
 ! D7    D(7,1,6,5)           -179.986          estimate D2E/DX2                !
 ! D8    D(7,1,6,27)             0.014          estimate D2E/DX2                !
 ! D9    D(1,2,3,4)             -3.6992         estimate D2E/DX2                !
 ! D10   D(1,2,3,11)           177.5162         estimate D2E/DX2                !
 ! D11   D(8,2,3,4)            177.9414         estimate D2E/DX2                !
 ! D12   D(8,2,3,11)            -0.8433         estimate D2E/DX2                !
 ! D13   D(2,3,4,5)              3.816          estimate D2E/DX2                !
 ! D14   D(2,3,4,9)           -178.2399         estimate D2E/DX2                !
 ! D15   D(11,3,4,5)          -177.4853         estimate D2E/DX2                !
 ! D16   D(11,3,4,9)             0.4589         estimate D2E/DX2                !
 ! D17   D(2,3,13,14)          -24.1431         estimate D2E/DX2                !
 ! D18   D(2,3,13,15)          158.2445         estimate D2E/DX2                !
 ! D19   D(4,3,13,14)          157.4038         estimate D2E/DX2                !
 ! D20   D(4,3,13,15)          -20.2086         estimate D2E/DX2                !
 ! D21   D(3,4,5,6)             -1.9249         estimate D2E/DX2                !
 ! D22   D(3,4,5,10)           178.0            estimate D2E/DX2                !
 ! D23   D(9,4,5,6)           -179.8685         estimate D2E/DX2                !
 ! D24   D(9,4,5,10)             0.0564         estimate D2E/DX2                !
 ! D25   D(4,5,6,1)             -0.0841         estimate D2E/DX2                !
 ! D26   D(4,5,6,27)           179.9159         estimate D2E/DX2                !
 ! D27   D(10,5,6,1)           179.991          estimate D2E/DX2                !
 ! D28   D(10,5,6,27)           -0.009          estimate D2E/DX2                !
 ! D29   D(12,13,14,16)       -179.8905         estimate D2E/DX2                !
 ! D30   D(12,13,14,17)          1.4544         estimate D2E/DX2                !
 ! D31   D(15,13,14,16)         -2.1768         estimate D2E/DX2                !
 ! D32   D(15,13,14,17)        179.1681         estimate D2E/DX2                !
 ! D33   D(12,13,15,18)        179.9195         estimate D2E/DX2                !
 ! D34   D(12,13,15,19)         -1.4191         estimate D2E/DX2                !
 ! D35   D(14,13,15,18)          2.2039         estimate D2E/DX2                !
 ! D36   D(14,13,15,19)       -179.1347         estimate D2E/DX2                !
 ! D37   D(13,14,16,20)          1.1475         estimate D2E/DX2                !
 ! D38   D(13,14,16,21)       -178.9793         estimate D2E/DX2                !
 ! D39   D(17,14,16,20)        179.8032         estimate D2E/DX2                !
 ! D40   D(17,14,16,21)         -0.3236         estimate D2E/DX2                !
 ! D41   D(13,15,18,20)         -1.1998         estimate D2E/DX2                !
 ! D42   D(13,15,18,22)        178.9699         estimate D2E/DX2                !
 ! D43   D(19,15,18,20)       -179.8633         estimate D2E/DX2                !
 ! D44   D(19,15,18,22)          0.3064         estimate D2E/DX2                !
 ! D45   D(14,16,20,18)         -0.1518         estimate D2E/DX2                !
 ! D46   D(14,16,20,23)        179.8876         estimate D2E/DX2                !
 ! D47   D(21,16,20,18)        179.9751         estimate D2E/DX2                !
 ! D48   D(21,16,20,23)          0.0145         estimate D2E/DX2                !
 ! D49   D(15,18,20,16)          0.1766         estimate D2E/DX2                !
 ! D50   D(15,18,20,23)       -179.8628         estimate D2E/DX2                !
 ! D51   D(22,18,20,16)       -179.9932         estimate D2E/DX2                !
 ! D52   D(22,18,20,23)         -0.0326         estimate D2E/DX2                !
 ! D53   D(16,20,23,24)         89.8801         estimate D2E/DX2                !
 ! D54   D(16,20,23,25)       -150.1199         estimate D2E/DX2                !
 ! D55   D(16,20,23,26)        -30.1199         estimate D2E/DX2                !
 ! D56   D(18,20,23,24)        -90.0806         estimate D2E/DX2                !
 ! D57   D(18,20,23,25)         29.9194         estimate D2E/DX2                !
 ! D58   D(18,20,23,26)        149.9194         estimate D2E/DX2                !
 --------------------------------------------------------------------------------
 Trust Radius=3.00D-01 FncErr=1.00D-07 GrdErr=1.00D-06
 Number of steps in this run=    142 maximum allowed number of steps=    162.
 GradGradGradGradGradGradGradGradGradGradGradGradGradGradGradGradGradGrad

                          Input orientation:                          
 ---------------------------------------------------------------------
 Center     Atomic      Atomic             Coordinates (Angstroms)
 Number     Number       Type             X           Y           Z
 ---------------------------------------------------------------------
      1          6           0       -5.306420   -0.950037    1.138085
      2          6           0       -3.910257   -0.978854    1.087296
      3          6           0       -3.243530   -0.498173   -0.050288
      4          6           0       -3.969271   -0.065678   -1.155262
      5          6           0       -5.367223   -0.034654   -1.103412
      6          6           0       -6.035290   -0.475849    0.043153
      7          1           0       -5.828773   -1.295255    2.034578
      8          1           0       -3.339319   -1.350808    1.944296
      9          1           0       -3.447499    0.280946   -2.050008
     10          1           0       -5.937596    0.336059   -1.959755
     11          6           0       -1.702325   -0.510980   -0.001736
     12          6           0       -0.503164   -0.515444    0.000607
     13          6           0        1.038137   -0.521178    0.003607
     14          6           0        1.733241   -0.498994    1.216317
     15          6           0        1.735313   -0.500380   -1.205823
     16          6           0        3.131236   -0.501924    1.216721
     17          1           0        1.185494   -0.501600    2.162198
     18          6           0        3.133594   -0.503838   -1.205245
     19          1           0        1.189441   -0.503497   -2.154202
     20          6           0        3.828940   -0.502741    0.006338
     21          1           0        3.677424   -0.501477    2.164168
     22          1           0        3.681197   -0.504590   -2.151735
     23          6           0        5.368939   -0.503352    0.007760
     24          1           0        5.725203   -1.512295    0.010652
     25          1           0        5.726612   -0.001311   -0.866839
     26          1           0        5.725000    0.003127    0.880457
     27         17           0       -7.793606   -0.434233    0.107928
 ---------------------------------------------------------------------
                    Distance matrix (angstroms):
                    1          2          3          4          5
     1  C    0.000000
     2  C    1.397384   0.000000
     3  C    2.423205   1.403451   0.000000
     4  C    2.798124   2.422073   1.390941   0.000000
     5  C    2.421968   2.795257   2.415365   1.399257   0.000000
     6  C    1.398207   2.420541   2.793413   2.423402   1.398420
     7  H    1.093494   2.162905   3.415478   3.891618   3.413082
     8  H    2.163349   1.094883   2.171296   3.414038   3.890139
     9  H    3.890352   3.412318   2.155808   1.092229   2.163558
    10  H    3.413069   3.888910   3.405877   2.164002   1.093653
    11  C    3.805452   2.505965   1.542023   2.582240   3.856430
    12  C    4.955199   3.606095   2.740893   3.681334   5.010897
    13  C    6.459440   5.086300   4.282068   5.159902   6.518499
    14  C    7.054530   5.665332   5.135421   6.191187   7.484206
    15  C    7.435193   6.112265   5.111179   5.721346   7.118525
    16  C    8.449913   7.058812   6.499459   7.498920   8.821857
    17  H    6.587476   5.229709   4.950895   6.145499   7.336235
    18  C    8.770639   7.422750   6.480869   7.116542   8.514363
    19  H    7.296215   6.061368   4.906905   5.272748   6.656861
    20  C    9.216058   7.828813   7.072698   7.896355   9.274699
    21  H    9.053370   7.678571   7.266598   8.347484   9.628117
    22  H    9.581158   8.267189   7.236571   7.727564   9.121058
    23  C   10.744321   9.353875   8.612666   9.420527  10.803682
    24  H   11.103330   9.710088   9.026092   9.870910  11.245731
    25  H   11.253782   9.881471   9.020925   9.700385  11.096407
    26  H   11.075519   9.687376   9.030622   9.905947  11.268300
    27  Cl   2.741053   4.041803   4.553274   4.044381   2.741230
                    6          7          8          9         10
     6  C    0.000000
     7  H    2.163297   0.000000
     8  H    3.412940   2.491710   0.000000
     9  H    3.413316   4.983846   4.316107   0.000000
    10  H    2.163419   4.315986   4.983792   2.492341   0.000000
    11  C    4.333341   4.667894   2.678077   2.805031   4.742240
    12  C    5.532432   5.753890   3.538295   3.675373   5.839617
    13  C    7.073683   7.202672   4.859699   4.998166   7.297294
    14  C    7.856649   7.647721   5.194844   6.173917   8.344249
    15  C    7.870376   8.267250   6.033106   5.308923   7.755100
    16  C    9.241382   9.032166   6.566433   7.386755   9.645513
    17  H    7.525340   7.060178   4.608966   6.310283   8.272277
    18  C    9.253525   9.562783   7.248142   6.681339   9.141181
    19  H    7.551548   8.211460   6.166464   4.703979   7.178949
    20  C    9.864335   9.900164   7.473876   7.601926   9.997716
    21  H    9.941639   9.540161   7.071378   8.314806  10.495562
    22  H    9.961349  10.420647   8.171976   7.172567   9.657366
    23  C   11.404317  11.407184   8.961144   9.087305  11.507104
    24  H   11.806120  11.731911   9.269876   9.570815  11.971624
    25  H   11.806593  11.984133   9.587217   9.254398  11.720155
    26  H   11.799786  11.683641   9.226417   9.633252  12.008072
    27  Cl   1.760000   2.883385   4.904389   4.904774   2.883303
                   11         12         13         14         15
    11  C    0.000000
    12  C    1.199171   0.000000
    13  C    2.740486   1.541315   0.000000
    14  C    3.645121   2.545531   1.397972   0.000000
    15  C    3.642429   2.542927   1.396141   2.422141   0.000000
    16  C    4.984779   3.832490   2.419314   1.397998   2.795948
    17  H    3.608627   2.743033   2.163703   1.093035   3.412604
    18  C    4.983432   3.831478   2.419207   2.797315   1.398285
    19  H    3.604924   2.740120   2.163180   3.414109   1.094262
    20  C    5.531276   4.332126   2.790865   2.419920   2.419217
    21  H    5.799390   4.707283   3.410902   2.162932   3.889555
    22  H    5.796968   4.705483   3.410504   3.890801   2.163615
    23  C    7.071274   5.872120   4.330841   3.831308   3.830931
    24  H    7.494728   6.307643   4.790715   4.291406   4.292203
    25  H    7.496484   6.310856   4.796847   4.531472   4.036638
    26  H    7.497181   6.311346   4.796921   4.037210   4.530308
    27  Cl   6.092751   7.291684   8.832787   9.591326   9.619283
                   16         17         18         19         20
    16  C    0.000000
    17  H    2.163294   0.000000
    18  C    2.421968   3.890343   0.000000
    19  H    3.890205   4.316402   2.163389   0.000000
    20  C    1.397075   3.411091   1.396940   3.410995   0.000000
    21  H    1.093608   2.491931   3.413020   4.983813   2.163144
    22  H    3.413057   4.983830   1.093486   2.491757   2.163125
    23  C    2.543404   4.705616   2.543256   4.705559   1.540000
    24  H    3.033829   5.124414   3.035100   5.126149   2.148263
    25  H    3.365682   5.481525   2.662855   4.742934   2.148263
    26  H    2.663788   4.743915   3.364901   5.480614   2.148263
    27  Cl  10.981173   9.211340  11.006042   9.263755  11.623191
                   21         22         23         24         25
    21  H    0.000000
    22  H    4.315906   0.000000
    23  C    2.740679   2.740784   0.000000
    24  H    3.138914   3.141552   1.070000   0.000000
    25  H    3.692742   2.467382   1.070000   1.747303   0.000000
    26  H    2.468827   3.691761   1.070000   1.747303   1.747303
    27  Cl  11.654063  11.695388  13.163107  13.562075  13.562223
                   26         27
    26  H    0.000000
    27  Cl  13.547723   0.000000
 Stoichiometry    C15H11Cl
 Framework group  C1[X(C15H11Cl)]
 Deg. of freedom    75
 Full point group                 C1      NOp   1
 Largest Abelian subgroup         C1      NOp   1
 Largest concise Abelian subgroup C1      NOp   1
                         Standard orientation:                         
 ---------------------------------------------------------------------
 Center     Atomic      Atomic             Coordinates (Angstroms)
 Number     Number       Type             X           Y           Z
 ---------------------------------------------------------------------
      1          6           0        3.745611   -1.175456    0.250825
      2          6           0        2.349133   -1.136135    0.282201
      3          6           0        1.679272    0.069917    0.024522
      4          6           0        2.401807    1.239769   -0.185494
      5          6           0        3.800087    1.199836   -0.219231
      6          6           0        4.471486   -0.007484   -0.002019
      7          1           0        4.270567   -2.119502    0.420907
      8          1           0        1.780536   -2.050460    0.480892
      9          1           0        1.877445    2.182370   -0.357287
     10          1           0        4.368117    2.113276   -0.416833
     11          6           0        0.138258    0.014263    0.020519
     12          6           0       -1.060888    0.006792    0.018775
     13          6           0       -2.602172   -0.002798    0.016530
     14          6           0       -3.291792   -1.191429   -0.240190
     15          6           0       -3.304622    1.185812    0.223841
     16          6           0       -4.689772   -1.197420   -0.244012
     17          1           0       -2.739865   -2.118409   -0.415721
     18          6           0       -4.702889    1.179549    0.220503
     19          1           0       -2.762982    2.118089    0.410646
     20          6           0       -5.392840   -0.012006   -0.015305
     21          1           0       -5.231743   -2.129293   -0.428019
     22          1           0       -5.254687    2.106485    0.399447
     23          6           0       -6.932808   -0.019064   -0.022271
     24          1           0       -7.293049   -0.215933    0.965843
     25          1           0       -7.292369    0.934043   -0.349688
     26          1           0       -7.282983   -0.780207   -0.687807
     27         17           0        6.230222   -0.056784   -0.046915
 ---------------------------------------------------------------------
 Rotational constants (GHZ):      2.7796631      0.1203562      0.1158023
 Standard basis: 6-31G (6D, 7F)
 There are   170 symmetry adapted cartesian basis functions of A   symmetry.
 There are   170 symmetry adapted basis functions of A   symmetry.
   170 basis functions,   420 primitive gaussians,   170 cartesian basis functions
    59 alpha electrons       59 beta electrons
       nuclear repulsion energy       937.3813198261 Hartrees.
 NAtoms=   27 NActive=   27 NUniq=   27 SFac= 1.00D+00 NAtFMM=   60 NAOKFM=F Big=F
 Integral buffers will be    131072 words long.
 Raffenetti 2 integral format.
 Two-electron integral symmetry is turned on.
 Nuclear repulsion after empirical dispersion term =      937.3624429240 Hartrees.
 One-electron integrals computed using PRISM.
 NBasis=   170 RedAO= T EigKep=  1.92D-04  NBF=   170
 NBsUse=   170 1.00D-06 EigRej= -1.00D+00 NBFU=   170
 ExpMin= 1.43D-01 ExpMax= 2.52D+04 ExpMxC= 3.78D+03 IAcc=1 IRadAn=         1 AccDes= 0.00D+00
 Harris functional with IExCor=  402 and IRadAn=       1 diagonalized for initial guess.
 HarFok:  IExCor=  402 AccDes= 0.00D+00 IRadAn=         1 IDoV= 1 UseB2=F ITyADJ=14
 ICtDFT=  3500011 ScaDFX=  1.000000  1.000000  1.000000  1.000000
 FoFCou: FMM=F IPFlag=           0 FMFlag=      100000 FMFlg1=           0
         NFxFlg=           0 DoJE=T BraDBF=F KetDBF=T FulRan=T
         wScrn=  0.000000 ICntrl=     500 IOpCl=  0 I1Cent=   200000004 NGrid=           0
         NMat0=    1 NMatS0=      1 NMatT0=    0 NMatD0=    1 NMtDS0=    0 NMtDT0=    0
 Petite list used in FoFCou.
 Keep R1 ints in memory in canonical form, NReq=108247985.
 Requested convergence on RMS density matrix=1.00D-08 within 128 cycles.
 Requested convergence on MAX density matrix=1.00D-06.
 Requested convergence on             energy=1.00D-06.
 No special actions if energy rises.
 Integral accuracy reduced to 1.0D-05 until final iterations.
 Initial convergence to 1.0D-05 achieved.  Increase integral accuracy.
 SCF Done:  E(RB3LYP) =  -1038.22549056     A.U. after   15 cycles
            NFock= 15  Conv=0.71D-08     -V/T= 2.0041

 **********************************************************************

            Population analysis using the SCF density.

 **********************************************************************

 Orbital symmetries:
       Occupied  (A) (A) (A) (A) (A) (A) (A) (A) (A) (A) (A) (A)
                 (A) (A) (A) (A) (A) (A) (A) (A) (A) (A) (A) (A)
                 (A) (A) (A) (A) (A) (A) (A) (A) (A) (A) (A) (A)
                 (A) (A) (A) (A) (A) (A) (A) (A) (A) (A) (A) (A)
                 (A) (A) (A) (A) (A) (A) (A) (A) (A) (A) (A)
       Virtual   (A) (A) (A) (A) (A) (A) (A) (A) (A) (A) (A) (A)
                 (A) (A) (A) (A) (A) (A) (A) (A) (A) (A) (A) (A)
                 (A) (A) (A) (A) (A) (A) (A) (A) (A) (A) (A) (A)
                 (A) (A) (A) (A) (A) (A) (A) (A) (A) (A) (A) (A)
                 (A) (A) (A) (A) (A) (A) (A) (A) (A) (A) (A) (A)
                 (A) (A) (A) (A) (A) (A) (A) (A) (A) (A) (A) (A)
                 (A) (A) (A) (A) (A) (A) (A) (A) (A) (A) (A) (A)
                 (A) (A) (A) (A) (A) (A) (A) (A) (A) (A) (A) (A)
                 (A) (A) (A) (A) (A) (A) (A) (A) (A) (A) (A) (A)
                 (A) (A) (A)
 The electronic state is 1-A.
 Alpha  occ. eigenvalues -- -101.53264 -10.25956 -10.23368 -10.22343 -10.21018
 Alpha  occ. eigenvalues --  -10.20905 -10.20856 -10.20749 -10.20258 -10.19640
 Alpha  occ. eigenvalues --  -10.19638 -10.19398 -10.19155 -10.19153 -10.19136
 Alpha  occ. eigenvalues --  -10.17618  -9.46663  -7.23031  -7.21912  -7.21883
 Alpha  occ. eigenvalues --   -0.90317  -0.87076  -0.85278  -0.79249  -0.76887
 Alpha  occ. eigenvalues --   -0.76717  -0.75504  -0.73344  -0.69460  -0.63166
 Alpha  occ. eigenvalues --   -0.61736  -0.61537  -0.59492  -0.54790  -0.52541
 Alpha  occ. eigenvalues --   -0.48509  -0.47729  -0.47430  -0.46182  -0.44927
 Alpha  occ. eigenvalues --   -0.44237  -0.43184  -0.43148  -0.42575  -0.40518
 Alpha  occ. eigenvalues --   -0.39853  -0.38048  -0.37404  -0.37203  -0.35227
 Alpha  occ. eigenvalues --   -0.34842  -0.34826  -0.31677  -0.30285  -0.28170
 Alpha  occ. eigenvalues --   -0.27011  -0.25837  -0.25800  -0.22355
 Alpha virt. eigenvalues --   -0.03847  -0.01693  -0.00649   0.00034   0.02956
 Alpha virt. eigenvalues --    0.06272   0.08768   0.09830   0.10747   0.12023
 Alpha virt. eigenvalues --    0.12830   0.13148   0.14573   0.15722   0.16088
 Alpha virt. eigenvalues --    0.17276   0.17921   0.18420   0.19150   0.19635
 Alpha virt. eigenvalues --    0.20457   0.21983   0.23804   0.28320   0.29256
 Alpha virt. eigenvalues --    0.29378   0.31000   0.32726   0.33543   0.33866
 Alpha virt. eigenvalues --    0.35973   0.41896   0.42159   0.42583   0.44419
 Alpha virt. eigenvalues --    0.48268   0.49460   0.50236   0.51184   0.51643
 Alpha virt. eigenvalues --    0.53308   0.54120   0.54514   0.55314   0.56313
 Alpha virt. eigenvalues --    0.57850   0.58263   0.58677   0.59222   0.59935
 Alpha virt. eigenvalues --    0.60255   0.60748   0.60911   0.61792   0.62682
 Alpha virt. eigenvalues --    0.64011   0.64676   0.64967   0.65544   0.66336
 Alpha virt. eigenvalues --    0.67490   0.69358   0.70526   0.71545   0.74797
 Alpha virt. eigenvalues --    0.75097   0.75678   0.77146   0.77332   0.78661
 Alpha virt. eigenvalues --    0.79710   0.80312   0.83483   0.84109   0.84950
 Alpha virt. eigenvalues --    0.86613   0.87060   0.88452   0.89139   0.89240
 Alpha virt. eigenvalues --    0.94484   0.95283   0.97006   0.97501   0.99093
 Alpha virt. eigenvalues --    0.99480   0.99869   1.02084   1.04521   1.06612
 Alpha virt. eigenvalues --    1.12611   1.13538   1.15405   1.16632   1.18255
 Alpha virt. eigenvalues --    1.19754   1.20483   1.22028   1.23255   1.24906
 Alpha virt. eigenvalues --    1.25834   1.28871   1.36225   1.42753   1.45312
 Alpha virt. eigenvalues --    1.46956   1.47942   1.52281   1.78751   1.87662
 Alpha virt. eigenvalues --    1.91026
          Condensed to atoms (all electrons):
               1          2          3          4          5          6
     1  C    5.025668   0.488360  -0.032645  -0.037796  -0.060797   0.467199
     2  C    0.488360   4.930617   0.509979  -0.076813  -0.038745  -0.047884
     3  C   -0.032645   0.509979   4.799030   0.522543  -0.020127  -0.032094
     4  C   -0.037796  -0.076813   0.522543   4.913239   0.478345  -0.048433
     5  C   -0.060797  -0.038745  -0.020127   0.478345   5.034857   0.468021
     6  C    0.467199  -0.047884  -0.032094  -0.048433   0.468021   5.288531
     7  H    0.350936  -0.022101   0.003315   0.000872   0.003509  -0.034827
     8  H   -0.034224   0.354780  -0.030626   0.004760   0.000144   0.004805
     9  H    0.000170   0.004640  -0.031052   0.356391  -0.036020   0.004936
    10  H    0.003530   0.000877   0.002892  -0.021232   0.350792  -0.034308
    11  C    0.008364  -0.020301   0.263858  -0.028108   0.009799   0.001253
    12  C    0.000433   0.001515  -0.110830  -0.002928   0.000566   0.000049
    13  C    0.000002   0.000022   0.000587  -0.000029   0.000002   0.000000
    14  C    0.000000  -0.000002  -0.000005   0.000001   0.000000   0.000000
    15  C    0.000000   0.000001   0.000003  -0.000002   0.000000   0.000000
    16  C    0.000000   0.000000   0.000002   0.000000   0.000000   0.000000
    17  H    0.000000   0.000002  -0.000040   0.000000   0.000000   0.000000
    18  C    0.000000   0.000000   0.000001   0.000000   0.000000   0.000000
    19  H    0.000000   0.000000  -0.000052   0.000003   0.000000   0.000000
    20  C    0.000000   0.000000   0.000000   0.000000   0.000000   0.000000
    21  H    0.000000   0.000000   0.000000   0.000000   0.000000   0.000000
    22  H    0.000000   0.000000   0.000000   0.000000   0.000000   0.000000
    23  C    0.000000   0.000000   0.000000   0.000000   0.000000   0.000000
    24  H    0.000000   0.000000   0.000000   0.000000   0.000000   0.000000
    25  H    0.000000   0.000000   0.000000   0.000000   0.000000   0.000000
    26  H    0.000000   0.000000   0.000000   0.000000   0.000000   0.000000
    27  Cl  -0.068680   0.002525   0.000519   0.002602  -0.068861   0.219529
               7          8          9         10         11         12
     1  C    0.350936  -0.034224   0.000170   0.003530   0.008364   0.000433
     2  C   -0.022101   0.354780   0.004640   0.000877  -0.020301   0.001515
     3  C    0.003315  -0.030626  -0.031052   0.002892   0.263858  -0.110830
     4  C    0.000872   0.004760   0.356391  -0.021232  -0.028108  -0.002928
     5  C    0.003509   0.000144  -0.036020   0.350792   0.009799   0.000566
     6  C   -0.034827   0.004805   0.004936  -0.034308   0.001253   0.000049
     7  H    0.544955  -0.004262   0.000010  -0.000171  -0.000298  -0.000011
     8  H   -0.004262   0.555971  -0.000156   0.000010  -0.004986  -0.002383
     9  H    0.000010  -0.000156   0.559589  -0.004207  -0.006195  -0.002111
    10  H   -0.000171   0.000010  -0.004207   0.543125  -0.000266  -0.000009
    11  C   -0.000298  -0.004986  -0.006195  -0.000266   5.625004   0.545856
    12  C   -0.000011  -0.002383  -0.002111  -0.000009   0.545856   5.619794
    13  C    0.000000  -0.000060  -0.000042   0.000000  -0.108358   0.254005
    14  C    0.000000   0.000004   0.000000   0.000000  -0.000576  -0.024848
    15  C    0.000000   0.000000   0.000003   0.000000   0.000241  -0.023121
    16  C    0.000000   0.000000   0.000000   0.000000   0.000522   0.008720
    17  H    0.000000   0.000005   0.000000   0.000000  -0.001738  -0.005225
    18  C    0.000000   0.000000   0.000000   0.000000   0.000455   0.008535
    19  H    0.000000   0.000000   0.000002   0.000000  -0.001926  -0.005090
    20  C    0.000000   0.000000   0.000000   0.000000   0.000078   0.001865
    21  H    0.000000   0.000000   0.000000   0.000000  -0.000010  -0.000299
    22  H    0.000000   0.000000   0.000000   0.000000  -0.000010  -0.000298
    23  C    0.000000   0.000000   0.000000   0.000000   0.000000  -0.000013
    24  H    0.000000   0.000000   0.000000   0.000000   0.000000   0.000000
    25  H    0.000000   0.000000   0.000000   0.000000   0.000000   0.000000
    26  H    0.000000   0.000000   0.000000   0.000000   0.000000   0.000000
    27  Cl   0.001735  -0.000120  -0.000116   0.001819   0.000006   0.000000
              13         14         15         16         17         18
     1  C    0.000002   0.000000   0.000000   0.000000   0.000000   0.000000
     2  C    0.000022  -0.000002   0.000001   0.000000   0.000002   0.000000
     3  C    0.000587  -0.000005   0.000003   0.000002  -0.000040   0.000001
     4  C   -0.000029   0.000001  -0.000002   0.000000   0.000000   0.000000
     5  C    0.000002   0.000000   0.000000   0.000000   0.000000   0.000000
     6  C    0.000000   0.000000   0.000000   0.000000   0.000000   0.000000
     7  H    0.000000   0.000000   0.000000   0.000000   0.000000   0.000000
     8  H   -0.000060   0.000004   0.000000   0.000000   0.000005   0.000000
     9  H   -0.000042   0.000000   0.000003   0.000000   0.000000   0.000000
    10  H    0.000000   0.000000   0.000000   0.000000   0.000000   0.000000
    11  C   -0.108358  -0.000576   0.000241   0.000522  -0.001738   0.000455
    12  C    0.254005  -0.024848  -0.023121   0.008720  -0.005225   0.008535
    13  C    4.791327   0.525584   0.525795  -0.040674  -0.032555  -0.041091
    14  C    0.525584   4.948900  -0.066794   0.481575   0.348727  -0.046723
    15  C    0.525795  -0.066794   4.948589  -0.046738   0.004403   0.482270
    16  C   -0.040674   0.481575  -0.046738   4.987046  -0.030458  -0.046914
    17  H   -0.032555   0.348727   0.004403  -0.030458   0.573176   0.000567
    18  C   -0.041091  -0.046723   0.482270  -0.046914   0.000567   4.985655
    19  H   -0.032300   0.004412   0.348359   0.000564  -0.000162  -0.030384
    20  C   -0.016193  -0.054956  -0.054957   0.544837   0.003649   0.545280
    21  H    0.003181  -0.030399   0.000757   0.350227  -0.003547   0.004522
    22  H    0.003190   0.000760  -0.030373   0.004517   0.000015   0.350272
    23  C    0.000086   0.006658   0.006667  -0.048460  -0.000163  -0.048390
    24  H    0.000026  -0.000135  -0.000134  -0.002011   0.000003  -0.002005
    25  H    0.000023  -0.000251   0.000217   0.002988   0.000002  -0.002372
    26  H    0.000023   0.000216  -0.000252  -0.002363  -0.000002   0.002976
    27  Cl   0.000000   0.000000   0.000000   0.000000   0.000000   0.000000
              19         20         21         22         23         24
     1  C    0.000000   0.000000   0.000000   0.000000   0.000000   0.000000
     2  C    0.000000   0.000000   0.000000   0.000000   0.000000   0.000000
     3  C   -0.000052   0.000000   0.000000   0.000000   0.000000   0.000000
     4  C    0.000003   0.000000   0.000000   0.000000   0.000000   0.000000
     5  C    0.000000   0.000000   0.000000   0.000000   0.000000   0.000000
     6  C    0.000000   0.000000   0.000000   0.000000   0.000000   0.000000
     7  H    0.000000   0.000000   0.000000   0.000000   0.000000   0.000000
     8  H    0.000000   0.000000   0.000000   0.000000   0.000000   0.000000
     9  H    0.000002   0.000000   0.000000   0.000000   0.000000   0.000000
    10  H    0.000000   0.000000   0.000000   0.000000   0.000000   0.000000
    11  C   -0.001926   0.000078  -0.000010  -0.000010   0.000000   0.000000
    12  C   -0.005090   0.001865  -0.000299  -0.000298  -0.000013   0.000000
    13  C   -0.032300  -0.016193   0.003181   0.003190   0.000086   0.000026
    14  C    0.004412  -0.054956  -0.030399   0.000760   0.006658  -0.000135
    15  C    0.348359  -0.054957   0.000757  -0.030373   0.006667  -0.000134
    16  C    0.000564   0.544837   0.350227   0.004517  -0.048460  -0.002011
    17  H   -0.000162   0.003649  -0.003547   0.000015  -0.000163   0.000003
    18  C   -0.030384   0.545280   0.004522   0.350272  -0.048390  -0.002005
    19  H    0.573129   0.003653   0.000015  -0.003548  -0.000164   0.000003
    20  C    0.003653   4.785029  -0.038264  -0.038217   0.318968  -0.033415
    21  H    0.000015  -0.038264   0.587075  -0.000170  -0.006864   0.000501
    22  H   -0.003548  -0.038217  -0.000170   0.586862  -0.006866   0.000498
    23  C   -0.000164   0.318968  -0.006864  -0.006866   5.132815   0.371885
    24  H    0.000003  -0.033415   0.000501   0.000498   0.371885   0.562641
    25  H   -0.000002  -0.035218   0.000110   0.003951   0.371624  -0.029920
    26  H    0.000002  -0.035210   0.003940   0.000109   0.371609  -0.029936
    27  Cl   0.000000   0.000000   0.000000   0.000000   0.000000   0.000000
              25         26         27
     1  C    0.000000   0.000000  -0.068680
     2  C    0.000000   0.000000   0.002525
     3  C    0.000000   0.000000   0.000519
     4  C    0.000000   0.000000   0.002602
     5  C    0.000000   0.000000  -0.068861
     6  C    0.000000   0.000000   0.219529
     7  H    0.000000   0.000000   0.001735
     8  H    0.000000   0.000000  -0.000120
     9  H    0.000000   0.000000  -0.000116
    10  H    0.000000   0.000000   0.001819
    11  C    0.000000   0.000000   0.000006
    12  C    0.000000   0.000000   0.000000
    13  C    0.000023   0.000023   0.000000
    14  C   -0.000251   0.000216   0.000000
    15  C    0.000217  -0.000252   0.000000
    16  C    0.002988  -0.002363   0.000000
    17  H    0.000002  -0.000002   0.000000
    18  C   -0.002372   0.002976   0.000000
    19  H   -0.000002   0.000002   0.000000
    20  C   -0.035218  -0.035210   0.000000
    21  H    0.000110   0.003940   0.000000
    22  H    0.003951   0.000109   0.000000
    23  C    0.371624   0.371609   0.000000
    24  H   -0.029920  -0.029936   0.000000
    25  H    0.569303  -0.029108   0.000000
    26  H   -0.029108   0.569250   0.000000
    27  Cl   0.000000   0.000000  16.794025
 Mulliken charges:
               1
     1  C   -0.110519
     2  C   -0.087473
     3  C    0.154741
     4  C   -0.063414
     5  C   -0.121483
     6  C   -0.256779
     7  H    0.156338
     8  H    0.156337
     9  H    0.154158
    10  H    0.157149
    11  C   -0.282667
    12  C   -0.264173
    13  C    0.167450
    14  C   -0.092148
    15  C   -0.094934
    16  C   -0.163381
    17  H    0.143341
    18  C   -0.162654
    19  H    0.143485
    20  C    0.103070
    21  H    0.129225
    22  H    0.129308
    23  C   -0.469392
    24  H    0.161999
    25  H    0.148654
    26  H    0.148746
    27  Cl   0.115017
 Sum of Mulliken charges =   0.00000
 Mulliken charges with hydrogens summed into heavy atoms:
               1
     1  C    0.045819
     2  C    0.068864
     3  C    0.154741
     4  C    0.090744
     5  C    0.035665
     6  C   -0.256779
    11  C   -0.282667
    12  C   -0.264173
    13  C    0.167450
    14  C    0.051194
    15  C    0.048551
    16  C   -0.034156
    18  C   -0.033346
    20  C    0.103070
    23  C   -0.009993
    27  Cl   0.115017
 Electronic spatial extent (au):  <R**2>=           8518.0634
 Charge=              0.0000 electrons
 Dipole moment (field-independent basis, Debye):
    X=             -2.9681    Y=              0.0475    Z=              0.0633  Tot=              2.9692
 Quadrupole moment (field-independent basis, Debye-Ang):
   XX=            -95.7689   YY=            -88.3983   ZZ=           -103.8925
   XY=              0.4607   XZ=             -0.1678   YZ=             -0.3328
 Traceless Quadrupole moment (field-independent basis, Debye-Ang):
   XX=              0.2510   YY=              7.6216   ZZ=             -7.8726
   XY=              0.4607   XZ=             -0.1678   YZ=             -0.3328
 Octapole moment (field-independent basis, Debye-Ang**2):
  XXX=           -177.1950  YYY=              0.4761  ZZZ=              0.0375  XYY=              8.2593
  XXY=              1.4990  XXZ=              1.5798  XZZ=              8.9592  YZZ=             -0.5516
  YYZ=             -0.4182  XYZ=            -10.8857
 Hexadecapole moment (field-independent basis, Debye-Ang**3):
 XXXX=         -10734.5432 YYYY=           -546.6054 ZZZZ=           -136.5486 XXXY=             11.5862
 XXXZ=            -10.8561 YYYX=             -1.3456 YYYZ=             -1.7649 ZZZX=             -5.3929
 ZZZY=             -0.4736 XXYY=          -1760.0507 XXZZ=          -1893.5459 YYZZ=           -128.5098
 XXYZ=              3.4531 YYXZ=              2.4019 ZZXY=              1.3025
 N-N= 9.373624429240D+02 E-N=-4.308496138192D+03  KE= 1.033996049958D+03
 Calling FoFJK, ICntrl=      2127 FMM=F ISym2X=0 I1Cent= 0 IOpClX= 0 NMat=1 NMatS=1 NMatT=0.
 ***** Axes restored to original set *****
 -------------------------------------------------------------------
 Center     Atomic                   Forces (Hartrees/Bohr)
 Number     Number              X              Y              Z
 -------------------------------------------------------------------
      1        6          -0.003957704   -0.004613387    0.008353937
      2        6          -0.004387930    0.001188136    0.007634146
      3        6           0.069333518   -0.010746674    0.015378841
      4        6          -0.000510304    0.008893998   -0.010563344
      5        6          -0.005109982    0.001488241   -0.007480127
      6        6           0.031729160    0.000235367   -0.002194876
      7        1           0.002472293    0.001564990   -0.005734392
      8        1          -0.003820363    0.003140098   -0.006329501
      9        1          -0.003087011   -0.001536142    0.004735187
     10        1           0.003113483   -0.002869942    0.005176073
     11        6          -0.099256950    0.002619260   -0.010975177
     12        6           0.098422309   -0.000711473    0.000638971
     13        6          -0.066755666    0.004618438    0.001521770
     14        6           0.001213333   -0.003721989    0.012838655
     15        6           0.001344701   -0.003439839   -0.015057100
     16        6          -0.005957039    0.000606887    0.004838742
     17        1           0.002061425    0.000376688   -0.005619886
     18        6          -0.006022274    0.000711202   -0.004335217
     19        1           0.002344724    0.000273033    0.006326705
     20        6           0.025838720    0.000855837   -0.000051148
     21        1          -0.002648070    0.000547422   -0.004787089
     22        1          -0.002685537    0.000528035    0.004698982
     23        6          -0.034983777    0.001871724   -0.000038930
     24        1           0.009337930   -0.016355920    0.000057780
     25        1           0.008859181    0.006833231   -0.012984315
     26        1           0.008864431    0.006908378    0.012976543
     27       17          -0.025752603    0.000734401    0.000974772
 -------------------------------------------------------------------
 Cartesian Forces:  Max     0.099256950 RMS     0.020829725

 GradGradGradGradGradGradGradGradGradGradGradGradGradGradGradGradGradGrad
 Berny optimization.
 FormGI is forming the generalized inverse of G from B-inverse, IUseBI=4.
 GSVD:  received Info=                   1 from GESDD.
 Internal  Forces:  Max     0.060324044 RMS     0.009298423
 Search for a local minimum.
 Step number   1 out of a maximum of  142
 All quantities printed in internal units (Hartrees-Bohrs-Radians)
 Mixed Optimization -- RFO/linear search
 Second derivative matrix not updated -- first step.
 ITU=  0
     Eigenvalues ---    0.00230   0.00230   0.00230   0.00237   0.01366
     Eigenvalues ---    0.01531   0.01661   0.02077   0.02091   0.02104
     Eigenvalues ---    0.02111   0.02111   0.02116   0.02117   0.02118
     Eigenvalues ---    0.02120   0.02122   0.02125   0.02126   0.02132
     Eigenvalues ---    0.02148   0.02166   0.03985   0.04701   0.07243
     Eigenvalues ---    0.07243   0.15990   0.15994   0.15995   0.15996
     Eigenvalues ---    0.16000   0.16000   0.16000   0.16000   0.16000
     Eigenvalues ---    0.16000   0.16000   0.21985   0.21994   0.22976
     Eigenvalues ---    0.22981   0.23987   0.23992   0.24980   0.24994
     Eigenvalues ---    0.25000   0.25000   0.28340   0.28403   0.28519
     Eigenvalues ---    0.29539   0.34254   0.34325   0.34394   0.34399
     Eigenvalues ---    0.34412   0.34413   0.34464   0.34556   0.37230
     Eigenvalues ---    0.37230   0.37230   0.41551   0.41751   0.42154
     Eigenvalues ---    0.42205   0.45390   0.45833   0.45928   0.45974
     Eigenvalues ---    0.45996   0.46091   0.46204   0.46785   1.05241
 RFO step:  Lambda=-3.22754490D-02 EMin= 2.30000000D-03
 Linear search not attempted -- first point.
 Maximum step size (   0.300) exceeded in Quadratic search.
    -- Step size scaled by   0.955
 Iteration  1 RMS(Cart)=  0.07445435 RMS(Int)=  0.00073125
 Iteration  2 RMS(Cart)=  0.00160466 RMS(Int)=  0.00006314
 Iteration  3 RMS(Cart)=  0.00000382 RMS(Int)=  0.00006313
 Iteration  4 RMS(Cart)=  0.00000000 RMS(Int)=  0.00006313
 Variable       Old X    -DE/DX   Delta X   Delta X   Delta X     New X
                                 (Linear)    (Quad)   (Total)
    R1        2.64067  -0.00114   0.00000  -0.00229  -0.00229   2.63838
    R2        2.64223   0.00040   0.00000   0.00021   0.00024   2.64246
    R3        2.06640  -0.00638   0.00000  -0.01618  -0.01618   2.05023
    R4        2.65214   0.00429   0.00000   0.00897   0.00895   2.66109
    R5        2.06903  -0.00801   0.00000  -0.02042  -0.02042   2.04861
    R6        2.62850   0.00900   0.00000   0.01761   0.01759   2.64608
    R7        2.91400  -0.06032   0.00000  -0.18246  -0.18246   2.73154
    R8        2.64421  -0.00146   0.00000  -0.00276  -0.00276   2.64145
    R9        2.06401  -0.00584   0.00000  -0.01476  -0.01476   2.04925
   R10        2.64263  -0.00111   0.00000  -0.00264  -0.00262   2.64002
   R11        2.06671  -0.00665   0.00000  -0.01687  -0.01687   2.04983
   R12        3.32592   0.02578   0.00000   0.07513   0.07513   3.40104
   R13        2.26611   0.03924   0.00000   0.03454   0.03454   2.30064
   R14        2.91266  -0.05919   0.00000  -0.17867  -0.17867   2.73399
   R15        2.64178   0.00547   0.00000   0.01068   0.01065   2.65244
   R16        2.63832   0.00664   0.00000   0.01291   0.01288   2.65120
   R17        2.64183   0.00032   0.00000   0.00059   0.00059   2.64242
   R18        2.06554  -0.00590   0.00000  -0.01494  -0.01494   2.05060
   R19        2.64238   0.00028   0.00000   0.00058   0.00058   2.64295
   R20        2.06786  -0.00665   0.00000  -0.01692  -0.01692   2.05094
   R21        2.64009   0.00705   0.00000   0.01355   0.01357   2.65366
   R22        2.06662  -0.00547   0.00000  -0.01388  -0.01388   2.05274
   R23        2.63983   0.00704   0.00000   0.01355   0.01358   2.65341
   R24        2.06639  -0.00541   0.00000  -0.01373  -0.01373   2.05266
   R25        2.91018  -0.00792   0.00000  -0.02383  -0.02383   2.88635
   R26        2.02201   0.01853   0.00000   0.04374   0.04374   2.06574
   R27        2.02201   0.01678   0.00000   0.03960   0.03960   2.06161
   R28        2.02201   0.01680   0.00000   0.03966   0.03966   2.06167
    A1        2.09366  -0.00178   0.00000  -0.00765  -0.00767   2.08599
    A2        2.09504   0.00154   0.00000   0.00706   0.00707   2.10212
    A3        2.09447   0.00024   0.00000   0.00059   0.00060   2.09508
    A4        2.09099   0.00090   0.00000   0.00460   0.00449   2.09547
    A5        2.09389   0.00000   0.00000   0.00007   0.00006   2.09395
    A6        2.09796  -0.00087   0.00000  -0.00424  -0.00425   2.09371
    A7        2.09733  -0.00209   0.00000  -0.00485  -0.00496   2.09237
    A8        2.03358   0.01138   0.00000   0.03747   0.03750   2.07109
    A9        2.15206  -0.00928   0.00000  -0.03243  -0.03240   2.11966
   A10        2.09293  -0.00001   0.00000   0.00174   0.00161   2.09454
   A11        2.09462   0.00037   0.00000   0.00114   0.00112   2.09575
   A12        2.09507  -0.00032   0.00000  -0.00227  -0.00229   2.09278
   A13        2.09517  -0.00141   0.00000  -0.00576  -0.00580   2.08937
   A14        2.09387   0.00111   0.00000   0.00489   0.00490   2.09877
   A15        2.09414   0.00030   0.00000   0.00088   0.00089   2.09504
   A16        2.09442   0.00449   0.00000   0.01367   0.01367   2.10809
   A17        2.09438  -0.00221   0.00000  -0.00670  -0.00670   2.08769
   A18        2.09438  -0.00229   0.00000  -0.00697  -0.00697   2.08741
   A19        2.09307   0.00069   0.00000   0.00256   0.00256   2.09562
   A20        2.09164   0.00052   0.00000   0.00197   0.00197   2.09361
   A21        2.09779  -0.00119   0.00000  -0.00402  -0.00411   2.09368
   A22        2.09144  -0.00022   0.00000  -0.00123  -0.00130   2.09015
   A23        2.09611  -0.00095   0.00000  -0.00453  -0.00454   2.09157
   A24        2.09540   0.00118   0.00000   0.00604   0.00604   2.10143
   A25        2.09320  -0.00062   0.00000  -0.00254  -0.00261   2.09059
   A26        2.09628  -0.00084   0.00000  -0.00436  -0.00437   2.09191
   A27        2.09347   0.00148   0.00000   0.00717   0.00717   2.10064
   A28        2.09342   0.00428   0.00000   0.01542   0.01544   2.10885
   A29        2.09403  -0.00204   0.00000  -0.00722  -0.00723   2.08680
   A30        2.09573  -0.00224   0.00000  -0.00820  -0.00821   2.08753
   A31        2.09222   0.00444   0.00000   0.01626   0.01628   2.10850
   A32        2.09489  -0.00219   0.00000  -0.00798  -0.00799   2.08690
   A33        2.09607  -0.00225   0.00000  -0.00828  -0.00829   2.08778
   A34        2.09766  -0.00665   0.00000  -0.02325  -0.02322   2.07445
   A35        2.09278   0.00331   0.00000   0.01157   0.01154   2.10432
   A36        2.09274   0.00334   0.00000   0.01168   0.01165   2.10439
   A37        1.91063   0.00316   0.00000   0.01486   0.01473   1.92537
   A38        1.91063   0.00360   0.00000   0.01828   0.01811   1.92874
   A39        1.91063   0.00364   0.00000   0.01847   0.01829   1.92893
   A40        1.91063  -0.00363   0.00000  -0.01884  -0.01896   1.89167
   A41        1.91063  -0.00364   0.00000  -0.01890  -0.01903   1.89161
   A42        1.91063  -0.00312   0.00000  -0.01386  -0.01407   1.89656
   A43        3.17054  -0.00311   0.00000  -0.03772  -0.03774   3.13279
   A44        3.14159   0.00117   0.00000   0.03330   0.03327   3.17486
   A45        3.13228   0.00074   0.00000   0.00959   0.00943   3.14171
   A46        3.14159  -0.00009   0.00000  -0.00007   0.00007   3.14166
    D1        0.02934  -0.00070   0.00000  -0.01405  -0.01412   0.01522
    D2       -3.14082   0.00026   0.00000   0.00331   0.00325  -3.13757
    D3       -3.10907  -0.00086   0.00000  -0.01630  -0.01634  -3.12541
    D4        0.00396   0.00010   0.00000   0.00106   0.00103   0.00499
    D5        0.00343   0.00002   0.00000  -0.00009  -0.00010   0.00333
    D6       -3.13816   0.00001   0.00000   0.00027   0.00028  -3.13788
    D7       -3.14135   0.00019   0.00000   0.00217   0.00212  -3.13923
    D8        0.00024   0.00017   0.00000   0.00254   0.00251   0.00275
    D9       -0.06456   0.00165   0.00000   0.03016   0.03012  -0.03444
   D10        3.09824   0.00132   0.00000   0.02097   0.02084   3.11908
   D11        3.10566   0.00067   0.00000   0.01269   0.01268   3.11835
   D12       -0.01472   0.00034   0.00000   0.00350   0.00340  -0.01132
   D13        0.06660  -0.00175   0.00000  -0.03158  -0.03150   0.03510
   D14       -3.11087  -0.00069   0.00000  -0.01201  -0.01187  -3.12274
   D15       -3.09770  -0.00114   0.00000  -0.02084  -0.02106  -3.11876
   D16        0.00801  -0.00007   0.00000  -0.00126  -0.00143   0.00658
   D17       -0.42138   0.00103   0.00000   0.02124   0.02125  -0.40012
   D18        2.76189   0.00010   0.00000   0.00300   0.00317   2.76506
   D19        2.74721   0.00007   0.00000   0.00154   0.00138   2.74859
   D20       -0.35271  -0.00087   0.00000  -0.01670  -0.01671  -0.36941
   D21       -0.03360   0.00093   0.00000   0.01695   0.01695  -0.01665
   D22        3.10669   0.00096   0.00000   0.01745   0.01745   3.12414
   D23       -3.13930  -0.00015   0.00000  -0.00270  -0.00272   3.14116
   D24        0.00098  -0.00012   0.00000  -0.00220  -0.00221  -0.00123
   D25       -0.00147  -0.00009   0.00000  -0.00121  -0.00119  -0.00266
   D26        3.14013  -0.00008   0.00000  -0.00157  -0.00158   3.13855
   D27        3.14144  -0.00012   0.00000  -0.00171  -0.00170   3.13973
   D28       -0.00016  -0.00011   0.00000  -0.00207  -0.00209  -0.00224
   D29       -3.13968   0.00033   0.00000   0.00458   0.00452  -3.13516
   D30        0.02538  -0.00047   0.00000  -0.00959  -0.00961   0.01577
   D31       -0.03799   0.00103   0.00000   0.01933   0.01933  -0.01866
   D32        3.12707   0.00023   0.00000   0.00517   0.00519   3.13227
   D33        3.14019  -0.00034   0.00000  -0.00480  -0.00474   3.13545
   D34       -0.02477   0.00042   0.00000   0.00865   0.00867  -0.01609
   D35        0.03847  -0.00104   0.00000  -0.01955  -0.01954   0.01892
   D36       -3.12649  -0.00029   0.00000  -0.00611  -0.00613  -3.13262
   D37        0.02003  -0.00056   0.00000  -0.01061  -0.01067   0.00935
   D38       -3.12378  -0.00054   0.00000  -0.01007  -0.01012  -3.13390
   D39        3.13816   0.00020   0.00000   0.00341   0.00340   3.14156
   D40       -0.00565   0.00022   0.00000   0.00395   0.00395  -0.00169
   D41       -0.02094   0.00059   0.00000   0.01100   0.01106  -0.00988
   D42        3.12361   0.00053   0.00000   0.00979   0.00984   3.13345
   D43       -3.13921  -0.00014   0.00000  -0.00227  -0.00226  -3.14147
   D44        0.00535  -0.00020   0.00000  -0.00348  -0.00349   0.00186
   D45       -0.00265   0.00018   0.00000   0.00235   0.00236  -0.00029
   D46        3.13963   0.00054   0.00000   0.01010   0.01006  -3.13349
   D47        3.14116   0.00015   0.00000   0.00180   0.00180  -3.14022
   D48        0.00025   0.00051   0.00000   0.00956   0.00951   0.00976
   D49        0.00308  -0.00018   0.00000  -0.00251  -0.00253   0.00055
   D50       -3.13920  -0.00054   0.00000  -0.01026  -0.01024   3.13375
   D51       -3.14147  -0.00012   0.00000  -0.00130  -0.00131   3.14040
   D52       -0.00057  -0.00048   0.00000  -0.00906  -0.00901  -0.00958
   D53        1.56870  -0.00018   0.00000  -0.00394  -0.00400   1.56471
   D54       -2.62009  -0.00049   0.00000  -0.00672  -0.00681  -2.62690
   D55       -0.52569   0.00012   0.00000  -0.00120  -0.00122  -0.52691
   D56       -1.57220   0.00018   0.00000   0.00380   0.00385  -1.56835
   D57        0.52219  -0.00013   0.00000   0.00102   0.00104   0.52323
   D58        2.61659   0.00048   0.00000   0.00655   0.00663   2.62322
         Item               Value     Threshold  Converged?
 Maximum Force            0.060324     0.000450     NO 
 RMS     Force            0.009298     0.000300     NO 
 Maximum Displacement     0.245032     0.001800     NO 
 RMS     Displacement     0.075215     0.001200     NO 
 Predicted change in Energy=-1.766864D-02
 GradGradGradGradGradGradGradGradGradGradGradGradGradGradGradGradGradGrad

                          Input orientation:                          
 ---------------------------------------------------------------------
 Center     Atomic      Atomic             Coordinates (Angstroms)
 Number     Number       Type             X           Y           Z
 ---------------------------------------------------------------------
      1          6           0       -5.202069   -0.951306    1.166777
      2          6           0       -3.807514   -0.965982    1.101233
      3          6           0       -3.150556   -0.495994   -0.052245
      4          6           0       -3.898918   -0.052483   -1.149489
      5          6           0       -5.295056   -0.037173   -1.083207
      6          6           0       -5.938306   -0.484512    0.073438
      7          1           0       -5.714161   -1.297945    2.058227
      8          1           0       -3.229523   -1.329826    1.943118
      9          1           0       -3.396345    0.293656   -2.045911
     10          1           0       -5.878205    0.320822   -1.924873
     11          6           0       -1.705295   -0.498657   -0.076660
     12          6           0       -0.487909   -0.504924   -0.087296
     13          6           0        0.958399   -0.512733   -0.051815
     14          6           0        1.631767   -0.501630    1.179678
     15          6           0        1.688595   -0.500918   -1.249714
     16          6           0        3.029823   -0.501459    1.206230
     17          1           0        1.064928   -0.502022    2.104989
     18          6           0        3.086652   -0.501062   -1.211107
     19          1           0        1.166144   -0.501085   -2.200997
     20          6           0        3.772230   -0.500995    0.014269
     21          1           0        3.547759   -0.500121    2.161065
     22          1           0        3.648573   -0.499585   -2.140686
     23          6           0        5.299164   -0.511465    0.050172
     24          1           0        5.671509   -1.539189    0.060626
     25          1           0        5.705594   -0.007155   -0.827707
     26          1           0        5.664147   -0.004208    0.944448
     27         17           0       -7.735927   -0.459059    0.157291
 ---------------------------------------------------------------------
                    Distance matrix (angstroms):
                    1          2          3          4          5
     1  C    0.000000
     2  C    1.396172   0.000000
     3  C    2.429409   1.408188   0.000000
     4  C    2.805561   2.430758   1.400247   0.000000
     5  C    2.430373   2.801293   2.423278   1.397794   0.000000
     6  C    1.398332   2.414218   2.790605   2.416879   1.397036
     7  H    1.084933   2.159015   3.416034   3.890466   3.410836
     8  H    2.153350   1.084079   2.164021   3.412318   3.885359
     9  H    3.889978   3.414712   2.158393   1.084418   2.154379
    10  H    3.410831   3.885993   3.407931   2.158276   1.084724
    11  C    3.738777   2.454617   1.445470   2.482341   3.756659
    12  C    4.898495   3.555974   2.662893   3.601103   4.931460
    13  C    6.295131   4.924315   4.108989   5.001025   6.355755
    14  C    6.848627   5.459629   4.938450   6.017909   7.301866
    15  C    7.315978   5.995869   4.985112   5.606375   7.001012
    16  C    8.244269   6.853902   6.307208   7.332015   8.646427
    17  H    6.352743   4.996346   4.735399   5.952603   7.129521
    18  C    8.634810   7.286466   6.343954   7.000229   8.395510
    19  H    7.217945   5.988165   4.821935   5.192472   6.573566
    20  C    9.059200   7.671390   6.923108   7.771873   9.145232
    21  H    8.817691   7.445825   7.054515   8.161688   9.430535
    22  H    9.459240   8.143758   7.112648   7.625418   9.017793
    23  C   10.569586   9.178393   8.450355   9.287334  10.665224
    24  H   10.945496   9.553183   8.884247   9.760520  11.127891
    25  H   11.128634   9.753941   8.903465   9.610008  11.003657
    26  H   10.909678   9.521657   8.884494   9.789746  11.145250
    27  Cl   2.771607   4.071907   4.590304   4.073772   2.770320
                    6          7          8          9         10
     6  C    0.000000
     7  H    2.156688   0.000000
     8  H    3.398200   2.487507   0.000000
     9  H    3.399816   4.974878   4.309974   0.000000
    10  H    2.155324   4.302604   4.970061   2.484958   0.000000
    11  C    4.235695   4.611682   2.663384   2.713920   4.636876
    12  C    5.452805   5.704898   3.509913   3.596235   5.754463
    13  C    6.897900   7.042151   4.710211   4.857003   7.137389
    14  C    7.650495   7.441010   4.990080   6.026510   8.167885
    15  C    7.740841   8.147302   5.921921   5.207869   7.641176
    16  C    9.039405   8.821426   6.356777   7.245983   9.478023
    17  H    7.291967   6.825814   4.376502   6.145407   8.069942
    18  C    9.115931   9.422202   7.108450   6.584659   9.030705
    19  H    7.459660   8.131087   6.097736   4.633786   7.097508
    20  C    9.710731   9.736761   7.309718   7.500953   9.877579
    21  H    9.713077   9.296788   6.831359   8.157776  10.306194
    22  H    9.839249  10.292184   8.042075   7.090070   9.564474
    23  C   11.237526  11.222485   8.774478   8.980739  11.380997
    24  H   11.657629  11.562098   9.100329   9.488035  11.865823
    25  H   11.688470  11.849285   9.447923   9.188025  11.640264
    26  H   11.645010  11.505658   9.047208   9.545862  11.898090
    27  Cl   1.799755   2.899107   4.924945   4.924698   2.897370
                   11         12         13         14         15
    11  C    0.000000
    12  C    1.217449   0.000000
    13  C    2.663847   1.446764   0.000000
    14  C    3.565723   2.469465   1.403610   0.000000
    15  C    3.590899   2.467469   1.402957   2.430056   0.000000
    16  C    4.905829   3.748021   2.423552   1.398308   2.798313
    17  H    3.526150   2.686526   2.159459   1.085130   3.412182
    18  C    4.924402   3.747059   2.423542   2.798668   1.398590
    19  H    3.571831   2.683959   2.159231   3.412589   1.085309
    20  C    5.478281   4.261352   2.814632   2.437162   2.437045
    21  H    5.709815   4.619715   3.406139   2.152707   3.884572
    22  H    5.737954   4.618108   3.405964   3.884884   2.152986
    23  C    7.005619   5.788709   4.341963   3.837405   3.837450
    24  H    7.451094   6.247401   4.824900   4.318370   4.319561
    25  H    7.465046   6.257432   4.836680   4.568387   4.069173
    26  H    7.456260   6.258035   4.836859   4.069748   4.567940
    27  Cl   6.035298   7.252288   8.697006   9.423416   9.529062
                   16         17         18         19         20
    16  C    0.000000
    17  H    2.160690   0.000000
    18  C    2.418005   3.883794   0.000000
    19  H    3.883619   4.307175   2.160610   0.000000
    20  C    1.404258   3.420613   1.404124   3.420393   0.000000
    21  H    1.086264   2.483465   3.403551   4.969877   2.158499
    22  H    3.403631   4.970008   1.086220   2.483163   2.158500
    23  C    2.546857   4.706497   2.546790   4.706349   1.527392
    24  H    3.060686   5.145457   3.062107   5.146933   2.165007
    25  H    3.397202   5.511930   2.692544   4.768280   2.165801
    26  H    2.693594   4.769433   3.396581   5.511147   2.165959
    27  Cl  10.816813   9.013901  10.908826   9.209242  11.509122
                   21         22         23         24         25
    21  H    0.000000
    22  H    4.302932   0.000000
    23  C    2.742885   2.743072   0.000000
    24  H    3.162565   3.165252   1.093145   0.000000
    25  H    3.719142   2.489525   1.090956   1.771278   0.000000
    26  H    2.491020   3.718331   1.090987   1.771259   1.772642
    27  Cl  11.460295  11.614180  13.035636  13.451222  13.485136
                   26         27
    26  H    0.000000
    27  Cl  13.430878   0.000000
 Stoichiometry    C15H11Cl
 Framework group  C1[X(C15H11Cl)]
 Deg. of freedom    75
 Full point group                 C1      NOp   1
 Largest Abelian subgroup         C1      NOp   1
 Largest concise Abelian subgroup C1      NOp   1
                         Standard orientation:                         
 ---------------------------------------------------------------------
 Center     Atomic      Atomic             Coordinates (Angstroms)
 Number     Number       Type             X           Y           Z
 ---------------------------------------------------------------------
      1          6           0        3.656594   -1.188065    0.244670
      2          6           0        2.261478   -1.137719    0.265025
      3          6           0        1.595876    0.078924    0.020596
      4          6           0        2.335943    1.246596   -0.201965
      5          6           0        3.732650    1.195659   -0.223077
      6          6           0        4.384643   -0.019882   -0.001549
      7          1           0        4.175418   -2.125133    0.417314
      8          1           0        1.689780   -2.038165    0.458891
      9          1           0        1.826593    2.188524   -0.373126
     10          1           0        4.309491    2.094816   -0.411218
     11          6           0        0.150455    0.090781    0.021076
     12          6           0       -1.066992    0.090255    0.023538
     13          6           0       -2.512950    0.042329    0.017640
     14          6           0       -3.175448   -1.169793   -0.231315
     15          6           0       -3.253589    1.214582    0.231096
     16          6           0       -4.573210   -1.207045   -0.243116
     17          1           0       -2.600515   -2.073605   -0.404758
     18          6           0       -4.651248    1.165437    0.217305
     19          1           0       -2.739509    2.152525    0.415160
     20          6           0       -5.326043   -0.042884   -0.019707
     21          1           0       -5.082741   -2.148214   -0.428986
     22          1           0       -5.221297    2.073685    0.390520
     23          6           0       -6.852628   -0.092379   -0.023452
     24          1           0       -7.228032   -0.301689    0.981649
     25          1           0       -7.265190    0.862294   -0.352963
     26          1           0       -7.208185   -0.876362   -0.693677
     27         17           0        6.183000   -0.082909   -0.034082
 ---------------------------------------------------------------------
 Rotational constants (GHZ):      2.7666481      0.1239462      0.1190920
 Standard basis: 6-31G (6D, 7F)
 There are   170 symmetry adapted cartesian basis functions of A   symmetry.
 There are   170 symmetry adapted basis functions of A   symmetry.
   170 basis functions,   420 primitive gaussians,   170 cartesian basis functions
    59 alpha electrons       59 beta electrons
       nuclear repulsion energy       943.4480335431 Hartrees.
 NAtoms=   27 NActive=   27 NUniq=   27 SFac= 1.00D+00 NAtFMM=   60 NAOKFM=F Big=F
 Integral buffers will be    131072 words long.
 Raffenetti 2 integral format.
 Two-electron integral symmetry is turned on.
 Nuclear repulsion after empirical dispersion term =      943.4289061127 Hartrees.
 One-electron integrals computed using PRISM.
 NBasis=   170 RedAO= T EigKep=  1.53D-04  NBF=   170
 NBsUse=   170 1.00D-06 EigRej= -1.00D+00 NBFU=   170
 Initial guess from the checkpoint file:  "D:\User Dont delete\Downloads\molecule_24.chk"
 B after Tr=     0.000000    0.000000    0.000000
         Rot=    1.000000    0.000412    0.000196   -0.000469 Ang=   0.08 deg.
 ExpMin= 1.43D-01 ExpMax= 2.52D+04 ExpMxC= 3.78D+03 IAcc=1 IRadAn=         1 AccDes= 0.00D+00
 Harris functional with IExCor=  402 and IRadAn=       1 diagonalized for initial guess.
 HarFok:  IExCor=  402 AccDes= 0.00D+00 IRadAn=         1 IDoV= 1 UseB2=F ITyADJ=14
 ICtDFT=  3500011 ScaDFX=  1.000000  1.000000  1.000000  1.000000
 FoFCou: FMM=F IPFlag=           0 FMFlag=      100000 FMFlg1=           0
         NFxFlg=           0 DoJE=T BraDBF=F KetDBF=T FulRan=T
         wScrn=  0.000000 ICntrl=     500 IOpCl=  0 I1Cent=   200000004 NGrid=           0
         NMat0=    1 NMatS0=      1 NMatT0=    0 NMatD0=    1 NMtDS0=    0 NMtDT0=    0
 Petite list used in FoFCou.
 Keep R1 ints in memory in canonical form, NReq=108247985.
 Requested convergence on RMS density matrix=1.00D-08 within 128 cycles.
 Requested convergence on MAX density matrix=1.00D-06.
 Requested convergence on             energy=1.00D-06.
 No special actions if energy rises.
 Integral accuracy reduced to 1.0D-05 until final iterations.
 Initial convergence to 1.0D-05 achieved.  Increase integral accuracy.
 SCF Done:  E(RB3LYP) =  -1038.24509182     A.U. after   13 cycles
            NFock= 13  Conv=0.66D-08     -V/T= 2.0040
 Calling FoFJK, ICntrl=      2127 FMM=F ISym2X=0 I1Cent= 0 IOpClX= 0 NMat=1 NMatS=1 NMatT=0.
 ***** Axes restored to original set *****
 -------------------------------------------------------------------
 Center     Atomic                   Forces (Hartrees/Bohr)
 Number     Number              X              Y              Z
 -------------------------------------------------------------------
      1        6          -0.002720218   -0.001315750    0.001944626
      2        6          -0.007354990    0.001987211    0.000726534
      3        6           0.025079775   -0.005017787    0.004933465
      4        6          -0.006836201    0.003155831   -0.002512519
      5        6          -0.002823127    0.000274197   -0.002532500
      6        6           0.015360933    0.000117338   -0.000640565
      7        1           0.000167805    0.000049275   -0.000959639
      8        1           0.000199161    0.000539969   -0.000470531
      9        1           0.000080009   -0.000008159    0.000698214
     10        1           0.000100106   -0.000567183    0.000663439
     11        6          -0.016058427    0.000603071   -0.002937962
     12        6           0.015863130   -0.000545357    0.002199296
     13        6          -0.025066731    0.002792313   -0.001652445
     14        6           0.008166257   -0.002138559    0.003489556
     15        6           0.009082380   -0.001638025   -0.003416039
     16        6          -0.004169560    0.000219380    0.000316383
     17        1          -0.000077371    0.000219422   -0.000763664
     18        6          -0.004192511    0.000259118   -0.000477283
     19        1          -0.000089135    0.000146543    0.000895132
     20        6           0.009796174    0.000547661    0.000169299
     21        1           0.000123126    0.000368915   -0.000192441
     22        1           0.000161227    0.000337962    0.000175067
     23        6          -0.013298738    0.000716642   -0.000300679
     24        1           0.002663197   -0.002145740    0.000075876
     25        1           0.002459412    0.000459781   -0.001583898
     26        1           0.002382363    0.000466479    0.001689810
     27       17          -0.008998044    0.000115452    0.000463468
 -------------------------------------------------------------------
 Cartesian Forces:  Max     0.025079775 RMS     0.005911701

 GradGradGradGradGradGradGradGradGradGradGradGradGradGradGradGradGradGrad
 Berny optimization.
 Using GEDIIS/GDIIS optimizer.
 FormGI is forming the generalized inverse of G from B-inverse, IUseBI=4.
 GSVD:  received Info=                   1 from GESDD.
 Internal  Forces:  Max     0.012215584 RMS     0.002455361
 Search for a local minimum.
 Step number   2 out of a maximum of  142
 All quantities printed in internal units (Hartrees-Bohrs-Radians)
 Mixed Optimization -- RFO/linear search
 Update second derivatives using D2CorX and points    1    2
 DE= -1.96D-02 DEPred=-1.77D-02 R= 1.11D+00
 TightC=F SS=  1.41D+00  RLast= 3.11D-01 DXNew= 5.0454D-01 9.3384D-01
 Trust test= 1.11D+00 RLast= 3.11D-01 DXMaxT set to 5.05D-01
 ITU=  1  0
 Use linear search instead of GDIIS.
     Eigenvalues ---    0.00230   0.00230   0.00232   0.00237   0.01351
     Eigenvalues ---    0.01514   0.01660   0.02077   0.02091   0.02104
     Eigenvalues ---    0.02111   0.02112   0.02116   0.02117   0.02118
     Eigenvalues ---    0.02120   0.02122   0.02125   0.02127   0.02131
     Eigenvalues ---    0.02149   0.02166   0.03941   0.04732   0.07023
     Eigenvalues ---    0.07065   0.15768   0.15999   0.15999   0.15999
     Eigenvalues ---    0.16000   0.16000   0.16000   0.16000   0.16000
     Eigenvalues ---    0.16000   0.16004   0.21231   0.21999   0.22001
     Eigenvalues ---    0.23027   0.23577   0.24009   0.24844   0.24999
     Eigenvalues ---    0.24999   0.25001   0.27095   0.28372   0.29015
     Eigenvalues ---    0.29787   0.34277   0.34333   0.34393   0.34405
     Eigenvalues ---    0.34409   0.34452   0.34519   0.34629   0.37212
     Eigenvalues ---    0.37230   0.37253   0.41593   0.41732   0.42159
     Eigenvalues ---    0.42887   0.45388   0.45826   0.45868   0.45973
     Eigenvalues ---    0.46044   0.46073   0.46139   0.46768   1.05552
 RFO step:  Lambda=-3.42597453D-03 EMin= 2.29969356D-03
 Quartic linear search produced a step of  0.23324.
 Maximum step size (   0.505) exceeded in Quadratic search.
    -- Step size scaled by   0.848
 Iteration  1 RMS(Cart)=  0.20458374 RMS(Int)=  0.02790204
 Iteration  2 RMS(Cart)=  0.20328759 RMS(Int)=  0.01109739
 Iteration  3 RMS(Cart)=  0.11282348 RMS(Int)=  0.00170994
 Iteration  4 RMS(Cart)=  0.00507465 RMS(Int)=  0.00071513
 Iteration  5 RMS(Cart)=  0.00000247 RMS(Int)=  0.00071513
 Iteration  6 RMS(Cart)=  0.00000001 RMS(Int)=  0.00071513
 Variable       Old X    -DE/DX   Delta X   Delta X   Delta X     New X
                                 (Linear)    (Quad)   (Total)
    R1        2.63838  -0.00044  -0.00053  -0.00079  -0.00132   2.63706
    R2        2.64246  -0.00178   0.00006  -0.00469  -0.00465   2.63781
    R3        2.05023  -0.00088  -0.00377  -0.00024  -0.00402   2.04621
    R4        2.66109   0.00390   0.00209   0.00829   0.01039   2.67148
    R5        2.04861  -0.00044  -0.00476   0.00172  -0.00304   2.04558
    R6        2.64608   0.00747   0.00410   0.01471   0.01882   2.66490
    R7        2.73154  -0.01222  -0.04256  -0.01530  -0.05790   2.67364
    R8        2.64145  -0.00071  -0.00064  -0.00112  -0.00177   2.63968
    R9        2.04925  -0.00054  -0.00344   0.00058  -0.00287   2.04639
   R10        2.64002  -0.00194  -0.00061  -0.00457  -0.00520   2.63482
   R11        2.04983  -0.00076  -0.00394   0.00025  -0.00369   2.04614
   R12        3.40104   0.00901   0.01752   0.01970   0.03723   3.43827
   R13        2.30064   0.00380   0.00806  -0.00020   0.00783   2.30847
   R14        2.73399  -0.01210  -0.04167  -0.01541  -0.05702   2.67697
   R15        2.65244   0.00542   0.00249   0.01121   0.01369   2.66613
   R16        2.65120   0.00600   0.00300   0.01213   0.01513   2.66633
   R17        2.64242  -0.00202   0.00014  -0.00467  -0.00453   2.63789
   R18        2.05060  -0.00061  -0.00348   0.00040  -0.00309   2.04751
   R19        2.64295  -0.00206   0.00013  -0.00472  -0.00459   2.63836
   R20        2.05094  -0.00074  -0.00395   0.00029  -0.00366   2.04728
[...]
 4937,0.01087934,-0.01413044,0.00824751,-0.00513132,0.01377946,0.008080
 84,-0.00395801,-0.00861010,-0.07739774,0.03645534,0.00045209,0.0074431
 7,0.00111404,0.00941377,-0.07802043,0.03688683,-0.00023945,0.00749287,
 0.00110689,-0.00520216,0.19711707,0.00001239,-0.00000147,0.00000737,-0
 .00003780,-0.00000035,-0.00000914,0.00002567,0.00001148,0.00003489,0.0
 0002063,-0.00000137,-0.00000373,-0.00001601,-0.00000579,0.00001610,0.0
 0001193,0.00000365,-0.00001784,-0.00000165,-0.00000010,0.00000110,0.00
 000025,0.00000050,0.00000310,0.00000187,0.00000144,0.00000454,-0.00000
 086,0.00000038,-0.00000080,-0.00001819,-0.00011318,0.00064656,-0.00000
 197,0.00004773,-0.00117059,-0.00017336,0.01087758,-0.06468477,0.073709
 46,-0.00434222,0.03099462,-0.07353568,-0.00474808,0.03156617,0.0474411
 4,0.03537437,-0.26486364,-0.00179112,0.00122907,0.00184808,-0.04764579
 ,0.03796734,-0.26361905,0.00185650,0.00099309,0.00178922,-0.00096749,-
 0.09051395,0.65757989,-0.00001292,-0.00000354,0.00001220,-0.00010758,0
 .00000849,-0.00004245,0.00019898,-0.00001319,0.00008499,-0.00006602,-0
 .00000393,0.00001785,-0.00001283,0.00000032,0.00000244,0.00006164,0.00
 000020,-0.00000030,-0.00001646,-0.00000077,0.00000353,0.00001259,0.000
 00188,-0.00000826,0.00001423,-0.00000269,0.00001276,-0.00000971,0.0000
 0071,-0.00000401,-0.00043835,-0.00001038,0.00006914,-0.00038863,0.0002
 1141,-0.00134010,-0.00462259,-0.00035013,0.00176476,-0.01268995,0.0057
 0966,-0.03024467,-0.00047847,-0.00013114,0.00072240,-0.12844447,0.0213
 3723,-0.11809201,0.00057584,-0.00006928,0.00046432,-0.00128096,-0.0006
 4583,0.00320358,0.00007048,0.00001804,-0.00010690,0.00953113,-0.003079
 15,0.01618140,0.13653514,0.00000156,0.00000474,0.00000313,0.00000504,0
 .00000596,0.00000368,-0.00001517,-0.00001283,-0.00000043,0.00000552,-0
 .00001443,-0.00000395,0.00000139,-0.00000474,-0.00000338,-0.00000810,0
 .00000046,0.00000011,0.00000091,0.00000161,-0.00000034,-0.00000106,0.0
 0000413,0.00000126,-0.00000099,0.00000463,0.00000015,0.00000074,0.0000
 0206,0.00000102,-0.00000176,-0.00016175,-0.00002303,0.00000230,0.00045
 819,0.00006433,-0.00024577,0.00729438,0.00100775,-0.00076251,0.0033134
 4,-0.00011162,-0.00022209,-0.00027698,-0.00009571,0.02144659,-0.045945
 41,0.04073123,0.00007679,-0.00413572,-0.00094726,-0.00066615,0.0058932
 7,0.00177507,0.00002366,-0.00120240,-0.00023052,0.00264962,0.00332319,
 0.00446565,-0.02278493,0.03481571,-0.00000872,0.00000290,-0.00001242,-
 0.00003883,0.00000366,-0.00001221,0.00011540,-0.00000019,-0.00000688,-
 0.00003944,-0.00000411,0.00000534,-0.00000828,-0.00000334,0.00001387,0
 .00005364,0.00000026,-0.00000032,-0.00000625,-0.00000050,0.00000411,0.
 00000743,0.00000172,-0.00000376,0.00000668,-0.00000018,0.00000508,-0.0
 0000509,0.00000116,-0.00000394,-0.00005365,-0.00002307,-0.00003896,0.0
 0002091,0.00006510,0.00006482,0.00104028,0.00097717,0.00206191,0.00417
 943,0.00004767,0.00334422,0.00098098,-0.00011881,0.00028383,-0.1176458
 0,0.04100953,-0.26215841,-0.00041506,-0.00092798,0.00079168,0.00389334
 ,0.00153095,-0.00232156,-0.00012562,-0.00020614,-0.00007323,-0.0172526
 7,0.00437214,-0.01986926,0.12565758,-0.04608466,0.27786043,-0.00001280
 ,0.00000118,-0.00000204,-0.00006595,0.00000280,-0.00001778,0.00019819,
 0.00001895,-0.00008464,-0.00010724,-0.00000767,0.00004298,-0.00001294,
 0.00000116,-0.00001266,0.00006143,0.00000012,0.00000012,-0.00000967,-0
 .00000081,0.00000402,0.00001415,0.00000217,-0.00001290,0.00001260,-0.0
 0000126,0.00000831,-0.00001645,0.00000056,-0.00000349,-0.00043826,0.00
 001538,-0.00006682,-0.00038374,-0.00029387,0.00132621,-0.00463324,0.00
 031546,-0.00174653,-0.00048492,0.00014182,-0.00071742,-0.01259059,-0.0
 0576458,0.03029538,-0.00130830,0.00057242,-0.00322245,0.00007141,-0.00
 002232,0.00010569,-0.12755497,-0.02324895,0.11718858,0.00057580,0.0001
 0503,-0.00045609,0.00953786,0.00307703,-0.01629771,0.00056159,0.000182
 26,-0.00072547,0.13558296,-0.00000176,-0.00000454,-0.00000385,-0.00000
 933,-0.00001453,-0.00000384,0.00002818,-0.00001220,-0.00000184,-0.0000
 0957,0.00000602,0.00000358,-0.00000175,0.00000449,0.00000351,0.0000121
 3,0.00000049,0.00000016,-0.00000118,0.00000199,0.00000132,0.00000153,0
 .00000468,-0.00000033,0.00000174,0.00000409,0.00000182,-0.00000146,0.0
 0000166,-0.00000062,-0.00002148,-0.00016105,-0.00002493,0.00000943,0.0
 0044937,0.00008787,0.00014729,0.00727082,0.00103818,0.00015156,-0.0002
 7468,-0.00012519,0.00080845,0.00329275,0.00011130,0.00080534,0.0059203
 2,0.00145995,-0.00002385,-0.00120007,-0.00021235,-0.02298263,-0.047091
 11,0.04400411,-0.00008070,-0.00411511,-0.00098197,-0.00382615,0.003226
 26,0.00461900,-0.00009459,0.00022171,0.00027952,0.02466389,0.03600346,
 0.00000831,-0.00000388,0.00001365,0.00003900,-0.00000368,0.00000535,-0
 .00011372,-0.00000207,-0.00000675,0.00003832,0.00000356,-0.00001257,0.
 00000869,0.00000374,-0.00001216,-0.00005311,0.00000001,-0.00000014,0.0
 0000503,0.00000118,-0.00000392,-0.00000661,0.00000001,0.00000511,-0.00
 000737,0.00000137,-0.00000372,0.00000623,-0.00000046,0.00000405,0.0000
 5078,-0.00002495,-0.00003959,-0.00001700,0.00008724,0.00006858,-0.0010
 3416,0.00106864,0.00209675,-0.00099115,-0.00010213,0.00028814,-0.00411
 033,-0.00004842,0.00326608,-0.00387207,0.00170431,-0.00232117,0.000125
 19,-0.00023670,-0.00007658,0.11681617,0.04372790,-0.26190470,0.0004157
 7,-0.00100122,0.00077067,0.01691555,0.00470928,-0.01977622,0.00073547,
 0.00023537,-0.00108819,-0.12472994,-0.04919699,0.27762258,0.00003554,-
 0.00000142,0.00001367,-0.00006314,-0.00001121,0.00005830,0.00024206,-0
 .00001295,-0.00000295,-0.00006336,0.00001086,-0.00005814,0.00003549,0.
 00000368,-0.00001337,-0.00002273,-0.00000024,0.,0.00000045,-0.00000005
 ,0.00000066,-0.00000137,-0.00000039,-0.00000005,-0.00000136,-0.0000003
 8,-0.00000008,0.00000045,0.00000019,-0.00000063,-0.00066050,-0.0000124
 3,-0.00000114,0.00114078,0.00019412,0.00003507,-0.00174721,-0.00013165
 ,-0.00001861,0.00303122,-0.00069785,0.00113909,0.00302809,-0.00022298,
 -0.00134659,-0.02370658,-0.00012434,0.00324127,-0.00009972,0.00014646,
 -0.00015136,-0.02384458,0.00105945,-0.00296761,-0.00010396,0.00008062,
 0.00019474,-0.20914106,0.00259700,0.00072248,0.00114697,0.00070786,-0.
 00123317,0.00114653,0.00020502,0.00140292,0.48790962,-0.00000392,-0.00
 000834,0.00002909,0.00008531,0.00000224,-0.00000463,-0.00028485,0.0000
 3382,0.00000939,0.00008486,-0.00000105,0.00000747,-0.00000442,0.000005
 55,-0.00003085,-0.00007188,0.00000105,0.00000020,0.00000824,0.00000200
 ,-0.00000690,-0.00000470,-0.00000056,0.00000279,-0.00000594,0.00000039
 ,-0.00000414,0.00000810,-0.00000057,0.00000715,0.00039725,0.00006917,0
 .00001084,-0.00051920,-0.00091521,-0.00022404,0.00094473,-0.00082329,-
 0.00009176,-0.00153186,0.00632732,0.00248918,-0.00097621,0.00609819,0.
 00166357,-0.00612031,0.00551794,0.00023866,-0.00039561,0.00000955,-0.0
 0000425,0.00571760,0.00472472,0.00075022,0.00009515,0.00002993,0.00001
 163,-0.00184831,-0.07467340,0.00334164,0.00009545,-0.00340487,-0.00139
 755,0.00050277,-0.00329946,-0.00014160,0.01090748,0.54141401,-0.000001
 90,0.00000447,0.00001012,0.00001521,-0.00000067,-0.00000928,-0.0000551
 6,0.00000886,-0.00001102,0.00001766,0.00000384,-0.00000575,0.00000017,
 -0.00000625,-0.00000386,-0.00001373,0.00000006,0.00000077,0.00000113,0
 .00000061,-0.00000131,-0.00000425,-0.00000174,0.00000389,0.00000223,0.
 00000037,0.00000292,0.00000200,-0.00000033,0.00000130,0.00007759,0.000
 01163,0.00001006,-0.00010140,-0.00022544,0.00022970,0.00018485,-0.0000
 8942,-0.00036728,0.00121570,0.00109626,-0.00445058,-0.00172645,0.00305
 331,-0.00422032,0.03123384,-0.00123411,0.00214828,0.00126594,0.0000630
 6,0.00001039,-0.03121250,0.00222008,0.00306870,-0.00132313,-0.00005675
 ,-0.00000555,-0.00013940,0.00333451,-0.09165447,0.00112589,0.00011236,
 0.00060912,-0.00101122,-0.00165220,0.00051012,0.00228459,-0.00914344,0
 .58779655,-0.00001733,0.00000504,-0.00003232,-0.00005465,0.00000169,-0
 .00002683,0.00015594,-0.00000106,-0.00000048,-0.00005455,-0.00000828,0
 .00002582,-0.00001722,-0.00000711,0.00003199,0.00008407,0.00000030,-0.
 00000011,-0.00000928,-0.00000006,0.00000686,0.00000824,0.00000427,-0.0
 0000395,0.00000826,0.00000253,0.00000520,-0.00000931,0.00000244,-0.000
 00637,-0.00006596,-0.00002584,-0.00000484,-0.00013511,0.00017333,0.000
 03303,0.00004734,0.00022424,0.00004465,-0.00043712,-0.00143560,-0.0005
 1203,-0.00043134,-0.00152399,-0.00004821,-0.00018597,-0.00025029,-0.00
 149392,-0.00011342,0.00002554,0.00006150,-0.00018076,-0.00078340,0.001
 29640,-0.00011326,0.00004658,-0.00004748,-0.01776452,0.03202882,0.0061
 3609,0.00007490,0.00062465,0.00047440,0.00007354,0.00075655,-0.0002147
 9,-0.07234562,0.07910501,0.01510496,0.08362064,0.00001372,-0.00000076,
 0.00000839,-0.00000232,-0.00000121,0.00001818,0.00001881,0.00000250,0.
 00000008,-0.00000187,0.00000599,-0.00001835,0.00001357,0.00000161,-0.0
 0000781,-0.00003041,-0.00000028,-0.00000012,0.00000199,-0.00000078,-0.
 00000161,-0.00000329,-0.00000247,0.00000216,-0.00000325,-0.00000163,-0
 .00000258,0.00000225,-0.00000138,0.00000119,-0.00013289,-0.00000038,0.
 00000399,0.00029216,-0.00005159,-0.00001036,-0.00047389,-0.00000348,-0
 .00019255,0.00070623,-0.00001296,0.00011311,0.00032610,0.00012478,0.00
 011354,-0.00063557,0.00000777,0.00066168,0.00003677,0.00003187,0.00000
 446,0.00000215,0.00046126,-0.00049402,0.00004452,0.00000998,0.00000914
 ,0.00037815,0.00318558,0.00046070,0.00004259,-0.00023106,0.00007073,0.
 00006798,-0.00031333,-0.00010705,0.07536517,-0.26663888,-0.04188104,-0
 .08582485,0.29276871,0.00000233,-0.00000173,0.00000007,0.00000106,-0.0
 0000003,0.00000650,0.00000341,0.00000015,0.00000185,-0.00000170,-0.000
 00011,-0.00000085,0.00000295,0.00000236,-0.00000243,-0.00000594,-0.000
 00018,0.00000065,0.00000110,-0.00000034,-0.00000035,-0.00000051,-0.000
 00046,-0.00000049,-0.00000077,0.,-0.00000136,-0.00000026,-0.00000008,0
 .00000027,-0.00002542,0.00000380,-0.00001932,0.00005625,-0.00001051,-0
 .00000160,-0.00008901,-0.00019420,0.00098284,-0.00090658,0.00046501,-0
 .00045367,0.00110440,-0.00022946,-0.00059512,0.00162811,0.00065004,0.0
 0003555,0.00002815,-0.00004629,-0.00002513,-0.00175000,-0.00048070,-0.
 00041309,-0.00001217,0.00005973,-0.00000302,0.00011073,0.00039919,0.00
 083352,0.00007647,-0.00031598,-0.00021883,-0.00005667,0.00027464,-0.00
 013737,0.01439148,-0.04188767,-0.05545377,-0.01640954,0.04685381,0.056
 51623,-0.00000477,0.00000202,-0.00001439,-0.00002737,0.00000290,-0.000
 00315,0.00008605,-0.00000131,0.00000642,-0.00002868,-0.00000222,0.0000
 1176,-0.00000531,-0.00000052,0.00001147,0.00003439,0.00000002,0.000000
 02,-0.00000354,-0.00000096,0.00000277,0.00000467,-0.00000019,-0.000003
 85,0.00000302,-0.00000186,0.00000053,-0.00000481,0.00000011,-0.0000029
 2,-0.00006410,0.00001065,-0.00000639,0.00002327,-0.00004145,-0.0001062
 3,0.00010098,-0.00011848,-0.00018422,-0.00012430,0.00060701,0.00145516
 ,0.00000349,0.00041664,0.00021805,-0.00551769,-0.00017236,-0.00204633,
 -0.00043009,0.00004768,0.00001931,0.00133568,0.00024913,0.00183413,0.0
 0001863,-0.00001842,-0.00002820,-0.01496599,-0.02048258,0.02654336,0.0
 0006631,-0.00029337,-0.00005684,-0.00020824,-0.00022746,-0.00143346,-0
 .08267003,-0.05691772,0.06476996,0.00397304,0.00654768,-0.00782490,0.0
 9403785,-0.00000265,0.00000243,-0.00001034,-0.00002357,-0.00000037,-0.
 00000006,0.00007957,0.00000083,0.00000259,-0.00002434,-0.00000090,0.00
 000370,-0.00000245,-0.00000272,0.00000905,0.00003043,0.00000003,0.0000
 0021,-0.00000225,-0.00000035,0.00000241,0.00000269,0.00000038,-0.00000
 261,0.00000284,0.00000067,0.00000182,-0.00000337,0.00000076,-0.0000023
 1,-0.00008271,-0.00000302,-0.00000218,0.00008857,-0.00000084,-0.000019
 37,-0.00009434,0.00010394,-0.00050751,0.00088607,0.00003817,0.00013480
 ,-0.00028550,0.00006230,-0.00005110,-0.00004500,0.00033134,-0.00003142
 ,0.00002704,-0.00006735,-0.00002432,0.00041247,0.00040578,0.00024252,-
 0.00002664,-0.00003228,-0.00000652,0.00366644,0.00169746,-0.00192730,0
 .00004917,-0.00002698,-0.00000015,-0.00030681,0.00004666,-0.00048704,-
 0.05922950,-0.14282820,0.11252279,-0.01154513,-0.01961751,0.02442884,0
 .06228506,0.15336129,0.00000968,-0.00000319,0.00000464,0.00000641,-0.0
 0000288,0.00000775,-0.00001358,-0.00000653,-0.00000435,0.00000685,-0.0
 0000046,-0.00001190,0.00000954,0.00000296,-0.00000346,-0.00002780,0.00
 000010,-0.00000016,0.00000172,0.00000125,-0.00000131,-0.00000389,0.000
 00154,0.00000373,-0.00000366,0.00000154,-0.00000199,0.00000257,0.00000
 073,0.00000167,-0.00003385,-0.00000592,-0.00000509,0.00013151,0.000113
 62,0.00007398,-0.00028180,-0.00010214,0.00018691,0.00002678,0.00006439
 ,-0.00005473,0.00060856,-0.00051741,-0.00000574,0.00034673,0.00054625,
 0.00054705,0.00006337,-0.00001476,-0.00000545,-0.00203727,-0.00060210,
 0.00043069,0.00006284,0.00003141,0.00001963,-0.00051900,-0.00095579,-0
 .00052354,-0.00019108,-0.00003049,0.00050643,-0.00000294,0.00047283,0.
 00028649,0.06669980,0.11209824,-0.18379045,-0.00205543,-0.00497339,0.0
 0443664,-0.07411867,-0.12546662,0.19810852,-0.00000536,0.00000368,-0.0
 0001084,-0.00002873,0.00000223,-0.00001167,0.00008600,0.00000122,-0.00
 000678,-0.00002734,0.00000152,0.00000409,-0.00000474,-0.00000336,0.000
 01415,0.00003443,0.00000005,-0.00000014,-0.00000480,-0.00000097,0.0000
 0277,0.00000303,-0.00000153,-0.00000119,0.00000470,-0.00000159,0.00000
 350,-0.00000355,0.00000011,-0.00000292,-0.00006397,0.00000754,0.000010
 01,0.00002344,-0.00007773,0.00008393,0.00010285,-0.00017733,0.00012965
 ,0.00000067,0.00046758,-0.00004936,-0.00012740,0.00109521,-0.00113483,
 0.00133737,0.00090488,-0.00162071,0.00001853,-0.00002750,0.00001940,-0
 .00551802,-0.00091458,0.00186300,-0.00043067,0.00005104,0.00000110,-0.
 01506642,-0.00930553,-0.03215863,-0.00020472,-0.00073746,0.00125434,0.
 00006714,-0.00029349,-0.00005255,-0.08324419,-0.02938726,-0.08173564,0
 .00400538,0.00322091,0.00967161,0.00441738,0.00418602,0.01128572,0.094
 67885,0.00000119,0.00000126,-0.00000718,-0.00002012,-0.00000129,0.0000
 0057,0.00006902,-0.00000115,-0.00000160,-0.00001958,-0.00000030,-0.000
 00303,0.00000111,-0.00000187,0.00000776,0.00001811,0.00000013,-0.00000
 017,-0.00000218,0.00000034,0.00000179,0.00000130,0.00000146,-0.0000004
 7,0.00000108,0.00000047,0.00000132,-0.00000147,0.00000077,-0.00000158,
 -0.00008933,-0.00000610,0.00000213,0.00013057,0.00004124,0.00000600,-0
 .00018935,-0.00009270,0.00039821,-0.00004273,-0.00014051,-0.00000220,0
 .00083343,0.00009694,-0.00008011,-0.00036193,0.00028385,-0.00029900,-0
 .00000171,-0.00001693,-0.00000782,0.00008016,0.00053911,0.00002782,0.0
 0004808,-0.00007276,-0.00000229,0.00321451,0.00040624,0.00226023,-0.00
 028508,0.00007492,0.00040472,-0.00002501,0.00003257,-0.00018616,-0.030
 83237,-0.07164121,-0.06814054,-0.01159464,-0.00972307,-0.02997015,0.00
 810979,0.00652856,0.01934753,0.03098646,0.07369052,-0.00000977,-0.0000
 0112,-0.00000739,-0.00001533,0.00000461,-0.00001141,0.00004176,0.00000
 778,-0.00000245,-0.00001455,-0.00000030,0.00000767,-0.00000992,0.00000
 063,0.00000895,0.00003694,0.00000003,-0.00000038,-0.00000361,-0.000001
 25,0.00000210,0.00000443,-0.00000017,-0.00000280,0.00000461,-0.0000028
 1,0.00000363,-0.00000242,-0.00000043,-0.00000241,0.00000091,0.00000548
 ,-0.00000208,-0.00008903,-0.00012595,0.00003196,0.00022755,-0.00000692
 ,0.00038149,-0.00066815,0.00046137,0.00020037,0.00030064,-0.00001042,-
 0.00010686,0.00204368,0.00054239,0.00054980,-0.00006826,-0.00004568,0.
 00000442,-0.00031546,-0.00054711,0.00033812,-0.00004742,-0.00001174,-0
 .00000019,0.00189018,0.00135853,0.00086740,-0.00010729,-0.00055333,0.0
 0025618,0.00019754,-0.00015328,0.00044479,-0.08439036,-0.06772274,-0.2
 5442880,-0.00236466,-0.00063252,-0.00548689,-0.00904269,-0.00880923,-0
 .02020633,0.09244105,0.07624382,0.27716018,-0.03553182,-0.00085650,0.0
 0415971,0.00349620,0.00081376,-0.00430827,-0.00050202,-0.00000096,0.00
 000365,0.00350685,-0.00081202,0.00428204,-0.03545271,0.00069642,-0.004
 04408,-0.12666446,-0.00020971,0.00013549,0.00083958,0.00005581,-0.0002
 6178,-0.00142136,-0.00005305,0.00026584,-0.00141925,0.00004667,-0.0002
 6118,0.00084306,-0.00004379,0.00026406,0.00022110,0.00000121,0.0000005
 3,-0.00048854,-0.00000103,0.00000063,0.00061405,0.00000627,-0.00000004
 ,-0.00021717,-0.00002263,0.00015957,-0.00021780,0.00003716,-0.00015604
 ,-0.00009758,-0.00004072,0.00022698,0.00006505,-0.00001049,0.00003203,
 -0.00009845,0.00004513,-0.00022573,0.00006492,0.00000198,-0.00003386,0
 .00004934,-0.00008783,-0.00001688,-0.00007614,0.00001048,-0.00006952,-
 0.00007587,-0.00001573,0.00006882,-0.00000178,0.00012023,0.00002306,-0
 .00011590,0.00002759,0.00000544,-0.00004984,-0.00004211,0.00002689,-0.
 00004986,-0.00002930,-0.00004036,0.19278040,0.00467837,0.00367651,0.00
 023567,-0.00027352,0.00423178,0.00145118,-0.00000061,-0.00045425,-0.00
 039986,0.00027495,0.00422924,0.00146741,-0.00483725,0.00366027,0.00023
 281,-0.00021069,-0.02131263,0.00257953,0.00015637,-0.00253890,-0.00062
 779,0.00014537,0.00013792,0.00000869,-0.00015173,0.00013749,0.00000800
 ,-0.00014446,-0.00253942,-0.00062571,0.00000153,-0.00074239,-0.0001911
 2,-0.00000096,0.00004143,0.00000643,0.00000117,0.00002736,0.00000878,-
 0.00000072,0.00000412,0.00000324,0.00000002,0.00000416,0.00000264,-0.0
 0000039,0.00000059,-0.00000008,-0.00000016,-0.00000328,-0.00000144,-0.
 00000018,0.00000085,-0.00000113,0.00000038,-0.00000321,-0.00000163,0.0
 0000038,0.00000027,-0.00000004,-0.00000052,-0.00000123,-0.00000055,0.0
 0000030,-0.00000127,-0.00000027,-0.00000013,-0.00000084,-0.00000028,-0
 .00000076,0.00000074,0.00000031,0.00000020,-0.00000007,-0.00000071,-0.
 00000011,-0.00000050,0.00000035,0.00036316,0.01144524,-0.02508105,0.00
 018372,0.00250876,0.00143566,0.00146121,-0.00319925,0.00000398,-0.0003
 9984,0.00158268,-0.00146195,0.00145726,-0.00320803,0.02519657,0.000284
 79,0.00244307,0.00013494,0.00257951,-0.03445219,-0.00079331,-0.0006285
 9,0.00065533,-0.00078263,0.00000683,0.00009603,0.00078716,0.00000989,0
 .00009440,0.00079626,-0.00062486,0.00065188,0.00000034,-0.00019111,0.0
 0023116,0.00000078,0.00000642,0.00000872,-0.00000099,0.00000877,-0.000
 01737,0.00000225,0.00000282,-0.00001112,-0.00000160,0.00000304,-0.0000
 1057,0.00000070,-0.00000040,0.00000350,0.00000133,-0.00000142,0.000004
 52,-0.00000042,-0.00000081,0.00000410,-0.00000152,-0.00000163,0.000004
 57,-0.00000002,0.00000012,0.00000052,0.00000230,-0.00000041,0.00000094
 ,-0.00000205,-0.00000040,0.00000073,-0.00000002,-0.00000051,0.00000055
 ,0.00000007,0.00000026,-0.00000083,-0.00000072,-0.00000065,0.00000038,
 0.00000093,0.00000042,0.00000094,-0.00023700,-0.00415441,0.03260658||-
 0.00003660,0.00000292,-0.00000395,0.00002898,-0.00000485,-0.00001387,0
 .00000908,0.00001687,0.00000131,0.00000330,-0.00000520,0.00000447,-0.0
 0000741,0.00000021,-0.00000859,0.00003976,-0.00000082,0.00001647,0.000
 00079,-0.00000049,0.00000117,-0.00000333,-0.00000303,0.00000298,0.0000
 0070,-0.00000332,-0.00000096,-0.00000307,0.00000055,0.00000085,0.00002
 444,-0.00000454,-0.00000113,-0.00003401,0.00000216,0.00000624,-0.00000
 371,-0.00000583,-0.00000362,-0.00001636,0.00000689,-0.00000835,-0.0000
 0976,0.00000053,0.00000880,0.00001889,-0.00000204,-0.00000142,0.000002
 71,-0.00000094,0.00000162,0.00001205,0.00000272,-0.00000169,0.00000156
 ,0.00000044,-0.00000155,-0.00003645,-0.00000042,0.00000182,0.00000240,
 -0.00000070,0.00000042,0.00000277,-0.00000206,0.00000005,0.00004038,-0
 .00000477,-0.00000057,-0.00000808,0.00001564,0.00000280,-0.00000816,-0
 .00000695,0.00001015,-0.00000824,-0.00000266,-0.00001143,-0.00001262,-
 0.00000030,-0.00000203|||@


 THE MOST SERIOUS THREAT TO THE SURVIVAL OF MANKIND IS NOT NOW
 IGNORANCE IN THE TRADITIONAL SENSE,
 BUT A MORALLY NEUTRAL, AN INSENSITIVE OR INHIBITED HUMAN INTELLIGENCE.

                     -- MARGO JEFFERSON IN NEWSWEEK, SEPTEMBER 2, 1974
 Job cpu time:       0 days  0 hours  4 minutes 21.0 seconds.
 File lengths (MBytes):  RWF=    119 Int=      0 D2E=      0 Chk=      4 Scr=      1
 Normal termination of Gaussian 09 at Mon Sep 11 20:10:14 2023.
