 Entering Link 1 = C:\G09W\l1.exe PID=     12152.
  
 Copyright (c) 1988,1990,1992,1993,1995,1998,2003,2009,2013,
            Gaussian, Inc.  All Rights Reserved.
  
 This is part of the Gaussian(R) 09 program.  It is based on
 the Gaussian(R) 03 system (copyright 2003, Gaussian, Inc.),
 the Gaussian(R) 98 system (copyright 1998, Gaussian, Inc.),
 the Gaussian(R) 94 system (copyright 1995, Gaussian, Inc.),
 the Gaussian 92(TM) system (copyright 1992, Gaussian, Inc.),
 the Gaussian 90(TM) system (copyright 1990, Gaussian, Inc.),
 the Gaussian 88(TM) system (copyright 1988, Gaussian, Inc.),
 the Gaussian 86(TM) system (copyright 1986, Carnegie Mellon
 University), and the Gaussian 82(TM) system (copyright 1983,
 Carnegie Mellon University). Gaussian is a federally registered
 trademark of Gaussian, Inc.
  
 This software contains proprietary and confidential information,
 including trade secrets, belonging to Gaussian, Inc.
  
 This software is provided under written license and may be
 used, copied, transmitted, or stored only in accord with that
 written license.
  
 The following legend is applicable only to US Government
 contracts under FAR:
  
                    RESTRICTED RIGHTS LEGEND
  
 Use, reproduction and disclosure by the US Government is
 subject to restrictions as set forth in subparagraphs (a)
 and (c) of the Commercial Computer Software - Restricted
 Rights clause in FAR 52.227-19.
  
 Gaussian, Inc.
 340 Quinnipiac St., Bldg. 40, Wallingford CT 06492
  
  
 ---------------------------------------------------------------
 Warning -- This program may not be used in any manner that
 competes with the business of Gaussian, Inc. or will provide
 assistance to any competitor of Gaussian, Inc.  The licensee
 of this program is prohibited from giving any competitor of
 Gaussian, Inc. access to this program.  By using this program,
 the user acknowledges that Gaussian, Inc. is engaged in the
 business of creating and licensing software in the field of
 computational chemistry and represents and warrants to the
 licensee that it is not a competitor of Gaussian, Inc. and that
 it will not use this program in any manner prohibited above.
 ---------------------------------------------------------------
  

 Cite this work as:
 Gaussian 09, Revision D.01,
 M. J. Frisch, G. W. Trucks, H. B. Schlegel, G. E. Scuseria, 
 M. A. Robb, J. R. Cheeseman, G. Scalmani, V. Barone, B. Mennucci, 
 G. A. Petersson, H. Nakatsuji, M. Caricato, X. Li, H. P. Hratchian, 
 A. F. Izmaylov, J. Bloino, G. Zheng, J. L. Sonnenberg, M. Hada, 
 M. Ehara, K. Toyota, R. Fukuda, J. Hasegawa, M. Ishida, T. Nakajima, 
 Y. Honda, O. Kitao, H. Nakai, T. Vreven, J. A. Montgomery, Jr., 
 J. E. Peralta, F. Ogliaro, M. Bearpark, J. J. Heyd, E. Brothers, 
 K. N. Kudin, V. N. Staroverov, T. Keith, R. Kobayashi, J. Normand, 
 K. Raghavachari, A. Rendell, J. C. Burant, S. S. Iyengar, J. Tomasi, 
 M. Cossi, N. Rega, J. M. Millam, M. Klene, J. E. Knox, J. B. Cross, 
 V. Bakken, C. Adamo, J. Jaramillo, R. Gomperts, R. E. Stratmann, 
 O. Yazyev, A. J. Austin, R. Cammi, C. Pomelli, J. W. Ochterski, 
 R. L. Martin, K. Morokuma, V. G. Zakrzewski, G. A. Voth, 
 P. Salvador, J. J. Dannenberg, S. Dapprich, A. D. Daniels, 
 O. Farkas, J. B. Foresman, J. V. Ortiz, J. Cioslowski, 
 and D. J. Fox, Gaussian, Inc., Wallingford CT, 2013.
 
 ******************************************
 Gaussian 09:  EM64W-G09RevD.01 13-Apr-2013
                24-Aug-2023 
 ******************************************
 %nprocshared=2
 Will use up to    2 processors via shared memory.
 %mem=4GB
 %chk=D:\ML\molecule_22.chk
 --------------------------------------------------------------------
 # opt freq b3lyp/6-31+g(d) geom=connectivity empiricaldispersion=gd3
 --------------------------------------------------------------------
 1/14=-1,18=20,19=15,26=3,38=1,57=2/1,3;
 2/9=110,12=2,17=6,18=5,40=1/2;
 3/5=1,6=6,7=11,11=2,16=1,25=1,30=1,71=1,74=-5,124=31/1,2,3;
 4//1;
 5/5=2,38=5/2;
 6/7=2,8=2,9=2,10=2,28=1/1;
 7//1,2,3,16;
 1/14=-1,18=20,19=15,26=3/3(2);
 2/9=110/2;
 99//99;
 2/9=110/2;
 3/5=1,6=6,7=11,11=2,16=1,25=1,30=1,71=1,74=-5,124=31/1,2,3;
 4/5=5,16=3,69=1/1;
 5/5=2,38=5/2;
 7//1,2,3,16;
 1/14=-1,18=20,19=15,26=3/3(-5);
 2/9=110/2;
 6/7=2,8=2,9=2,10=2,19=2,28=1/1;
 99/9=1/99;
 -------------------
 Title Card Required
 -------------------
 Symbolic Z-matrix:
 Charge =  0 Multiplicity = 1
 C                    -5.3914    1.06458  -0.4152 
 C                    -4.512     0.09579  -0.91851 
 C                    -3.24326  -0.06543  -0.34473 
 C                    -2.85308   0.74414   0.73116 
 C                    -3.73251   1.71372   1.23392 
 C                    -5.00143   1.87312   0.66087 
 H                    -6.36004   1.18617  -0.85274 
 H                    -4.80932  -0.52127  -1.74032 
 H                    -1.8845    0.62182   1.1689 
 H                    -3.43463   2.33149   2.0547 
 C                    -2.28207  -1.1298   -0.89666 
 C                    -1.5293   -1.96339  -1.32893 
 C                    -0.56571  -3.03056  -1.88238 
 C                     0.70324  -3.19252  -1.30894 
 C                    -0.95551  -3.8394   -2.95889 
 C                     1.58247  -4.16064  -1.81327 
 H                     1.00078  -2.57707  -0.48599 
 C                    -0.0751   -4.8063   -3.46445 
 H                    -1.92475  -3.71853  -3.39547 
 C                     1.19362  -4.96658  -2.89145 
 H                     2.55094  -4.28358  -1.37526 
 H                    -0.37193  -5.42178  -4.28786 
 C                     2.16163  -6.02744  -3.44743 
 H                     2.76239  -5.59316  -4.21954 
 H                     2.79411  -6.38064  -2.66012 
 H                     1.60148  -6.84548  -3.84964 
 O                    -5.89856   2.86133   1.17364 
 C                    -6.69973   2.28668   2.20972 
 H                    -6.06644   1.93839   2.99872 
 H                    -7.37206   3.02606   2.59215 
 H                    -7.2602    1.46586   1.81356 
 

 GradGradGradGradGradGradGradGradGradGradGradGradGradGradGradGradGradGrad
 Berny optimization.
 Initialization pass.
                           ----------------------------
                           !    Initial Parameters    !
                           ! (Angstroms and Degrees)  !
 --------------------------                            --------------------------
 ! Name  Definition              Value          Derivative Info.                !
 --------------------------------------------------------------------------------
 ! R1    R(1,2)                  1.4019         estimate D2E/DX2                !
 ! R2    R(1,6)                  1.4013         estimate D2E/DX2                !
 ! R3    R(1,7)                  1.0698         estimate D2E/DX2                !
 ! R4    R(2,3)                  1.4018         estimate D2E/DX2                !
 ! R5    R(2,8)                  1.0698         estimate D2E/DX2                !
 ! R6    R(3,4)                  1.4018         estimate D2E/DX2                !
 ! R7    R(3,11)                 1.5367         estimate D2E/DX2                !
 ! R8    R(4,5)                  1.4022         estimate D2E/DX2                !
 ! R9    R(4,9)                  1.0699         estimate D2E/DX2                !
 ! R10   R(5,6)                  1.4014         estimate D2E/DX2                !
 ! R11   R(5,10)                 1.0696         estimate D2E/DX2                !
 ! R12   R(6,27)                 1.4298         estimate D2E/DX2                !
 ! R13   R(11,12)                1.2035         estimate D2E/DX2                !
 ! R14   R(12,13)                1.5407         estimate D2E/DX2                !
 ! R15   R(13,14)                1.4019         estimate D2E/DX2                !
 ! R16   R(13,15)                1.4018         estimate D2E/DX2                !
 ! R17   R(14,16)                1.4017         estimate D2E/DX2                !
 ! R18   R(14,17)                1.0698         estimate D2E/DX2                !
 ! R19   R(15,18)                1.402          estimate D2E/DX2                !
 ! R20   R(15,19)                1.0699         estimate D2E/DX2                !
 ! R21   R(16,20)                1.4012         estimate D2E/DX2                !
 ! R22   R(16,21)                1.07           estimate D2E/DX2                !
 ! R23   R(18,20)                1.4013         estimate D2E/DX2                !
 ! R24   R(18,22)                1.07           estimate D2E/DX2                !
 ! R25   R(20,23)                1.54           estimate D2E/DX2                !
 ! R26   R(23,24)                1.0704         estimate D2E/DX2                !
 ! R27   R(23,25)                1.0699         estimate D2E/DX2                !
 ! R28   R(23,26)                1.0699         estimate D2E/DX2                !
 ! R29   R(27,28)                1.4302         estimate D2E/DX2                !
 ! R30   R(28,29)                1.07           estimate D2E/DX2                !
 ! R31   R(28,30)                1.07           estimate D2E/DX2                !
 ! R32   R(28,31)                1.07           estimate D2E/DX2                !
 ! A1    A(2,1,6)              119.9906         estimate D2E/DX2                !
 ! A2    A(2,1,7)              119.9794         estimate D2E/DX2                !
 ! A3    A(6,1,7)              120.0301         estimate D2E/DX2                !
 ! A4    A(1,2,3)              120.0198         estimate D2E/DX2                !
 ! A5    A(1,2,8)              120.0035         estimate D2E/DX2                !
 ! A6    A(3,2,8)              119.9767         estimate D2E/DX2                !
 ! A7    A(2,3,4)              119.9774         estimate D2E/DX2                !
 ! A8    A(2,3,11)             119.9195         estimate D2E/DX2                !
 ! A9    A(4,3,11)             120.1031         estimate D2E/DX2                !
 ! A10   A(3,4,5)              119.995          estimate D2E/DX2                !
 ! A11   A(3,4,9)              119.9963         estimate D2E/DX2                !
 ! A12   A(5,4,9)              120.0087         estimate D2E/DX2                !
 ! A13   A(4,5,6)              119.9943         estimate D2E/DX2                !
 ! A14   A(4,5,10)             119.9887         estimate D2E/DX2                !
 ! A15   A(6,5,10)             120.017          estimate D2E/DX2                !
 ! A16   A(1,6,5)              120.0228         estimate D2E/DX2                !
 ! A17   A(1,6,27)             119.9708         estimate D2E/DX2                !
 ! A18   A(5,6,27)             120.0064         estimate D2E/DX2                !
 ! A19   A(12,13,14)           119.9475         estimate D2E/DX2                !
 ! A20   A(12,13,15)           120.1075         estimate D2E/DX2                !
 ! A21   A(14,13,15)           119.9451         estimate D2E/DX2                !
 ! A22   A(13,14,16)           120.0271         estimate D2E/DX2                !
 ! A23   A(13,14,17)           119.9953         estimate D2E/DX2                !
 ! A24   A(16,14,17)           119.9776         estimate D2E/DX2                !
 ! A25   A(13,15,18)           120.0152         estimate D2E/DX2                !
 ! A26   A(13,15,19)           120.0068         estimate D2E/DX2                !
 ! A27   A(18,15,19)           119.978          estimate D2E/DX2                !
 ! A28   A(14,16,20)           120.0054         estimate D2E/DX2                !
 ! A29   A(14,16,21)           119.9885         estimate D2E/DX2                !
 ! A30   A(20,16,21)           120.006          estimate D2E/DX2                !
 ! A31   A(15,18,20)           119.9992         estimate D2E/DX2                !
 ! A32   A(15,18,22)           119.9992         estimate D2E/DX2                !
 ! A33   A(20,18,22)           120.0016         estimate D2E/DX2                !
 ! A34   A(16,20,18)           120.0075         estimate D2E/DX2                !
 ! A35   A(16,20,23)           119.9743         estimate D2E/DX2                !
 ! A36   A(18,20,23)           120.0181         estimate D2E/DX2                !
 ! A37   A(20,23,24)           109.4954         estimate D2E/DX2                !
 ! A38   A(20,23,25)           109.4714         estimate D2E/DX2                !
 ! A39   A(20,23,26)           109.4713         estimate D2E/DX2                !
 ! A40   A(24,23,25)           109.4493         estimate D2E/DX2                !
 ! A41   A(24,23,26)           109.444          estimate D2E/DX2                !
 ! A42   A(25,23,26)           109.496          estimate D2E/DX2                !
 ! A43   A(6,27,28)            109.4862         estimate D2E/DX2                !
 ! A44   A(27,28,29)           109.4761         estimate D2E/DX2                !
 ! A45   A(27,28,30)           109.466          estimate D2E/DX2                !
 ! A46   A(27,28,31)           109.4778         estimate D2E/DX2                !
 ! A47   A(29,28,30)           109.4673         estimate D2E/DX2                !
 ! A48   A(29,28,31)           109.4717         estimate D2E/DX2                !
 ! A49   A(30,28,31)           109.4686         estimate D2E/DX2                !
 ! A50   L(3,11,12,8,-1)       179.9993         estimate D2E/DX2                !
 ! A51   L(11,12,13,17,-1)     180.0045         estimate D2E/DX2                !
 ! A52   L(3,11,12,8,-2)       180.0            estimate D2E/DX2                !
 ! A53   L(11,12,13,17,-2)     179.9999         estimate D2E/DX2                !
 ! D1    D(6,1,2,3)              0.0729         estimate D2E/DX2                !
 ! D2    D(6,1,2,8)           -179.9699         estimate D2E/DX2                !
 ! D3    D(7,1,2,3)           -179.917          estimate D2E/DX2                !
 ! D4    D(7,1,2,8)              0.0403         estimate D2E/DX2                !
 ! D5    D(2,1,6,5)              0.01           estimate D2E/DX2                !
 ! D6    D(2,1,6,27)           179.9833         estimate D2E/DX2                !
 ! D7    D(7,1,6,5)            179.9998         estimate D2E/DX2                !
 ! D8    D(7,1,6,27)            -0.0268         estimate D2E/DX2                !
 ! D9    D(1,2,3,4)             -0.1144         estimate D2E/DX2                !
 ! D10   D(1,2,3,11)           179.8916         estimate D2E/DX2                !
 ! D11   D(8,2,3,4)            179.9283         estimate D2E/DX2                !
 ! D12   D(8,2,3,11)            -0.0657         estimate D2E/DX2                !
 ! D13   D(2,3,4,5)              0.0731         estimate D2E/DX2                !
 ! D14   D(2,3,4,9)           -179.9566         estimate D2E/DX2                !
 ! D15   D(11,3,4,5)          -179.9329         estimate D2E/DX2                !
 ! D16   D(11,3,4,9)             0.0374         estimate D2E/DX2                !
 ! D17   D(2,3,13,14)         -179.9906         estimate D2E/DX2                !
 ! D18   D(2,3,13,15)            0.0426         estimate D2E/DX2                !
 ! D19   D(4,3,13,14)            0.0154         estimate D2E/DX2                !
 ! D20   D(4,3,13,15)         -179.9515         estimate D2E/DX2                !
 ! D21   D(3,4,5,6)              0.0097         estimate D2E/DX2                !
 ! D22   D(3,4,5,10)          -179.9883         estimate D2E/DX2                !
 ! D23   D(9,4,5,6)           -179.9606         estimate D2E/DX2                !
 ! D24   D(9,4,5,10)             0.0415         estimate D2E/DX2                !
 ! D25   D(4,5,6,1)             -0.0512         estimate D2E/DX2                !
 ! D26   D(4,5,6,27)           179.9754         estimate D2E/DX2                !
 ! D27   D(10,5,6,1)           179.9467         estimate D2E/DX2                !
 ! D28   D(10,5,6,27)           -0.0266         estimate D2E/DX2                !
 ! D29   D(1,6,27,28)           90.1343         estimate D2E/DX2                !
 ! D30   D(5,6,27,28)          -89.8924         estimate D2E/DX2                !
 ! D31   D(12,13,14,16)       -179.8422         estimate D2E/DX2                !
 ! D32   D(12,13,14,17)          0.1632         estimate D2E/DX2                !
 ! D33   D(15,13,14,16)          0.1246         estimate D2E/DX2                !
 ! D34   D(15,13,14,17)       -179.87           estimate D2E/DX2                !
 ! D35   D(12,13,15,18)        179.7456         estimate D2E/DX2                !
 ! D36   D(12,13,15,19)         -0.2072         estimate D2E/DX2                !
 ! D37   D(14,13,15,18)         -0.2212         estimate D2E/DX2                !
 ! D38   D(14,13,15,19)        179.8261         estimate D2E/DX2                !
 ! D39   D(13,14,16,20)          0.0343         estimate D2E/DX2                !
 ! D40   D(13,14,16,21)        179.9865         estimate D2E/DX2                !
 ! D41   D(17,14,16,20)       -179.9711         estimate D2E/DX2                !
 ! D42   D(17,14,16,21)         -0.0189         estimate D2E/DX2                !
 ! D43   D(13,15,18,20)          0.1588         estimate D2E/DX2                !
 ! D44   D(13,15,18,22)       -179.8372         estimate D2E/DX2                !
 ! D45   D(19,15,18,20)       -179.8884         estimate D2E/DX2                !
 ! D46   D(19,15,18,22)          0.1156         estimate D2E/DX2                !
 ! D47   D(14,16,20,18)         -0.0969         estimate D2E/DX2                !
 ! D48   D(14,16,20,23)        179.8356         estimate D2E/DX2                !
 ! D49   D(21,16,20,18)        179.951          estimate D2E/DX2                !
 ! D50   D(21,16,20,23)         -0.1165         estimate D2E/DX2                !
 ! D51   D(15,18,20,16)          0.0003         estimate D2E/DX2                !
 ! D52   D(15,18,20,23)       -179.9321         estimate D2E/DX2                !
 ! D53   D(22,18,20,16)        179.9963         estimate D2E/DX2                !
 ! D54   D(22,18,20,23)          0.0638         estimate D2E/DX2                !
 ! D55   D(16,20,23,24)        -89.9439         estimate D2E/DX2                !
 ! D56   D(16,20,23,25)         30.0442         estimate D2E/DX2                !
 ! D57   D(16,20,23,26)        150.0746         estimate D2E/DX2                !
 ! D58   D(18,20,23,24)         89.9886         estimate D2E/DX2                !
 ! D59   D(18,20,23,25)       -150.0234         estimate D2E/DX2                !
 ! D60   D(18,20,23,26)        -29.9929         estimate D2E/DX2                !
 ! D61   D(6,27,28,29)          60.0949         estimate D2E/DX2                !
 ! D62   D(6,27,28,30)        -179.9101         estimate D2E/DX2                !
 ! D63   D(6,27,28,31)         -59.9126         estimate D2E/DX2                !
 --------------------------------------------------------------------------------
 Trust Radius=3.00D-01 FncErr=1.00D-07 GrdErr=1.00D-06
 Number of steps in this run=    158 maximum allowed number of steps=    186.
 GradGradGradGradGradGradGradGradGradGradGradGradGradGradGradGradGradGrad

                          Input orientation:                          
 ---------------------------------------------------------------------
 Center     Atomic      Atomic             Coordinates (Angstroms)
 Number     Number       Type             X           Y           Z
 ---------------------------------------------------------------------
      1          6           0       -5.391402    1.064583   -0.415197
      2          6           0       -4.511998    0.095788   -0.918509
      3          6           0       -3.243262   -0.065429   -0.344725
      4          6           0       -2.853079    0.744138    0.731165
      5          6           0       -3.732513    1.713720    1.233918
      6          6           0       -5.001429    1.873124    0.660869
      7          1           0       -6.360038    1.186168   -0.852736
      8          1           0       -4.809322   -0.521268   -1.740324
      9          1           0       -1.884499    0.621815    1.168897
     10          1           0       -3.434630    2.331493    2.054704
     11          6           0       -2.282065   -1.129804   -0.896660
     12          6           0       -1.529298   -1.963391   -1.328925
     13          6           0       -0.565709   -3.030560   -1.882383
     14          6           0        0.703242   -3.192522   -1.308942
     15          6           0       -0.955512   -3.839402   -2.958895
     16          6           0        1.582470   -4.160636   -1.813273
     17          1           0        1.000777   -2.577072   -0.485988
     18          6           0       -0.075099   -4.806298   -3.464452
     19          1           0       -1.924748   -3.718531   -3.395473
     20          6           0        1.193625   -4.966584   -2.891453
     21          1           0        2.550941   -4.283580   -1.375260
     22          1           0       -0.371926   -5.421784   -4.287856
     23          6           0        2.161625   -6.027443   -3.447430
     24          1           0        2.762387   -5.593162   -4.219537
     25          1           0        2.794107   -6.380637   -2.660116
     26          1           0        1.601479   -6.845479   -3.849645
     27          8           0       -5.898560    2.861334    1.173643
     28          6           0       -6.699732    2.286684    2.209721
     29          1           0       -6.066440    1.938389    2.998718
     30          1           0       -7.372065    3.026065    2.592153
     31          1           0       -7.260204    1.465861    1.813557
 ---------------------------------------------------------------------
                    Distance matrix (angstroms):
                    1          2          3          4          5
     1  C    0.000000
     2  C    1.401870   0.000000
     3  C    2.428250   1.401752   0.000000
     4  C    2.803553   2.427713   1.401849   0.000000
     5  C    2.427523   2.803256   2.428344   1.402232   0.000000
     6  C    1.401333   2.427529   2.803633   2.427954   1.401407
     7  H    1.069804   2.146744   3.396890   3.873357   3.396517
     8  H    2.147022   1.069832   2.146632   3.396527   3.873087
     9  H    3.873470   3.396722   2.146997   1.069917   2.147474
    10  H    3.396237   3.872866   3.396928   2.147010   1.069611
    11  C    3.836029   2.544632   1.536693   2.547062   3.837811
    12  C    4.991931   3.647623   2.740179   3.650627   4.994344
    13  C    6.496934   5.126041   4.280851   5.129429   6.499860
    14  C    7.487751   6.177714   5.126726   5.683902   7.086133
    15  C    7.084955   5.683087   5.129381   6.182729   7.491901
    16  C    8.825668   7.487341   6.497310   7.085553   8.487784
    17  H    7.357079   6.141819   4.933576   5.231071   6.616118
    18  C    8.486948   7.085079   6.499676   7.491843   8.829609
    19  H    6.616489   5.232422   4.938694   6.148687   7.362651
    20  C    9.266574   7.878721   7.084709   7.881086   9.268872
    21  H    9.623169   8.323016   7.240690   7.675833   9.069577
    22  H    9.070039   7.676998   7.244542   8.328583   9.628030
    23  C   10.795346   9.403544   8.624685   9.405436  10.797291
    24  H   11.192982   9.807018   9.035365   9.808378  11.194393
    25  H   11.290418   9.917482   9.038402   9.703294  11.103103
    26  H   11.102473   9.702955   9.040191   9.921148  11.293980
    27  O    2.451517   3.734688   4.233437   3.735406   2.452021
    28  C    3.177334   4.401367   4.899471   4.400263   3.175668
    29  H    3.588040   4.599580   4.812923   4.110197   2.934656
    30  H    4.100560   5.393631   5.935453   5.393672   4.100413
    31  H    2.936118   4.110222   4.810286   4.595129   3.583576
                    6          7          8          9         10
     6  C    0.000000
     7  H    2.146795   0.000000
     8  H    3.396431   2.471411   0.000000
     9  H    3.396929   4.943273   4.280747   0.000000
    10  H    2.146564   4.280536   4.942698   2.471955   0.000000
    11  C    4.340324   4.689938   2.732968   2.737289   4.692497
    12  C    5.543809   5.786409   3.606594   3.612281   5.790100
    13  C    7.084480   7.239836   4.932036   4.938558   7.244513
    14  C    7.879353   8.322919   6.140851   5.233092   7.677945
    15  C    7.880678   7.674709   5.229414   6.148507   8.328393
    16  C    9.266896   9.622597   7.355632   6.617026   9.070847
    17  H    7.559498   8.275148   6.289431   4.614796   7.086745
    18  C    9.268316   9.068140   6.614149   7.362490   9.627855
    19  H    7.562175   7.084729   4.613326   6.298706   8.281725
    20  C    9.888341   9.953419   7.557864   7.562506   9.957266
    21  H    9.954352  10.468845   8.274161   7.085814   9.557766
    22  H    9.956800   9.556285   7.084876   8.281855  10.474805
    23  C   11.428317  11.462433   9.045788   9.049543  11.465747
    24  H   11.825423  11.853831   9.444648   9.447471  11.856191
    25  H   11.828943  12.013390   9.643151   9.251218  11.701620
    26  H   11.830349  11.699340   9.248959   9.648745  12.018342
    27  O    1.429804   2.669336   4.595611   4.596537   2.669822
    28  C    2.335424   3.271876   5.202028   5.200151   3.269087
    29  H    2.569834   3.935192   5.485324   4.750815   2.823494
    30  H    3.267881   4.034437   6.158050   6.157878   4.034188
    31  H    2.568388   2.828011   4.752428   5.479618   3.929693
                   11         12         13         14         15
    11  C    0.000000
    12  C    1.203486   0.000000
    13  C    2.744158   1.540672   0.000000
    14  C    3.651964   2.548607   1.401893   0.000000
    15  C    3.654377   2.550578   1.401802   2.427399   0.000000
    16  C    4.996073   3.839997   2.428275   1.401654   2.803033
    17  H    3.611134   2.736499   2.146962   1.069840   3.396441
    18  C    4.998086   3.841522   2.428350   2.802911   1.402000
    19  H    3.615695   2.739985   2.147029   3.396562   1.069873
    20  C    5.548018   4.344534   2.803866   2.427368   2.427731
    21  H    5.790795   4.694015   3.397167   2.146811   3.873036
    22  H    5.793957   4.696304   3.397323   3.872922   2.147242
    23  C    7.087996   5.884514   4.343850   3.838853   3.839628
    24  H    7.510631   6.320557   4.806812   4.298222   4.299729
    25  H    7.513225   6.322655   4.807936   4.044931   4.539471
    26  H    7.514717   6.323810   4.808371   4.539394   4.045756
    27  O    5.770127   6.973612   8.514283   9.294955   9.295776
    28  C    6.390444   7.570901   9.090909   9.859346   9.861013
    29  H    6.237729   7.384987   8.875451   9.524220   9.746671
    30  H    7.439836   8.625975  10.150402  10.913292  10.914252
    31  H    6.234149   7.380938   8.870966   9.739970   9.522145
                   16         17         18         19         20
    16  C    0.000000
    17  H    2.146561   0.000000
    18  C    2.427098   3.872751   0.000000
    19  H    3.872904   4.280973   2.146904   0.000000
    20  C    1.401151   3.396059   1.401313   3.396457   0.000000
    21  H    1.070004   2.471029   3.396181   4.942908   2.146542
    22  H    3.396133   4.942762   1.070011   2.471574   2.146648
    23  C    2.547717   4.692842   2.548415   4.693849   1.539986
    24  H    3.038823   5.112676   3.039841   5.114934   2.148818
    25  H    2.667136   4.733917   3.370140   5.467646   2.148164
    26  H    3.369801   5.467570   2.667873   4.734802   2.148191
    27  O   10.686231   8.940441  10.687245   8.942183  11.318144
    28  C   11.240430   9.498463  11.242437   9.501646  11.871687
    29  H   10.902255   9.081746  11.097726   9.488943  11.622448
    30  H   12.297972  10.534447  12.299353  10.536342  12.935355
    31  H   11.090728   9.480349  10.900601   9.081796  11.618119
                   21         22         23         24         25
    21  H    0.000000
    22  H    4.280406   0.000000
    23  C    2.736150   2.737155   0.000000
    24  H    3.138412   3.139737   1.070357   0.000000
    25  H    2.471363   3.686828   1.069880   1.747260   0.000000
    26  H    3.686107   2.472501   1.069917   1.747233   1.747404
    27  O   11.355209  11.357011  12.858120  13.250543  13.254215
    28  C   11.899387  11.902946  13.403422  13.890969  13.746663
    29  H   11.493643  11.819213  13.141855  13.666589  13.406636
    30  H   12.947483  12.950005  14.468373  14.946481  14.812948
    31  H   11.810300  11.494141  13.137673  13.663102  13.515564
                   26         27         28         29         30
    26  H    0.000000
    27  O   13.255422   0.000000
    28  C   13.748542   1.430230   0.000000
    29  H   13.522329   2.052050   1.069993   0.000000
    30  H   14.814473   2.051956   1.070033   1.747281   0.000000
    31  H   13.404464   2.052050   1.069965   1.747273   1.747272
                   31
    31  H    0.000000
 Stoichiometry    C16H14O
 Framework group  C1[X(C16H14O)]
 Deg. of freedom    87
 Full point group                 C1      NOp   1
 Largest Abelian subgroup         C1      NOp   1
 Largest concise Abelian subgroup C1      NOp   1
                         Standard orientation:                         
 ---------------------------------------------------------------------
 Center     Atomic      Atomic             Coordinates (Angstroms)
 Number     Number       Type             X           Y           Z
 ---------------------------------------------------------------------
      1          6           0        3.781231    1.213870   -0.256545
      2          6           0        2.380358    1.212508   -0.203694
      3          6           0        1.680765   -0.001883   -0.176628
      4          6           0        2.382359   -1.215204   -0.204851
      5          6           0        3.783561   -1.213652   -0.258589
      6          6           0        4.482345    0.000846   -0.283868
      7          1           0        4.314551    2.141058   -0.275835
      8          1           0        1.844874    2.138457   -0.183313
      9          1           0        1.848658   -2.142289   -0.184905
     10          1           0        4.318770   -2.139474   -0.280309
     11          6           0        0.145262   -0.000684   -0.116177
     12          6           0       -1.057292    0.000268   -0.068835
     13          6           0       -2.596771    0.001610   -0.008226
     14          6           0       -3.297130   -1.212497    0.019070
     15          6           0       -3.298365    1.214901    0.018969
     16          6           0       -4.697826   -1.213227    0.070870
     17          1           0       -2.762412   -2.138935    0.000448
     18          6           0       -4.699481    1.213870    0.068738
     19          1           0       -2.764768    2.142037    0.000988
     20          6           0       -5.398748   -0.000227    0.094668
     21          1           0       -5.231764   -2.140262    0.091462
     22          1           0       -5.234849    2.140140    0.086856
     23          6           0       -6.937818   -0.001869    0.147757
     24          1           0       -7.329599   -0.003553   -0.848320
     25          1           0       -7.275886   -0.875255    0.665010
     26          1           0       -7.277840    0.872146    0.662738
     27          8           0        5.911118    0.002729   -0.338132
     28          6           0        6.439046   -0.000574    0.991092
     29          1           0        6.104366   -0.876961    1.505699
     30          1           0        7.508289    0.002420    0.950109
     31          1           0        6.099699    0.870295    1.511915
 ---------------------------------------------------------------------
 Rotational constants (GHZ):      2.4425245      0.1245739      0.1199623
 Standard basis: 6-31+G(d) (6D, 7F)
 There are   351 symmetry adapted cartesian basis functions of A   symmetry.
 There are   351 symmetry adapted basis functions of A   symmetry.
   351 basis functions,   600 primitive gaussians,   351 cartesian basis functions
    59 alpha electrons       59 beta electrons
       nuclear repulsion energy       967.3268058022 Hartrees.
 NAtoms=   31 NActive=   31 NUniq=   31 SFac= 1.00D+00 NAtFMM=   60 NAOKFM=F Big=F
 Integral buffers will be    131072 words long.
 Raffenetti 2 integral format.
 Two-electron integral symmetry is turned on.
 Nuclear repulsion after empirical dispersion term =      967.3054186897 Hartrees.
 One-electron integrals computed using PRISM.
 NBasis=   351 RedAO= T EigKep=  2.23D-06  NBF=   351
 NBsUse=   347 1.00D-06 EigRej=  6.41D-07 NBFU=   347
 ExpMin= 4.38D-02 ExpMax= 5.48D+03 ExpMxC= 8.25D+02 IAcc=2 IRadAn=         4 AccDes= 0.00D+00
 Harris functional with IExCor=  402 and IRadAn=       4 diagonalized for initial guess.
 HarFok:  IExCor=  402 AccDes= 0.00D+00 IRadAn=         4 IDoV= 1 UseB2=F ITyADJ=14
 ICtDFT=  3500011 ScaDFX=  1.000000  1.000000  1.000000  1.000000
 FoFCou: FMM=F IPFlag=           0 FMFlag=      100000 FMFlg1=           0
         NFxFlg=           0 DoJE=T BraDBF=F KetDBF=T FulRan=T
         wScrn=  0.000000 ICntrl=     500 IOpCl=  0 I1Cent=   200000004 NGrid=           0
         NMat0=    1 NMatS0=      1 NMatT0=    0 NMatD0=    1 NMtDS0=    0 NMtDT0=    0
 Petite list used in FoFCou.
 Requested convergence on RMS density matrix=1.00D-08 within 128 cycles.
 Requested convergence on MAX density matrix=1.00D-06.
 Requested convergence on             energy=1.00D-06.
 No special actions if energy rises.
 SCF Done:  E(RB3LYP) =  -693.323054742     A.U. after   14 cycles
            NFock= 14  Conv=0.92D-08     -V/T= 2.0100

 **********************************************************************

            Population analysis using the SCF density.

 **********************************************************************

 Orbital symmetries:
       Occupied  (A) (A) (A) (A) (A) (A) (A) (A) (A) (A) (A) (A)
                 (A) (A) (A) (A) (A) (A) (A) (A) (A) (A) (A) (A)
                 (A) (A) (A) (A) (A) (A) (A) (A) (A) (A) (A) (A)
                 (A) (A) (A) (A) (A) (A) (A) (A) (A) (A) (A) (A)
                 (A) (A) (A) (A) (A) (A) (A) (A) (A) (A) (A)
       Virtual   (A) (A) (A) (A) (A) (A) (A) (A) (A) (A) (A) (A)
                 (A) (A) (A) (A) (A) (A) (A) (A) (A) (A) (A) (A)
                 (A) (A) (A) (A) (A) (A) (A) (A) (A) (A) (A) (A)
                 (A) (A) (A) (A) (A) (A) (A) (A) (A) (A) (A) (A)
                 (A) (A) (A) (A) (A) (A) (A) (A) (A) (A) (A) (A)
                 (A) (A) (A) (A) (A) (A) (A) (A) (A) (A) (A) (A)
                 (A) (A) (A) (A) (A) (A) (A) (A) (A) (A) (A) (A)
                 (A) (A) (A) (A) (A) (A) (A) (A) (A) (A) (A) (A)
                 (A) (A) (A) (A) (A) (A) (A) (A) (A) (A) (A) (A)
                 (A) (A) (A) (A) (A) (A) (A) (A) (A) (A) (A) (A)
                 (A) (A) (A) (A) (A) (A) (A) (A) (A) (A) (A) (A)
                 (A) (A) (A) (A) (A) (A) (A) (A) (A) (A) (A) (A)
                 (A) (A) (A) (A) (A) (A) (A) (A) (A) (A) (A) (A)
                 (A) (A) (A) (A) (A) (A) (A) (A) (A) (A) (A) (A)
                 (A) (A) (A) (A) (A) (A) (A) (A) (A) (A) (A) (A)
                 (A) (A) (A) (A) (A) (A) (A) (A) (A) (A) (A) (A)
                 (A) (A) (A) (A) (A) (A) (A) (A) (A) (A) (A) (A)
                 (A) (A) (A) (A) (A) (A) (A) (A) (A) (A) (A) (A)
                 (A) (A) (A) (A) (A) (A) (A) (A) (A) (A) (A) (A)
                 (A) (A) (A) (A) (A) (A) (A) (A) (A) (A) (A) (A)
                 (A) (A) (A) (A) (A) (A) (A) (A) (A) (A) (A) (A)
                 (A) (A) (A) (A) (A) (A) (A) (A) (A) (A) (A) (A)
                 (A) (A) (A) (A) (A) (A) (A) (A) (A) (A) (A) (A)
                 (A) (A) (A) (A) (A) (A) (A) (A) (A) (A) (A) (A)
 The electronic state is 1-A.
 Alpha  occ. eigenvalues --  -19.17472 -10.25755 -10.23442 -10.23197 -10.23103
 Alpha  occ. eigenvalues --  -10.21072 -10.20889 -10.20877 -10.20512 -10.20505
 Alpha  occ. eigenvalues --  -10.20366 -10.20357 -10.20017 -10.19915 -10.19907
 Alpha  occ. eigenvalues --  -10.19766 -10.18629  -1.04637  -0.86929  -0.86787
 Alpha  occ. eigenvalues --   -0.79343  -0.77449  -0.76330  -0.75709  -0.73743
 Alpha  occ. eigenvalues --   -0.70131  -0.68987  -0.62850  -0.62139  -0.61245
 Alpha  occ. eigenvalues --   -0.59640  -0.54901  -0.53019  -0.50335  -0.48707
 Alpha  occ. eigenvalues --   -0.47348  -0.47098  -0.46447  -0.45919  -0.44597
 Alpha  occ. eigenvalues --   -0.43667  -0.43496  -0.43436  -0.43029  -0.40227
 Alpha  occ. eigenvalues --   -0.39916  -0.38347  -0.37294  -0.37213  -0.35728
 Alpha  occ. eigenvalues --   -0.35296  -0.35110  -0.30961  -0.28212  -0.27934
 Alpha  occ. eigenvalues --   -0.26644  -0.26579  -0.26210  -0.22433
 Alpha virt. eigenvalues --   -0.04555  -0.02459  -0.02151  -0.00880   0.00211
 Alpha virt. eigenvalues --    0.00767   0.01693   0.01988   0.02722   0.02792
 Alpha virt. eigenvalues --    0.03688   0.04535   0.04549   0.04730   0.04842
 Alpha virt. eigenvalues --    0.05070   0.06016   0.06229   0.06478   0.06758
 Alpha virt. eigenvalues --    0.07388   0.07912   0.08687   0.08708   0.09100
 Alpha virt. eigenvalues --    0.09332   0.09893   0.10132   0.11165   0.11171
 Alpha virt. eigenvalues --    0.11683   0.11973   0.12863   0.13052   0.14067
 Alpha virt. eigenvalues --    0.14269   0.14667   0.14979   0.15089   0.15342
 Alpha virt. eigenvalues --    0.15483   0.15488   0.15832   0.16319   0.16841
 Alpha virt. eigenvalues --    0.17433   0.18063   0.18121   0.18626   0.19059
 Alpha virt. eigenvalues --    0.19366   0.20403   0.20526   0.20656   0.20686
 Alpha virt. eigenvalues --    0.21454   0.21576   0.22325   0.22359   0.23252
 Alpha virt. eigenvalues --    0.23454   0.24005   0.24069   0.24645   0.24759
 Alpha virt. eigenvalues --    0.25653   0.25803   0.25953   0.26368   0.26472
 Alpha virt. eigenvalues --    0.26892   0.27531   0.27647   0.28272   0.28529
 Alpha virt. eigenvalues --    0.28875   0.29229   0.30245   0.30834   0.31897
 Alpha virt. eigenvalues --    0.32436   0.32960   0.33875   0.33902   0.35189
 Alpha virt. eigenvalues --    0.35570   0.35620   0.35813   0.36728   0.36956
 Alpha virt. eigenvalues --    0.37823   0.38381   0.40533   0.40719   0.42255
 Alpha virt. eigenvalues --    0.42458   0.43326   0.45006   0.49267   0.56445
 Alpha virt. eigenvalues --    0.58793   0.59792   0.60182   0.64254   0.65539
 Alpha virt. eigenvalues --    0.65864   0.67049   0.67276   0.67517   0.68115
 Alpha virt. eigenvalues --    0.68984   0.70029   0.70540   0.71100   0.71795
 Alpha virt. eigenvalues --    0.72014   0.72106   0.72595   0.74281   0.74384
 Alpha virt. eigenvalues --    0.74415   0.75995   0.76252   0.77145   0.77300
 Alpha virt. eigenvalues --    0.77818   0.77840   0.78830   0.79544   0.80526
 Alpha virt. eigenvalues --    0.80747   0.81098   0.81918   0.84042   0.84487
 Alpha virt. eigenvalues --    0.85220   0.86577   0.87874   0.91440   0.93286
 Alpha virt. eigenvalues --    0.93840   0.94524   0.95741   0.96464   0.96613
 Alpha virt. eigenvalues --    0.97895   0.97920   0.98861   0.99636   1.00754
 Alpha virt. eigenvalues --    1.01829   1.03513   1.04235   1.06724   1.09245
 Alpha virt. eigenvalues --    1.10032   1.10758   1.11200   1.12688   1.14382
 Alpha virt. eigenvalues --    1.16671   1.16804   1.17634   1.19438   1.19734
 Alpha virt. eigenvalues --    1.21882   1.21939   1.23519   1.24370   1.24832
 Alpha virt. eigenvalues --    1.25080   1.26658   1.26756   1.29140   1.30955
 Alpha virt. eigenvalues --    1.31718   1.33506   1.34390   1.39020   1.39361
 Alpha virt. eigenvalues --    1.40422   1.43678   1.44198   1.44676   1.44868
 Alpha virt. eigenvalues --    1.44949   1.46126   1.47940   1.48882   1.49706
 Alpha virt. eigenvalues --    1.51445   1.52058   1.54079   1.55548   1.56296
 Alpha virt. eigenvalues --    1.58320   1.59772   1.66736   1.76611   1.78517
 Alpha virt. eigenvalues --    1.79831   1.81977   1.82709   1.84274   1.85237
 Alpha virt. eigenvalues --    1.85957   1.87196   1.88814   1.90014   1.92153
 Alpha virt. eigenvalues --    1.92689   1.92969   1.97693   1.98170   1.99224
 Alpha virt. eigenvalues --    2.00609   2.00783   2.05405   2.08023   2.08355
 Alpha virt. eigenvalues --    2.08792   2.09894   2.12447   2.12696   2.13290
 Alpha virt. eigenvalues --    2.14494   2.14635   2.17529   2.18235   2.19285
 Alpha virt. eigenvalues --    2.20298   2.24526   2.26391   2.28140   2.28668
 Alpha virt. eigenvalues --    2.29465   2.29839   2.29924   2.32794   2.37417
 Alpha virt. eigenvalues --    2.39124   2.40162   2.40987   2.48458   2.48804
 Alpha virt. eigenvalues --    2.49895   2.56006   2.59345   2.61652   2.63387
 Alpha virt. eigenvalues --    2.63826   2.63955   2.64796   2.66740   2.72947
 Alpha virt. eigenvalues --    2.74863   2.75494   2.76439   2.80454   2.80938
 Alpha virt. eigenvalues --    2.81259   2.84570   2.89242   2.94235   2.96692
 Alpha virt. eigenvalues --    3.07175   3.07838   3.18080   3.30747   3.40107
 Alpha virt. eigenvalues --    3.55276   4.18519   4.21485   4.23465   4.24634
 Alpha virt. eigenvalues --    4.24797   4.28706   4.31368   4.32949   4.35703
 Alpha virt. eigenvalues --    4.39352   4.40932   4.41101   4.45126   4.58018
 Alpha virt. eigenvalues --    4.67618   4.78300   4.90277
          Condensed to atoms (all electrons):
               1          2          3          4          5          6
     1  C   11.364644  -6.220497   0.934939   3.266882  -2.694642  -0.859725
     2  C   -6.220497  18.706440  -1.684311  -8.613641   3.256038   0.656831
     3  C    0.934939  -1.684311   8.543728  -1.719516   0.929570  -0.678247
     4  C    3.266882  -8.613641  -1.719516  18.613644  -6.118579   0.636314
     5  C   -2.694642   3.256038   0.929570  -6.118579  11.259983  -0.828560
     6  C   -0.859725   0.656831  -0.678247   0.636314  -0.828560   7.389640
     7  H    0.402234  -0.158517   0.032612  -0.007701   0.031511  -0.006408
     8  H   -0.096174   0.372887  -0.024795   0.023960  -0.016478   0.006627
     9  H   -0.016488   0.024406  -0.024169   0.373042  -0.097144   0.006464
    10  H    0.031460  -0.007847   0.032810  -0.158016   0.402354  -0.007042
    11  C   -0.133308   0.299361  -0.638229   0.323668  -0.142310  -0.192177
    12  C   -0.012250  -0.041414  -0.228877  -0.041009  -0.011524  -0.052741
    13  C    0.061673  -0.160258   0.420778  -0.149812   0.057059  -0.011450
    14  C    0.058808  -0.303749  -0.151843   0.377671  -0.081033   0.001778
    15  C   -0.082602   0.378290  -0.147169  -0.302761   0.058173   0.002047
    16  C   -0.013814   0.054101   0.051071  -0.070466   0.017029   0.000797
    17  H    0.000018   0.000043   0.000585   0.001691   0.000092   0.000019
    18  C    0.016802  -0.069141   0.048309   0.053682  -0.013439   0.000798
    19  H    0.000102   0.001762   0.000554   0.000004   0.000014   0.000020
    20  C    0.000697   0.000668   0.003753   0.000863   0.000613   0.000166
    21  H   -0.000001  -0.000023  -0.000078   0.000061   0.000002   0.000000
    22  H    0.000002   0.000061  -0.000078  -0.000023  -0.000001   0.000000
    23  C    0.000015  -0.000126   0.003923  -0.000131   0.000011   0.000016
    24  H    0.000000   0.000000   0.000000   0.000000   0.000000   0.000000
    25  H    0.000000   0.000000   0.000001   0.000000   0.000000   0.000000
    26  H    0.000000   0.000000   0.000001   0.000000   0.000000   0.000000
    27  O   -0.258531   0.099763  -0.026181   0.098503  -0.256868   0.471155
    28  C    0.112252  -0.054510   0.022734  -0.053495   0.112413  -0.387298
    29  H   -0.042667   0.031720  -0.003888  -0.044848   0.025590   0.036162
    30  H    0.012591  -0.002517   0.001463  -0.002441   0.012656  -0.018411
    31  H    0.026586  -0.045302  -0.003663   0.031370  -0.042030   0.035164
               7          8          9         10         11         12
     1  C    0.402234  -0.096174  -0.016488   0.031460  -0.133308  -0.012250
     2  C   -0.158517   0.372887   0.024406  -0.007847   0.299361  -0.041414
     3  C    0.032612  -0.024795  -0.024169   0.032810  -0.638229  -0.228877
     4  C   -0.007701   0.023960   0.373042  -0.158016   0.323668  -0.041009
     5  C    0.031511  -0.016478  -0.097144   0.402354  -0.142310  -0.011524
     6  C   -0.006408   0.006627   0.006464  -0.007042  -0.192177  -0.052741
     7  H    0.521574  -0.004637   0.000015  -0.000153  -0.003031   0.000756
     8  H   -0.004637   0.520925  -0.000164   0.000015   0.024912  -0.003881
     9  H    0.000015  -0.000164   0.520903  -0.004624   0.025156  -0.004142
    10  H   -0.000153   0.000015  -0.004624   0.521576  -0.002988   0.000760
    11  C   -0.003031   0.024912   0.025156  -0.002988   6.148079   0.852827
    12  C    0.000756  -0.003881  -0.004142   0.000760   0.852827   5.536085
    13  C   -0.000006  -0.000212  -0.000234  -0.000006  -0.513088   0.203505
    14  C   -0.000012   0.000012   0.001457   0.000009   0.073925  -0.124698
    15  C    0.000010   0.001402  -0.000022  -0.000011   0.078941  -0.110634
    16  C   -0.000001   0.000016   0.000070   0.000001  -0.052386   0.033517
    17  H    0.000000   0.000000   0.000000   0.000000  -0.002822   0.025865
    18  C    0.000001   0.000064   0.000014  -0.000001  -0.051133   0.028090
    19  H    0.000000   0.000000   0.000000   0.000000  -0.003053   0.026182
    20  C    0.000000   0.000003   0.000003   0.000000  -0.064651  -0.104466
    21  H    0.000000   0.000000   0.000000   0.000000   0.000824  -0.003948
    22  H    0.000000   0.000000   0.000000   0.000000   0.000825  -0.003886
    23  C    0.000000   0.000000   0.000000   0.000000  -0.016281   0.035667
    24  H    0.000000   0.000000   0.000000   0.000000  -0.000005   0.000166
    25  H    0.000000   0.000000   0.000000   0.000000   0.000016   0.000339
    26  H    0.000000   0.000000   0.000000   0.000000   0.000016   0.000345
    27  O   -0.001971  -0.000522  -0.000521  -0.001960   0.000814   0.000624
    28  C    0.001315  -0.000417  -0.000416   0.001290   0.003519   0.000396
    29  H    0.000048  -0.000001   0.000009   0.000171  -0.000439  -0.000051
    30  H   -0.000063   0.000000   0.000000  -0.000063   0.000062   0.000006
    31  H    0.000166   0.000009  -0.000001   0.000049  -0.000406  -0.000049
              13         14         15         16         17         18
     1  C    0.061673   0.058808  -0.082602  -0.013814   0.000018   0.016802
     2  C   -0.160258  -0.303749   0.378290   0.054101   0.000043  -0.069141
     3  C    0.420778  -0.151843  -0.147169   0.051071   0.000585   0.048309
     4  C   -0.149812   0.377671  -0.302761  -0.070466   0.001691   0.053682
     5  C    0.057059  -0.081033   0.058173   0.017029   0.000092  -0.013439
     6  C   -0.011450   0.001778   0.002047   0.000797   0.000019   0.000798
     7  H   -0.000006  -0.000012   0.000010  -0.000001   0.000000   0.000001
     8  H   -0.000212   0.000012   0.001402   0.000016   0.000000   0.000064
     9  H   -0.000234   0.001457  -0.000022   0.000070   0.000000   0.000014
    10  H   -0.000006   0.000009  -0.000011   0.000001   0.000000  -0.000001
    11  C   -0.513088   0.073925   0.078941  -0.052386  -0.002822  -0.051133
    12  C    0.203505  -0.124698  -0.110634   0.033517   0.025865   0.028090
    13  C    6.499592  -0.407361  -0.420766   0.423250  -0.020956   0.419377
    14  C   -0.407361  10.640145  -3.197624  -2.228346   0.368674   0.852765
    15  C   -0.420766  -3.197624  10.586742   0.860670   0.023025  -2.179919
    16  C    0.423250  -2.228346   0.860670   8.091831  -0.111045  -0.904922
    17  H   -0.020956   0.368674   0.023025  -0.111045   0.528821  -0.008407
    18  C    0.419377   0.852765  -2.179919  -0.904922  -0.008407   8.052618
    19  H   -0.020256   0.023389   0.368470  -0.008353  -0.000161  -0.111827
    20  C   -0.186980   0.262444   0.253177   0.005541   0.005320   0.009706
    21  H    0.028727  -0.083236  -0.003548   0.295099  -0.004332   0.042776
    22  H    0.028804  -0.003608  -0.083065   0.042787   0.000019   0.295048
    23  C   -0.226169   0.005757   0.001766  -0.044601   0.002241  -0.042005
    24  H   -0.000098   0.000247   0.000170  -0.011462   0.000002  -0.011288
    25  H   -0.001642   0.005243  -0.006851  -0.016188  -0.000004   0.028076
    26  H   -0.001505  -0.007097   0.004853   0.028451   0.000002  -0.015902
    27  O   -0.000036   0.000004   0.000004  -0.000001   0.000000  -0.000001
    28  C    0.000198  -0.000015  -0.000015  -0.000007   0.000000  -0.000007
    29  H    0.000002  -0.000004   0.000003   0.000000   0.000000   0.000000
    30  H    0.000000   0.000000   0.000000   0.000000   0.000000   0.000000
    31  H    0.000002   0.000003  -0.000004   0.000000   0.000000   0.000000
              19         20         21         22         23         24
     1  C    0.000102   0.000697  -0.000001   0.000002   0.000015   0.000000
     2  C    0.001762   0.000668  -0.000023   0.000061  -0.000126   0.000000
     3  C    0.000554   0.003753  -0.000078  -0.000078   0.003923   0.000000
     4  C    0.000004   0.000863   0.000061  -0.000023  -0.000131   0.000000
     5  C    0.000014   0.000613   0.000002  -0.000001   0.000011   0.000000
     6  C    0.000020   0.000166   0.000000   0.000000   0.000016   0.000000
     7  H    0.000000   0.000000   0.000000   0.000000   0.000000   0.000000
     8  H    0.000000   0.000003   0.000000   0.000000   0.000000   0.000000
     9  H    0.000000   0.000003   0.000000   0.000000   0.000000   0.000000
    10  H    0.000000   0.000000   0.000000   0.000000   0.000000   0.000000
    11  C   -0.003053  -0.064651   0.000824   0.000825  -0.016281  -0.000005
    12  C    0.026182  -0.104466  -0.003948  -0.003886   0.035667   0.000166
    13  C   -0.020256  -0.186980   0.028727   0.028804  -0.226169  -0.000098
    14  C    0.023389   0.262444  -0.083236  -0.003608   0.005757   0.000247
    15  C    0.368470   0.253177  -0.003548  -0.083065   0.001766   0.000170
    16  C   -0.008353   0.005541   0.295099   0.042787  -0.044601  -0.011462
    17  H   -0.000161   0.005320  -0.004332   0.000019   0.002241   0.000002
    18  C   -0.111827   0.009706   0.042776   0.295048  -0.042005  -0.011288
    19  H    0.528810   0.005146   0.000019  -0.004319   0.002241   0.000002
    20  C    0.005146   6.386611   0.024636   0.024462  -0.761516  -0.048381
    21  H    0.000019   0.024636   0.543059  -0.000165  -0.021101   0.000360
    22  H   -0.004319   0.024462  -0.000165   0.542948  -0.021071   0.000360
    23  C    0.002241  -0.761516  -0.021101  -0.021071   6.470892   0.405585
    24  H    0.000002  -0.048381   0.000360   0.000360   0.405585   0.489853
    25  H    0.000002  -0.133148   0.002914   0.000087   0.466110  -0.028339
    26  H   -0.000004  -0.133042   0.000088   0.002910   0.465820  -0.028345
    27  O    0.000000   0.000000   0.000000   0.000000   0.000000   0.000000
    28  C    0.000000   0.000001   0.000000   0.000000   0.000000   0.000000
    29  H    0.000000   0.000000   0.000000   0.000000   0.000000   0.000000
    30  H    0.000000   0.000000   0.000000   0.000000   0.000000   0.000000
    31  H    0.000000   0.000000   0.000000   0.000000   0.000000   0.000000
              25         26         27         28         29         30
     1  C    0.000000   0.000000  -0.258531   0.112252  -0.042667   0.012591
     2  C    0.000000   0.000000   0.099763  -0.054510   0.031720  -0.002517
     3  C    0.000001   0.000001  -0.026181   0.022734  -0.003888   0.001463
     4  C    0.000000   0.000000   0.098503  -0.053495  -0.044848  -0.002441
     5  C    0.000000   0.000000  -0.256868   0.112413   0.025590   0.012656
     6  C    0.000000   0.000000   0.471155  -0.387298   0.036162  -0.018411
     7  H    0.000000   0.000000  -0.001971   0.001315   0.000048  -0.000063
     8  H    0.000000   0.000000  -0.000522  -0.000417  -0.000001   0.000000
     9  H    0.000000   0.000000  -0.000521  -0.000416   0.000009   0.000000
    10  H    0.000000   0.000000  -0.001960   0.001290   0.000171  -0.000063
    11  C    0.000016   0.000016   0.000814   0.003519  -0.000439   0.000062
    12  C    0.000339   0.000345   0.000624   0.000396  -0.000051   0.000006
    13  C   -0.001642  -0.001505  -0.000036   0.000198   0.000002   0.000000
    14  C    0.005243  -0.007097   0.000004  -0.000015  -0.000004   0.000000
    15  C   -0.006851   0.004853   0.000004  -0.000015   0.000003   0.000000
    16  C   -0.016188   0.028451  -0.000001  -0.000007   0.000000   0.000000
    17  H   -0.000004   0.000002   0.000000   0.000000   0.000000   0.000000
    18  C    0.028076  -0.015902  -0.000001  -0.000007   0.000000   0.000000
    19  H    0.000002  -0.000004   0.000000   0.000000   0.000000   0.000000
    20  C   -0.133148  -0.133042   0.000000   0.000001   0.000000   0.000000
    21  H    0.002914   0.000088   0.000000   0.000000   0.000000   0.000000
    22  H    0.000087   0.002910   0.000000   0.000000   0.000000   0.000000
    23  C    0.466110   0.465820   0.000000   0.000000   0.000000   0.000000
    24  H   -0.028339  -0.028345   0.000000   0.000000   0.000000   0.000000
    25  H    0.499278  -0.026138   0.000000   0.000000   0.000000   0.000000
    26  H   -0.026138   0.499316   0.000000   0.000000   0.000000   0.000000
    27  O    0.000000   0.000000   8.292997   0.125870  -0.053106  -0.042706
    28  C    0.000000   0.000000   0.125870   5.289894   0.391867   0.389061
    29  H    0.000000   0.000000  -0.053106   0.391867   0.539725  -0.030972
    30  H    0.000000   0.000000  -0.042706   0.389061  -0.030972   0.508729
    31  H    0.000000   0.000000  -0.053097   0.391762  -0.046617  -0.030939
              31
     1  C    0.026586
     2  C   -0.045302
     3  C   -0.003663
     4  C    0.031370
     5  C   -0.042030
     6  C    0.035164
     7  H    0.000166
     8  H    0.000009
     9  H   -0.000001
    10  H    0.000049
    11  C   -0.000406
    12  C   -0.000049
    13  C    0.000002
    14  C    0.000003
    15  C   -0.000004
    16  C    0.000000
    17  H    0.000000
    18  C    0.000000
    19  H    0.000000
    20  C    0.000000
    21  H    0.000000
    22  H    0.000000
    23  C    0.000000
    24  H    0.000000
    25  H    0.000000
    26  H    0.000000
    27  O   -0.053097
    28  C    0.391762
    29  H   -0.046617
    30  H   -0.030939
    31  H    0.539597
 Mulliken charges:
               1
     1  C    0.140994
     2  C   -0.520516
     3  C    0.304213
     4  C   -0.518916
     5  C    0.139500
     6  C   -0.201937
     7  H    0.192256
     8  H    0.196449
     9  H    0.196387
    10  H    0.192217
    11  C   -0.016638
    12  C   -0.001562
    13  C   -0.022134
    14  C   -0.083705
    15  C   -0.082753
    16  C   -0.442641
    17  H    0.191311
    18  C   -0.440137
    19  H    0.191257
    20  C    0.448371
    21  H    0.177868
    22  H    0.177904
    23  C   -0.727044
    24  H    0.231172
    25  H    0.210241
    26  H    0.210230
    27  O   -0.394231
    28  C   -0.346395
    29  H    0.197296
    30  H    0.203543
    31  H    0.197398
 Sum of Mulliken charges =   0.00000
 Mulliken charges with hydrogens summed into heavy atoms:
               1
     1  C    0.333251
     2  C   -0.324067
     3  C    0.304213
     4  C   -0.322529
     5  C    0.331716
     6  C   -0.201937
    11  C   -0.016638
    12  C   -0.001562
    13  C   -0.022134
    14  C    0.107605
    15  C    0.108504
    16  C   -0.264773
    18  C   -0.262233
    20  C    0.448371
    23  C   -0.075400
    27  O   -0.394231
    28  C    0.251842
 Electronic spatial extent (au):  <R**2>=           8576.1007
 Charge=              0.0000 electrons
 Dipole moment (field-independent basis, Debye):
    X=             -1.2114    Y=             -0.0050    Z=              1.5142  Tot=              1.9392
 Quadrupole moment (field-independent basis, Debye-Ang):
   XX=            -82.7662   YY=            -89.9927   ZZ=           -106.6726
   XY=             -0.0324   XZ=              9.6977   YZ=              0.0057
 Traceless Quadrupole moment (field-independent basis, Debye-Ang):
   XX=             10.3777   YY=              3.1511   ZZ=            -13.5288
   XY=             -0.0324   XZ=              9.6977   YZ=              0.0057
 Octapole moment (field-independent basis, Debye-Ang**2):
  XXX=            -53.1938  YYY=              0.0051  ZZZ=              2.2059  XYY=              6.7319
  XXY=             -0.2026  XXZ=             68.1459  XZZ=             14.4194  YZZ=             -0.0008
  YYZ=              0.0688  XYZ=              0.0728
 Hexadecapole moment (field-independent basis, Debye-Ang**3):
 XXXX=         -10124.9406 YYYY=           -587.6536 ZZZZ=           -209.3413 XXXY=             -1.1047
 XXXZ=            427.4575 YYYX=             -0.0552 YYYZ=              0.0059 ZZZX=             15.9606
 ZZZY=              0.0037 XXYY=          -1797.8684 XXZZ=          -1933.1292 YYZZ=           -154.3252
 XXYZ=              0.0867 YYXZ=             -7.3340 ZZXY=              0.0904
 N-N= 9.673054186897D+02 E-N=-3.541246073509D+03  KE= 6.864801635931D+02
 Calling FoFJK, ICntrl=      2127 FMM=F ISym2X=0 I1Cent= 0 IOpClX= 0 NMat=1 NMatS=1 NMatT=0.
 ***** Axes restored to original set *****
 -------------------------------------------------------------------
 Center     Atomic                   Forces (Hartrees/Bohr)
 Number     Number              X              Y              Z
 -------------------------------------------------------------------
      1        6           0.012630549   -0.002108850    0.005140391
      2        6          -0.000406651    0.010728087    0.010651996
      3        6           0.035734757   -0.039818462   -0.020545481
      4        6          -0.013874735    0.005496784   -0.002764294
      5        6          -0.003147429   -0.008520656   -0.010760680
      6        6          -0.009691344    0.013696635    0.004362416
      7        1          -0.010819688    0.002708558   -0.003975097
      8        1          -0.002877536   -0.006457586   -0.008677013
      9        1           0.010176333   -0.001311934    0.004307679
     10        1           0.002049810    0.007759756    0.008889856
     11        6          -0.049428435    0.055041601    0.028567892
     12        6           0.050151108   -0.056039961   -0.028873386
     13        6          -0.035664717    0.039664004    0.020699201
     14        6           0.002052075   -0.008739058   -0.008774933
     15        6           0.011545044   -0.005048097    0.000441496
     16        6          -0.020566394    0.006500971   -0.005682259
     17        1           0.002376008    0.007059554    0.008907524
     18        6           0.001530521    0.015131296    0.016549272
     19        1          -0.010654377    0.001982032   -0.004105446
     20        6           0.011424365   -0.013857662   -0.006155925
     21        1           0.010898737   -0.001403389    0.005374405
     22        1          -0.003785632   -0.007121198   -0.009182463
     23        6          -0.023209876    0.023835451    0.013822713
     24        1           0.011700920    0.004812825   -0.013605441
     25        1           0.012100206   -0.007518495    0.010430640
     26        1          -0.006114819   -0.014616005   -0.007750382
     27        8           0.018890048   -0.018666145   -0.011631884
     28        6           0.007680260    0.004929422   -0.009649513
     29        1           0.009517333   -0.007166223    0.016305696
     30        1          -0.008372035    0.014672009    0.002588689
     31        1          -0.011844406   -0.015625266   -0.004905669
 -------------------------------------------------------------------
 Cartesian Forces:  Max     0.056039961 RMS     0.017244781

 GradGradGradGradGradGradGradGradGradGradGradGradGradGradGradGradGradGrad
 Berny optimization.
 FormGI is forming the generalized inverse of G from B-inverse, IUseBI=4.
 Internal  Forces:  Max     0.058457160 RMS     0.008972034
 Search for a local minimum.
 Step number   1 out of a maximum of  158
 All quantities printed in internal units (Hartrees-Bohrs-Radians)
 Mixed Optimization -- RFO/linear search
 Second derivative matrix not updated -- first step.
 ITU=  0
     Eigenvalues ---    0.00230   0.00230   0.00230   0.00237   0.01292
     Eigenvalues ---    0.01298   0.01330   0.01476   0.01611   0.01932
     Eigenvalues ---    0.02062   0.02063   0.02063   0.02064   0.02065
     Eigenvalues ---    0.02065   0.02065   0.02065   0.02066   0.02067
     Eigenvalues ---    0.02068   0.02070   0.02070   0.02072   0.03936
     Eigenvalues ---    0.04688   0.07241   0.07241   0.10342   0.10343
     Eigenvalues ---    0.16000   0.16000   0.16000   0.16000   0.16000
     Eigenvalues ---    0.16000   0.16000   0.16000   0.16000   0.16000
     Eigenvalues ---    0.16000   0.16000   0.16000   0.16000   0.22000
     Eigenvalues ---    0.22000   0.22981   0.22981   0.24000   0.24000
     Eigenvalues ---    0.25000   0.25000   0.25000   0.25000   0.25000
     Eigenvalues ---    0.28459   0.28520   0.28814   0.37185   0.37226
     Eigenvalues ---    0.37229   0.37230   0.37231   0.37235   0.37241
     Eigenvalues ---    0.37241   0.37245   0.37246   0.37250   0.37251
     Eigenvalues ---    0.37255   0.37279   0.40956   0.41017   0.41202
     Eigenvalues ---    0.41222   0.41616   0.41623   0.45276   0.45304
     Eigenvalues ---    0.45319   0.45329   0.45359   0.45365   0.45379
     Eigenvalues ---    0.45404   1.03091
 RFO step:  Lambda=-3.39753214D-02 EMin= 2.30000000D-03
 Linear search not attempted -- first point.
 Maximum step size (   0.300) exceeded in Quadratic search.
    -- Step size scaled by   0.944
 Iteration  1 RMS(Cart)=  0.07279522 RMS(Int)=  0.00120332
 Iteration  2 RMS(Cart)=  0.00171360 RMS(Int)=  0.00008679
 Iteration  3 RMS(Cart)=  0.00000346 RMS(Int)=  0.00008677
 Iteration  4 RMS(Cart)=  0.00000000 RMS(Int)=  0.00008677
 Variable       Old X    -DE/DX   Delta X   Delta X   Delta X     New X
                                 (Linear)    (Quad)   (Total)
    R1        2.64915  -0.00556   0.00000  -0.01075  -0.01075   2.63840
    R2        2.64814  -0.00538   0.00000  -0.01081  -0.01080   2.63734
    R3        2.02164   0.01173   0.00000   0.02724   0.02724   2.04887
    R4        2.64893   0.00073   0.00000   0.00184   0.00183   2.65075
    R5        2.02169   0.01119   0.00000   0.02598   0.02598   2.04767
    R6        2.64911   0.00053   0.00000   0.00144   0.00142   2.65053
    R7        2.90393  -0.05720   0.00000  -0.16763  -0.16763   2.73630
    R8        2.64984  -0.00582   0.00000  -0.01131  -0.01131   2.63852
    R9        2.02185   0.01112   0.00000   0.02584   0.02584   2.04769
   R10        2.64828  -0.00545   0.00000  -0.01097  -0.01096   2.63732
   R11        2.02127   0.01187   0.00000   0.02756   0.02756   2.04883
   R12        2.70194  -0.02768   0.00000  -0.05883  -0.05883   2.64311
   R13        2.27426   0.02210   0.00000   0.01959   0.01959   2.29385
   R14        2.91145  -0.05846   0.00000  -0.17321  -0.17321   2.73824
   R15        2.64919  -0.00080   0.00000  -0.00149  -0.00151   2.64769
   R16        2.64902  -0.00085   0.00000  -0.00160  -0.00161   2.64741
   R17        2.64874  -0.00444   0.00000  -0.00859  -0.00859   2.64016
   R18        2.02170   0.01157   0.00000   0.02688   0.02688   2.04858
   R19        2.64940  -0.00468   0.00000  -0.00910  -0.00910   2.64030
   R20        2.02177   0.01155   0.00000   0.02683   0.02683   2.04859
   R21        2.64779   0.00063   0.00000   0.00116   0.00118   2.64897
   R22        2.02201   0.01223   0.00000   0.02841   0.02841   2.05042
   R23        2.64810   0.00045   0.00000   0.00080   0.00081   2.64891
   R24        2.02203   0.01221   0.00000   0.02838   0.02838   2.05040
   R25        2.91015  -0.00901   0.00000  -0.02663  -0.02663   2.88352
   R26        2.02268   0.01833   0.00000   0.04264   0.04264   2.06533
   R27        2.02178   0.01731   0.00000   0.04021   0.04021   2.06199
   R28        2.02185   0.01729   0.00000   0.04016   0.04016   2.06201
   R29        2.70274   0.00611   0.00000   0.01301   0.01301   2.71575
   R30        2.02199   0.01999   0.00000   0.04644   0.04644   2.06843
   R31        2.02207   0.01632   0.00000   0.03793   0.03793   2.06000
   R32        2.02194   0.02001   0.00000   0.04648   0.04648   2.06842
    A1        2.09423  -0.00161   0.00000  -0.00643  -0.00642   2.08781
    A2        2.09403   0.00241   0.00000   0.01100   0.01099   2.10502
    A3        2.09492  -0.00079   0.00000  -0.00456  -0.00458   2.09034
    A4        2.09474  -0.00080   0.00000  -0.00176  -0.00177   2.09297
    A5        2.09446   0.00061   0.00000   0.00189   0.00189   2.09635
    A6        2.09399   0.00019   0.00000  -0.00013  -0.00012   2.09387
    A7        2.09400  -0.00007   0.00000   0.00152   0.00149   2.09549
    A8        2.09299   0.00030   0.00000   0.00012   0.00013   2.09312
    A9        2.09619  -0.00023   0.00000  -0.00164  -0.00162   2.09457
   A10        2.09431  -0.00068   0.00000  -0.00147  -0.00148   2.09283
   A11        2.09433   0.00013   0.00000  -0.00029  -0.00029   2.09404
   A12        2.09455   0.00055   0.00000   0.00176   0.00177   2.09631
   A13        2.09430  -0.00156   0.00000  -0.00636  -0.00634   2.08796
   A14        2.09420   0.00233   0.00000   0.01074   0.01073   2.10493
   A15        2.09469  -0.00078   0.00000  -0.00438  -0.00440   2.09029
   A16        2.09479   0.00472   0.00000   0.01450   0.01451   2.10930
   A17        2.09388  -0.00231   0.00000  -0.00709  -0.00714   2.08674
   A18        2.09451  -0.00241   0.00000  -0.00741  -0.00747   2.08704
   A19        2.09348   0.00022   0.00000   0.00079   0.00081   2.09429
   A20        2.09627  -0.00024   0.00000  -0.00071  -0.00070   2.09558
   A21        2.09344   0.00002   0.00000  -0.00008  -0.00011   2.09332
   A22        2.09487  -0.00107   0.00000  -0.00419  -0.00421   2.09066
   A23        2.09431  -0.00041   0.00000  -0.00249  -0.00248   2.09183
   A24        2.09400   0.00148   0.00000   0.00668   0.00669   2.10069
   A25        2.09466  -0.00099   0.00000  -0.00402  -0.00404   2.09062
   A26        2.09451  -0.00044   0.00000  -0.00256  -0.00256   2.09196
   A27        2.09401   0.00143   0.00000   0.00658   0.00659   2.10060
   A28        2.09449   0.00390   0.00000   0.01406   0.01408   2.10857
   A29        2.09419  -0.00223   0.00000  -0.00839  -0.00839   2.08580
   A30        2.09450  -0.00167   0.00000  -0.00567  -0.00568   2.08882
   A31        2.09438   0.00398   0.00000   0.01421   0.01423   2.10861
   A32        2.09438  -0.00229   0.00000  -0.00859  -0.00860   2.08578
   A33        2.09442  -0.00168   0.00000  -0.00562  -0.00563   2.08879
   A34        2.09453  -0.00584   0.00000  -0.01998  -0.01995   2.07458
   A35        2.09395   0.00300   0.00000   0.01025   0.01023   2.10417
   A36        2.09471   0.00284   0.00000   0.00972   0.00969   2.10440
   A37        1.91105   0.00266   0.00000   0.01211   0.01201   1.92306
   A38        1.91064   0.00367   0.00000   0.01825   0.01809   1.92872
   A39        1.91063   0.00369   0.00000   0.01838   0.01822   1.92885
   A40        1.91025  -0.00342   0.00000  -0.01749  -0.01759   1.89267
   A41        1.91016  -0.00342   0.00000  -0.01745  -0.01755   1.89260
   A42        1.91106  -0.00317   0.00000  -0.01381  -0.01402   1.89705
   A43        1.91090   0.01403   0.00000   0.04664   0.04664   1.95754
   A44        1.91072   0.00521   0.00000   0.02681   0.02658   1.93730
   A45        1.91054  -0.00975   0.00000  -0.05035  -0.05024   1.86030
   A46        1.91075   0.00520   0.00000   0.02673   0.02650   1.93724
   A47        1.91056   0.00048   0.00000  -0.00056  -0.00045   1.91011
   A48        1.91064  -0.00161   0.00000  -0.00207  -0.00260   1.90804
   A49        1.91059   0.00048   0.00000  -0.00056  -0.00045   1.91014
   A50        3.14158  -0.00002   0.00000  -0.00026  -0.00026   3.14133
   A51        3.14167  -0.00002   0.00000  -0.00050  -0.00050   3.14117
   A52        3.14159   0.00009   0.00000   0.00099   0.00099   3.14258
   A53        3.14159   0.00009   0.00000   0.00204   0.00204   3.14363
    D1        0.00127  -0.00004   0.00000  -0.00072  -0.00071   0.00056
    D2       -3.14107   0.00010   0.00000   0.00166   0.00167  -3.13939
    D3       -3.14014  -0.00033   0.00000  -0.00567  -0.00569   3.13735
    D4        0.00070  -0.00019   0.00000  -0.00329  -0.00330  -0.00260
    D5        0.00017   0.00016   0.00000   0.00296   0.00299   0.00316
    D6        3.14130  -0.00069   0.00000  -0.01205  -0.01206   3.12924
    D7        3.14159   0.00045   0.00000   0.00792   0.00792  -3.13367
    D8       -0.00047  -0.00040   0.00000  -0.00709  -0.00713  -0.00759
    D9       -0.00200  -0.00010   0.00000  -0.00184  -0.00184  -0.00384
   D10        3.13970   0.00004   0.00000   0.00084   0.00085   3.14055
   D11        3.14034  -0.00024   0.00000  -0.00422  -0.00423   3.13611
   D12       -0.00115  -0.00009   0.00000  -0.00154  -0.00154  -0.00268
   D13        0.00128   0.00012   0.00000   0.00215   0.00216   0.00343
   D14       -3.14084   0.00024   0.00000   0.00432   0.00433  -3.13651
   D15       -3.14042  -0.00003   0.00000  -0.00053  -0.00053  -3.14095
   D16        0.00065   0.00010   0.00000   0.00164   0.00164   0.00229
   D17       -3.14143  -0.00005   0.00000  -0.00132  -0.00133   3.14043
   D18        0.00074  -0.00008   0.00000  -0.00150  -0.00148  -0.00074
   D19        0.00027   0.00008   0.00000   0.00145   0.00143   0.00170
   D20       -3.14075   0.00004   0.00000   0.00128   0.00128  -3.13947
   D21        0.00017   0.00000   0.00000   0.00008   0.00008   0.00025
   D22       -3.14139   0.00029   0.00000   0.00512   0.00513  -3.13625
   D23       -3.14090  -0.00012   0.00000  -0.00209  -0.00210   3.14019
   D24        0.00072   0.00017   0.00000   0.00295   0.00296   0.00368
   D25       -0.00089  -0.00014   0.00000  -0.00265  -0.00267  -0.00357
   D26        3.14116   0.00070   0.00000   0.01237   0.01238  -3.12964
   D27        3.14066  -0.00044   0.00000  -0.00768  -0.00769   3.13298
   D28       -0.00046   0.00041   0.00000   0.00734   0.00737   0.00690
   D29        1.57314   0.00042   0.00000   0.00754   0.00746   1.58060
   D30       -1.56892  -0.00042   0.00000  -0.00747  -0.00739  -1.57631
   D31       -3.13884  -0.00013   0.00000  -0.00238  -0.00239  -3.14123
   D32        0.00285  -0.00003   0.00000  -0.00075  -0.00076   0.00209
   D33        0.00218  -0.00008   0.00000  -0.00135  -0.00134   0.00084
   D34       -3.13932   0.00002   0.00000   0.00028   0.00029  -3.13903
   D35        3.13715   0.00018   0.00000   0.00315   0.00315   3.14030
   D36       -0.00362   0.00004   0.00000   0.00086   0.00087  -0.00275
   D37       -0.00386   0.00012   0.00000   0.00212   0.00210  -0.00176
   D38        3.13856  -0.00002   0.00000  -0.00017  -0.00019   3.13837
   D39        0.00060   0.00005   0.00000   0.00054   0.00055   0.00115
   D40        3.14136   0.00005   0.00000   0.00076   0.00077  -3.14106
   D41       -3.14109  -0.00005   0.00000  -0.00108  -0.00108   3.14102
   D42       -0.00033  -0.00004   0.00000  -0.00087  -0.00087  -0.00120
   D43        0.00277  -0.00013   0.00000  -0.00205  -0.00206   0.00071
   D44       -3.13875  -0.00011   0.00000  -0.00170  -0.00171  -3.14046
   D45       -3.13965   0.00000   0.00000   0.00024   0.00023  -3.13942
   D46        0.00202   0.00003   0.00000   0.00058   0.00058   0.00260
   D47       -0.00169  -0.00006   0.00000  -0.00047  -0.00049  -0.00218
   D48        3.13872  -0.00045   0.00000  -0.00823  -0.00820   3.13052
   D49        3.14074  -0.00006   0.00000  -0.00069  -0.00071   3.14003
   D50       -0.00203  -0.00045   0.00000  -0.00845  -0.00841  -0.01045
   D51        0.00001   0.00010   0.00000   0.00121   0.00124   0.00125
   D52       -3.14041   0.00049   0.00000   0.00898   0.00895  -3.13146
   D53        3.14153   0.00007   0.00000   0.00087   0.00089  -3.14077
   D54        0.00111   0.00046   0.00000   0.00863   0.00860   0.00971
   D55       -1.56982   0.00020   0.00000   0.00395   0.00399  -1.56582
   D56        0.52437  -0.00012   0.00000   0.00113   0.00113   0.52550
   D57        2.61930   0.00051   0.00000   0.00666   0.00674   2.62603
   D58        1.57060  -0.00019   0.00000  -0.00383  -0.00387   1.56673
   D59       -2.61840  -0.00051   0.00000  -0.00665  -0.00673  -2.62513
   D60       -0.52348   0.00011   0.00000  -0.00112  -0.00112  -0.52460
   D61        1.04885   0.00219   0.00000   0.01498   0.01548   1.06434
   D62       -3.14002   0.00000   0.00000  -0.00013  -0.00013  -3.14016
   D63       -1.04567  -0.00221   0.00000  -0.01529  -0.01579  -1.06146
         Item               Value     Threshold  Converged?
 Maximum Force            0.058457     0.000450     NO 
 RMS     Force            0.008972     0.000300     NO 
 Maximum Displacement     0.193022     0.001800     NO 
 RMS     Displacement     0.073676     0.001200     NO 
 Predicted change in Energy=-1.849415D-02
 GradGradGradGradGradGradGradGradGradGradGradGradGradGradGradGradGradGrad

                          Input orientation:                          
 ---------------------------------------------------------------------
 Center     Atomic      Atomic             Coordinates (Angstroms)
 Number     Number       Type             X           Y           Z
 ---------------------------------------------------------------------
      1          6           0       -5.338728    0.992304   -0.440786
      2          6           0       -4.463701    0.027862   -0.944275
      3          6           0       -3.194422   -0.133483   -0.369372
      4          6           0       -2.802555    0.675944    0.706990
      5          6           0       -3.679242    1.640056    1.208396
      6          6           0       -4.941777    1.790536    0.632996
      7          1           0       -6.320891    1.129217   -0.879120
      8          1           0       -4.762954   -0.594829   -1.779053
      9          1           0       -1.819949    0.553358    1.147020
     10          1           0       -3.386120    2.275125    2.036793
     11          6           0       -2.287271   -1.134535   -0.890557
     12          6           0       -1.527387   -1.974455   -1.327073
     13          6           0       -0.618985   -2.975341   -1.849251
     14          6           0        0.649640   -3.136591   -1.276838
     15          6           0       -1.007990   -3.782840   -2.925950
     16          6           0        1.522203   -4.102667   -1.784036
     17          1           0        0.948322   -2.512611   -0.442194
     18          6           0       -0.126778   -4.745025   -3.425744
     19          1           0       -1.990988   -3.659031   -3.365942
     20          6           0        1.145506   -4.915086   -2.862485
     21          1           0        2.503389   -4.224023   -1.336992
     22          1           0       -0.432313   -5.367266   -4.260459
     23          6           0        2.108457   -5.958619   -3.421156
     24          1           0        2.723917   -5.519541   -4.210397
     25          1           0        2.768128   -6.329650   -2.635159
     26          1           0        1.557292   -6.801192   -3.841797
     27          8           0       -5.813689    2.766367    1.126772
     28          6           0       -6.655098    2.260447    2.176237
     29          1           0       -6.057793    1.917683    3.027012
     30          1           0       -7.292434    3.087295    2.490010
     31          1           0       -7.278668    1.436169    1.815974
 ---------------------------------------------------------------------
                    Distance matrix (angstroms):
                    1          2          3          4          5
     1  C    0.000000
     2  C    1.396180   0.000000
     3  C    2.422920   1.402718   0.000000
     4  C    2.801722   2.430246   1.402600   0.000000
     5  C    2.427608   2.801525   2.422776   1.396245   0.000000
     6  C    1.395619   2.413164   2.785649   2.413309   1.395609
     7  H    1.084217   2.160181   3.410141   3.885858   3.405436
     8  H    2.154406   1.083582   2.158781   3.411516   3.885100
     9  H    3.885307   3.411611   2.158789   1.083591   2.154449
    10  H    3.405394   3.885632   3.409951   2.160162   1.084192
    11  C    3.746615   2.467975   1.447986   2.468909   3.747205
    12  C    4.910548   3.574598   2.661837   3.576043   4.911596
    13  C    6.324710   4.961860   4.110849   4.963289   6.325842
    14  C    7.321701   6.022510   4.961750   5.512590   6.908833
    15  C    6.908931   5.512751   4.963304   6.024905   7.323675
    16  C    8.650747   7.321033   6.324733   6.909694   8.305935
    17  H    7.198015   5.999674   4.777853   5.055352   6.432996
    18  C    8.306103   6.909924   6.325992   7.322991   8.652429
    19  H    6.434191   5.056873   4.780919   6.003285   7.201049
    20  C    9.099844   7.718515   6.922016   7.719323   9.100558
    21  H    9.461080   8.171481   7.080527   7.506036   8.893332
    22  H    8.894208   7.507102   7.082534   8.173982   9.463270
    23  C   10.614070   9.228551   8.447847   9.229142  10.614616
    24  H   11.028161   9.648995   8.876364   9.649178  11.028309
    25  H   11.142145   9.776319   8.892597   9.554100  10.947955
    26  H   10.948084   9.554265   8.893530   9.777899  11.143627
    27  O    2.414566   3.689324   4.184272   3.689581   2.414767
    28  C    3.192151   4.418625   4.918059   4.417173   3.190191
    29  H    3.660465   4.677999   4.893015   4.185808   3.006982
    30  H    4.098234   5.399646   5.945013   5.399332   4.097827
    31  H    3.008878   4.186447   4.890870   4.673689   3.656035
                    6          7          8          9         10
     6  C    0.000000
     7  H    2.150766   0.000000
     8  H    3.397047   2.491863   0.000000
     9  H    3.397152   4.969440   4.305986   0.000000
    10  H    2.150707   4.292847   4.969204   2.491801   0.000000
    11  C    4.233634   4.625451   2.685091   2.686837   4.626297
    12  C    5.447484   5.728099   3.546343   3.549164   5.729695
    13  C    6.896497   7.092269   4.779566   4.782433   7.094066
    14  C    7.693373   8.181907   6.000746   5.058624   7.520251
    15  C    7.694368   7.519623   5.057523   6.004246   8.184330
    16  C    9.074961   9.471304   7.197788   6.437362   8.908793
    17  H    7.373355   8.142191   6.171203   4.425956   6.917743
    18  C    9.075855   8.908370   6.436602   7.200685   9.473391
    19  H    7.375395   6.918068   4.426212   6.175783   8.145560
    20  C    9.707665   9.808894   7.399212   7.400940   9.810080
    21  H    9.771707  10.331251   8.134262   6.905427   9.397215
    22  H    9.773192   9.397505   6.905649   8.137576  10.333755
    23  C   11.233492  11.302799   8.870346   8.871665  11.303721
    24  H   11.647255  11.709481   9.285336   9.285943  11.709686
    25  H   11.664514  11.888172   9.504646   9.095665  11.564776
    26  H   11.665310  11.564368   9.095019   9.507021  11.890108
    27  O    1.398675   2.638393   4.565687   4.565937   2.638664
    28  C    2.353270   3.275146   5.232316   5.229925   3.271984
    29  H    2.644422   3.993591   5.575624   4.832709   2.871608
    30  H    3.264303   4.016093   6.179094   6.178394   4.015509
    31  H    2.643118   2.876645   4.835079   5.569962   3.988049
                   11         12         13         14         15
    11  C    0.000000
    12  C    1.213852   0.000000
    13  C    2.662863   1.449013   0.000000
    14  C    3.575316   2.468305   1.401096   0.000000
    15  C    3.576717   2.469096   1.400949   2.425891   0.000000
    16  C    4.911233   3.746745   2.420703   1.397111   2.794304
    17  H    3.545304   2.683609   2.156474   1.084063   3.407298
    18  C    4.912285   3.747291   2.420616   2.794224   1.397186
    19  H    3.548013   2.685091   2.156426   3.407377   1.084069
    20  C    5.474031   4.260182   2.811170   2.433763   2.433835
    21  H    5.717925   4.616038   3.401593   2.150003   3.879331
[...]
 44,0.00045861,0.00079760,-0.00020104,-0.00014209,0.00099603,-0.0007293
 6,0.00028009,-0.00003029,0.00007072,-0.00000562,0.00086258,-0.00141331
 ,-0.00081158,0.00012450,-0.00006086,-0.00009175,0.00996619,-0.00575975
 ,0.01076243,-0.00000021,0.00008706,-0.00012865,0.00022178,-0.00005916,
 0.00011995,-0.11764880,0.06375667,-0.18061338,-0.01499219,0.00720685,-
 0.01691959,0.12575547,-0.06774462,0.19553026,0.00000269,-0.00000225,0.
 00000279,-0.00000129,0.00000256,0.00000245,0.00001211,-0.00000091,-0.0
 0001011,-0.00000116,0.00000252,0.00000047,-0.00000104,-0.00000238,-0.0
 0000346,-0.00000286,0.00000189,0.00000160,-0.00000032,-0.00000011,0.00
 000028,-0.00000113,0.00000129,-0.00000152,0.00000039,-0.00000021,0.000
 00093,-0.00000037,0.00000030,0.00000035,-0.00001772,0.00000844,0.00000
 712,-0.00001529,-0.00008401,0.00001782,0.00019011,0.00021805,0.0001282
 5,0.00004733,0.00021086,0.00104749,0.00048070,-0.00020551,-0.00016577,
 -0.00264143,0.00210989,0.00052313,-0.00018504,0.00014625,0.00013373,0.
 00043871,0.00081386,0.00104126,0.00002635,-0.00006904,-0.00001309,0.01
 150307,0.01862557,0.00964369,0.00015337,0.00022571,0.00014920,-0.00046
 273,-0.00005845,-0.00027546,-0.11307794,-0.10112982,-0.05409326,-0.009
 22367,-0.01327634,-0.00785138,-0.00972989,-0.01568971,-0.00601589,0.12
 250836,-0.00000871,-0.00001799,-0.00002824,-0.00000323,-0.00002065,-0.
 00002225,-0.00005114,0.00005531,0.00002077,0.00002317,-0.00000763,0.00
 000117,0.00003370,-0.00000089,0.00001575,-0.00004815,0.00005436,0.0000
 2519,0.00000861,-0.00000406,0.00000123,-0.00000505,0.00000291,0.000001
 88,-0.00000174,0.00000489,0.00000619,-0.00000008,-0.00000599,-0.000005
 56,0.00002934,-0.00002138,-0.00001878,0.00002831,-0.00001731,0.0001089
 4,0.00027285,0.00011114,0.00044339,-0.00081759,0.00053001,-0.00095979,
 0.00039041,-0.00001753,-0.00041686,0.00349552,-0.00241878,-0.00029040,
 0.00019073,-0.00022220,-0.00009330,-0.00156329,0.00118571,-0.00081647,
 -0.00000227,-0.00003093,0.00003064,-0.01067626,-0.01560971,-0.00874270
 ,-0.00015835,-0.00007589,0.00018069,0.00094719,-0.00022150,0.00095717,
 -0.09895990,-0.20684211,-0.08055162,-0.00726234,-0.01097220,-0.0053850
 9,0.00592387,0.01101167,0.00447575,0.10814904,0.22362945,0.00000198,-0
 .00000567,-0.00000796,-0.00000883,-0.00000426,-0.00000712,0.00000328,-
 0.00000414,-0.00000829,0.00000645,0.00000308,0.00000554,0.00001062,-0.
 00000153,0.00000040,-0.00001467,0.00001498,0.00000792,0.00000202,-0.00
 000187,0.00000076,-0.00000309,0.00000042,0.00000108,-0.00000076,0.0000
 0200,0.00000404,-0.00000010,-0.00000212,-0.00000108,-0.00002957,0.0000
 5490,0.00001078,0.00008757,-0.00017289,0.00007605,-0.00023609,0.000192
 33,0.00008121,0.00006738,-0.00032221,-0.00069962,0.00046196,0.00016795
 ,-0.00046723,0.00179431,-0.00198341,0.00038822,0.00016835,-0.00011656,
 -0.00013481,-0.00116501,0.00127209,0.00039819,0.00001548,-0.00002090,0
 .00001359,-0.00555444,-0.01049852,-0.00762395,0.00013429,0.00010078,0.
 00037499,0.00000872,-0.00019031,0.00065430,-0.05293938,-0.07995249,-0.
 08844874,0.01219896,0.01927287,0.01092694,-0.01075365,-0.01888163,-0.0
 0873805,0.05572891,0.09109514,0.09320054,0.00491741,0.00900100,0.00506
 415,0.00167545,0.00086357,-0.00274240,-0.00050626,0.00121072,0.0015156
 9,-0.00288606,-0.00249925,-0.00651890,-0.03369180,0.04010798,0.0176512
 1,-0.14317489,0.09700335,0.03482080,0.00068727,-0.00093205,0.00210780,
 -0.00020719,-0.00010743,0.00038731,-0.00136011,0.00150551,0.00083018,0
 .00227143,-0.00192527,0.00206305,0.00074123,-0.00071823,0.00010295,-0.
 00064208,0.00071185,0.00034973,0.00060788,-0.00068650,-0.00037299,-0.0
 0010046,0.00023648,0.00019868,-0.00030221,0.00017074,0.00000114,0.0001
 1957,0.00014431,0.00021741,0.00007125,-0.00004329,0.00000136,-0.000242
 59,0.00000214,-0.00013389,0.00002530,-0.00005742,-0.00004023,0.0000355
 2,0.00010451,-0.00007601,-0.00010717,0.00003824,-0.00002108,-0.0000039
 3,0.00008464,0.00008831,-0.00004580,-0.00013503,0.00009926,-0.00011060
 ,0.00008344,0.00007657,-0.00005350,0.00006927,-0.00002934,-0.00000067,
 0.00009288,0.00002368,0.30727167,0.02202952,-0.02644350,-0.01902822,-0
 .00220534,0.00439239,-0.00579454,0.00099716,-0.00165715,0.00022599,0.0
 0160735,0.00524121,-0.00168525,0.01860169,-0.00984099,-0.00256294,0.07
 594563,-0.17229768,-0.03634486,-0.00116871,-0.00054208,0.00292402,0.00
 086522,-0.00098952,-0.00041797,0.00040820,-0.00036641,-0.00025839,-0.0
 0109399,-0.00114027,0.00236172,-0.00063717,0.00008926,0.00082657,0.000
 54356,-0.00052460,-0.00034785,-0.00047369,0.00056079,0.00024478,0.0000
 6985,-0.00018384,-0.00017248,0.00022199,-0.00011961,-0.00002002,-0.000
 08743,-0.00010364,-0.00017638,-0.00005004,0.00002181,0.00001456,0.0001
 9735,0.00000682,0.00011043,-0.00002236,0.00003403,0.00004372,-0.000024
 30,-0.00008235,0.00005674,0.00008362,-0.00003480,0.00001955,-0.0000010
 0,-0.00006533,-0.00006200,0.00003458,0.00010134,-0.00007388,0.00008715
 ,-0.00006531,-0.00006285,0.00004065,-0.00005668,0.00002277,0.00000233,
 -0.00007029,-0.00001512,-0.09068773,0.29366721,0.02748891,-0.03238220,
 -0.01174186,-0.00629635,-0.00299590,-0.00125572,0.00160939,-0.00000546
 ,-0.00015338,-0.00337847,-0.00342927,0.00243263,-0.00140195,0.00227754
 ,0.01027097,0.04312650,-0.05760118,-0.09160870,0.00165596,0.00360558,0
 .00036771,0.00116009,-0.00122211,-0.00064786,0.00010144,0.00041785,-0.
 00011689,0.00228524,0.00225227,-0.00062227,0.00006593,0.00091004,0.000
 14206,0.00041937,-0.00052105,-0.00023420,-0.00045907,0.00046197,0.0002
 5018,0.00005542,-0.00018783,-0.00015512,0.00019109,-0.00012230,-0.0000
 1695,-0.00007379,-0.00009891,-0.00014723,-0.00004000,0.00003587,0.0000
 0066,0.00017198,-0.00000418,0.00010600,-0.00001017,0.00005118,0.000034
 48,-0.00002574,-0.00007322,0.00005492,0.00008183,-0.00002917,0.0000127
 7,0.00000159,-0.00005422,-0.00006035,0.00003341,0.00009692,-0.00007060
 ,0.00007555,-0.00005946,-0.00005468,0.00004057,-0.00005019,0.00002262,
 0.00000052,-0.00006255,-0.00001668,-0.17848937,0.01273387,0.27033975,0
 .00258867,-0.00647439,-0.00240607,-0.00138707,0.00038460,-0.00082283,0
 .00096970,-0.00038011,0.00005025,0.00037640,0.00102480,-0.00112748,0.0
 0212496,0.00007904,0.00149263,-0.03265592,0.00801325,0.02314212,-0.000
 02696,0.00017445,-0.00018444,0.00022275,-0.00023794,-0.00027602,0.0001
 4240,-0.00018249,0.00005155,-0.00068649,-0.00017429,0.00006138,-0.0004
 1405,0.00021083,0.00027457,0.00028961,-0.00033386,-0.00018294,-0.00025
 285,0.00031030,0.00014082,0.00005021,-0.00009561,-0.00007251,0.0001163
 3,-0.00008195,-0.00000279,-0.00004664,-0.00005652,-0.00007931,-0.00002
 874,0.00001849,-0.00000417,0.00008936,0.00000114,0.00004928,-0.0000082
 6,0.00002836,0.00001459,-0.00001416,-0.00004248,0.00003248,0.00004229,
 -0.00001368,0.00000730,0.00000267,-0.00003279,-0.00003756,0.00001802,0
 .00005491,-0.00003841,0.00004308,-0.00003224,-0.00002961,0.00002202,-0
 .00002681,0.00001176,-0.00000056,-0.00003761,-0.00001089,-0.10659624,-
 0.01573435,0.06364031,0.53106032,0.00462463,-0.00298496,-0.00130806,-0
 .00115065,-0.00101629,-0.00004353,0.00029510,-0.00003250,0.00005398,0.
 00026427,-0.00047184,0.00056550,0.00157945,-0.00152893,-0.00263118,0.0
 1738413,0.00555450,-0.02240121,-0.00010717,0.00042286,-0.00056840,0.00
 020812,-0.00027303,-0.00014903,0.00016595,-0.00025325,-0.00002929,0.00
 005939,0.00044911,-0.00005048,-0.00000199,0.00010904,-0.00006367,0.000
 07695,-0.00010008,-0.00004677,-0.00009221,0.00009748,0.00005768,0.0000
 0810,-0.00004374,-0.00003082,0.00004928,-0.00003246,0.00001177,-0.0000
 2006,-0.00002837,-0.00003612,-0.00000818,0.00001168,-0.00000377,0.0000
 4188,-0.00000235,0.00002282,-0.00000265,0.00001458,0.00000111,-0.00000
 290,-0.00002058,0.00001160,0.00001829,-0.00000531,0.00000123,0.0000026
 5,-0.00001283,-0.00001645,0.00000931,0.00002277,-0.00001781,0.00001684
 ,-0.00001444,-0.00001086,0.00000924,-0.00001093,0.00000404,0.00000051,
 -0.00001511,-0.00000473,-0.03314514,-0.09357396,0.05086984,-0.04714954
 ,0.59321472,-0.00026593,0.00208400,0.00241026,-0.00038969,-0.00083497,
 0.00081624,-0.00023419,0.00074080,0.00080259,-0.00064932,-0.00095395,-
 0.00147606,-0.00560676,0.00669359,0.00141355,0.01945131,-0.01297432,-0
 .02115057,0.00008313,-0.00023165,-0.00054953,-0.00009432,0.00033531,0.
 00010531,-0.00044036,0.00028971,0.00016649,-0.00019544,-0.00043907,0.0
 0008035,0.00036243,-0.00028092,-0.00031359,-0.00034704,0.00036983,0.00
 018159,0.00030093,-0.00035018,-0.00015736,-0.00004317,0.00013148,0.000
 09236,-0.00012559,0.00008738,0.00001429,0.00004853,0.00006073,0.000095
 20,0.00002761,-0.00002715,0.00000273,-0.00010912,0.00000396,-0.0000683
 1,0.00000564,-0.00003382,-0.00002072,0.00001707,0.00005198,-0.00003580
 ,-0.00005516,0.00001797,-0.00000708,-0.00000190,0.00003503,0.00004046,
 -0.00002088,-0.00006424,0.00004706,-0.00004925,0.00003883,0.00003541,-
 0.00002782,0.00003301,-0.00001515,-0.00000051,0.00004154,0.00001180,0.
 07049799,0.03331943,-0.13407568,0.05461369,0.03709331,0.49683802,-0.00
 041018,0.00108384,-0.00029225,0.00036451,-0.00005128,0.00010875,-0.000
 14088,-0.00010836,-0.00023122,-0.00001334,0.00017244,0.00016091,0.0006
 2367,-0.00080975,-0.00074550,0.00362734,-0.00260341,0.00152147,-0.0000
 1999,-0.00006962,0.00006126,-0.00005404,-0.00001852,0.00005548,0.00000
 859,-0.00005593,0.00002079,-0.00032814,-0.00011608,0.00008515,-0.00001
 195,-0.00000967,-0.00001274,0.00000915,-0.00001030,0.00000219,-0.00000
 440,0.00000664,0.00000376,0.00000036,-0.00000438,-0.00000177,0.0000023
 3,-0.00000103,-0.00000143,-0.00000047,-0.00000148,-0.00000162,-0.00000
 009,0.00000195,-0.00000044,0.00000181,-0.00000170,0.00000230,0.0000003
 8,0.00000129,0.00000001,-0.00000013,-0.00000091,-0.00000017,0.00000192
 ,-0.00000033,-0.00000038,0.00000012,-0.00000014,-0.00000082,0.00000028
 ,0.00000117,-0.00000084,0.00000068,-0.00000084,-0.00000061,0.00000100,
 -0.00000074,0.00000043,0.00000015,-0.00000062,-0.00000044,0.00893284,-
 0.00871986,0.02656544,-0.13359051,0.04414402,-0.11349114,0.13784234,-0
 .00041095,0.00036083,0.00016490,0.00016847,-0.00006698,-0.00001813,-0.
 00010362,-0.00000227,-0.00003993,-0.00020776,-0.00008970,-0.00001192,-
 0.00009117,0.00048608,0.00053974,0.00044934,-0.00109834,-0.00200647,0.
 00001867,-0.00004195,0.00007122,-0.00000995,0.00004763,0.00000293,-0.0
 0002912,0.00008648,-0.00000780,-0.00011990,-0.00001262,-0.00004442,0.0
 0002367,-0.00002181,-0.00000970,-0.00003060,0.00002565,0.00001346,0.00
 003003,-0.00004101,-0.00001335,-0.00000198,0.00001460,0.00001156,-0.00
 001496,0.00000981,-0.00000197,0.00000616,0.00000797,0.00001389,0.00000
 439,-0.00000186,-0.00000074,-0.00001569,-0.00000070,-0.00000734,0.0000
 0115,-0.00000305,-0.00000316,0.00000430,0.00000863,-0.00000780,-0.0000
 0654,0.00000277,-0.00000131,0.00000003,0.00000468,0.00000473,-0.000003
 46,-0.00000880,0.00000677,-0.00000639,0.00000474,0.00000473,-0.0000031
 7,0.00000432,-0.00000195,-0.00000014,0.00000530,0.00000121,0.00036634,
 -0.00177999,0.01398017,0.04189955,-0.07554259,0.05484301,-0.04271347,0
 .07470393,0.00050273,-0.00150936,-0.00075861,-0.00061068,0.00028863,0.
 00000884,0.00044693,0.00010537,0.00025009,0.00040157,-0.00045528,-0.00
 018848,0.00023695,-0.00071384,0.00021107,-0.00450888,0.00474310,0.0016
 7428,0.00005078,0.00011538,0.00014196,0.00005475,-0.00004194,-0.000060
 06,0.00005852,-0.00004559,-0.00002381,0.00025014,0.00033065,-0.0000605
 6,-0.00000107,0.00002927,0.00005770,0.00002635,-0.00004324,-0.00002013
 ,-0.00003075,0.00003673,0.00001358,0.00000143,-0.00001494,-0.00001122,
 0.00001213,-0.00000885,-0.00000231,-0.00000485,-0.00000849,-0.00001007
 ,-0.00000100,0.00000421,-0.00000059,0.00001232,-0.00000130,0.00000915,
 0.00000018,0.00000440,0.00000125,-0.00000036,-0.00000547,0.00000311,0.
 00000658,-0.00000176,0.00000025,0.00000026,-0.00000288,-0.00000433,0.0
 0000232,0.00000670,-0.00000525,0.00000493,-0.00000451,-0.00000358,0.00
 000331,-0.00000368,0.00000162,0.00000022,-0.00000420,-0.00000137,0.004
 11010,0.01146440,-0.03098802,-0.11012504,0.05344208,-0.19911502,0.1140
 3534,-0.06844066,0.22674784,-0.00047984,0.00009806,0.00001213,-0.00007
 524,0.00039570,-0.00003907,0.00012860,0.00003848,0.00017121,0.00008836
 ,-0.00006740,-0.00028007,-0.00024114,0.00045999,0.00042763,-0.00075195
 ,-0.00246787,0.00248850,-0.00000623,-0.00013031,0.00019254,-0.00002918
 ,0.00006890,0.00001463,-0.00006044,0.00003046,0.00002545,0.00002307,-0
 .00001974,-0.00002904,-0.00001421,-0.00000263,0.00002438,-0.00002340,0
 .00002154,0.00000900,0.00004186,-0.00004727,-0.00002383,-0.00000176,0.
 00002008,0.00002121,-0.00002597,0.00000931,-0.00000507,0.00000947,0.00
 001501,0.00002182,0.00000625,-0.00000372,-0.00000066,-0.00002549,0.000
 00166,-0.00001199,0.00000205,-0.00000533,-0.00000417,0.00000580,0.0000
 0897,-0.00000898,-0.00001007,0.00000394,-0.00000211,-0.00000020,0.0000
 0746,0.00000763,-0.00000495,-0.00001245,0.00000963,-0.00000974,0.00000
 758,0.00000714,-0.00000485,0.00000656,-0.00000282,-0.00000014,0.000008
 19,0.00000193,-0.01750760,0.01614326,0.01237910,-0.12822374,0.11511669
 ,0.02980621,-0.00805413,0.01457662,0.00352694,0.14204187,-0.00010338,0
 .00039960,0.00019606,0.00007357,0.00019864,0.00002767,0.00002287,0.000
 03238,0.00008587,-0.00001548,-0.00003923,-0.00021686,-0.00039629,0.000
 38929,-0.00002781,-0.00132269,0.00098546,0.00124388,-0.00001302,-0.000
 10192,0.00015769,-0.00001845,0.00001267,0.00000495,-0.00001819,0.00000
 248,0.00002164,-0.00005077,-0.00007839,0.00002337,0.00000382,-0.000029
 62,0.00001121,0.00000636,-0.00000323,-0.00000749,-0.00002278,0.0000339
 8,0.00000950,-0.00000028,-0.00001243,-0.00001147,0.00001560,-0.0000067
 8,0.00000349,-0.00000466,-0.00000896,-0.00001520,-0.00000510,0.0000017
 1,0.00000040,0.00001693,-0.00000045,0.00000664,-0.00000146,0.00000313,
 0.00000429,-0.00000673,-0.00000731,0.00000977,0.00000639,-0.00000255,0
 .00000162,-0.00000018,-0.00000524,-0.00000495,0.00000357,0.00000894,-0
 .00000714,0.00000659,-0.00000451,-0.00000474,0.00000319,-0.00000422,0.
 00000207,-0.00000021,-0.00000562,-0.00000129,-0.00898807,0.01121304,0.
 00506192,0.12362335,-0.23358108,-0.05360894,0.00315354,-0.00559098,-0.
 00226427,-0.12907400,0.24282506,0.00063653,-0.00050526,-0.00017358,-0.
 00034621,-0.00006616,0.00007137,0.00017570,0.00007112,0.00010612,0.000
 13195,-0.00039940,0.00014925,0.00022201,-0.00039610,-0.00039928,0.0020
 2863,0.00240078,-0.00226346,-0.00003271,0.00004820,-0.00003324,0.00004
 723,-0.00004265,-0.00005157,0.00004679,-0.00006802,-0.00001043,0.00016
 611,0.00022397,-0.00008411,0.00002217,0.00001758,-0.00001998,0.0000149
 0,-0.00002263,-0.00001210,-0.00003342,0.00003414,0.00001995,0.00000036
 ,-0.00001448,-0.00001598,0.00002126,-0.00000767,0.00000266,-0.00000705
 ,-0.00001165,-0.00001642,-0.00000395,0.00000318,0.00000011,0.00001865,
 -0.00000136,0.00001010,-0.00000184,0.00000402,0.00000289,-0.00000284,-
 0.00000602,0.00000556,0.00000736,-0.00000272,0.00000130,0.00000021,-0.
 00000583,-0.00000589,0.00000340,0.00000896,-0.00000708,0.00000754,-0.0
 0000575,-0.00000502,0.00000355,-0.00000477,0.00000187,0.00000015,-0.00
 000628,-0.00000143,0.02233182,-0.02031074,-0.01343148,0.02643787,-0.04
 502466,-0.06246973,-0.01356815,0.02055232,0.00880110,-0.04388111,0.053
 24086,0.07124760,0.00024560,0.00058372,-0.00005074,-0.00036422,0.00043
 450,0.00012113,0.00022470,0.00013536,0.00037739,0.00011901,-0.00040291
 ,-0.00039983,-0.00108728,0.00104255,-0.00012332,0.00246515,-0.00485600
 ,-0.00248509,0.00002638,-0.00021632,0.00030432,-0.00002943,0.00001239,
 0.00003914,-0.00006472,0.00001464,0.00004389,0.00017376,-0.00000649,0.
 00007390,0.00005431,0.00000432,0.00001019,-0.00002509,0.00002577,0.000
 00218,0.00001507,-0.00001984,-0.00000993,-0.00000465,0.00000505,0.0000
 0382,-0.00000870,0.00000516,-0.00000194,0.00000441,0.00000525,0.000004
 29,0.00000101,-0.00000230,0.00000157,-0.00000552,0.00000186,-0.0000035
 3,0.00000034,-0.00000272,0.00000181,-0.00000072,0.00000209,0.00000048,
 -0.00000247,0.00000011,0.00000005,-0.00000066,0.00000174,0.00000315,-0
 .00000118,-0.00000307,0.00000205,-0.00000247,0.00000231,0.00000130,-0.
 00000146,0.00000143,-0.00000050,-0.00000006,0.00000249,0.00000102,-0.0
 1981766,-0.01697317,0.00902527,-0.13422660,-0.10239431,-0.05306691,-0.
 00878922,-0.01377984,-0.00846213,0.01320295,0.01310594,0.00555309,0.14
 789941,-0.00099508,0.00073983,0.00007423,-0.00002711,0.00013176,0.0002
 8683,0.00002100,0.00008730,0.00017981,0.00012148,-0.00018515,-0.000166
 02,-0.00067707,0.00034524,0.00022895,0.00334580,-0.00066380,-0.0002542
 1,0.00007017,-0.00003266,0.00009522,-0.00003842,0.00011489,0.00000568,
 -0.00002711,0.00005531,-0.00001436,0.00003054,-0.00004119,0.00001234,0
 .00003434,-0.00002249,-0.00001642,-0.00003478,0.00004370,0.00002295,0.
 00003782,-0.00005164,-0.00001884,-0.00000531,0.00001709,0.00001252,-0.
 00002096,0.00001245,-0.00000377,0.00000838,0.00001105,0.00001638,0.000
 00471,-0.00000318,0.00000073,-0.00001843,0.00000049,-0.00000934,0.0000
 0192,-0.00000475,-0.00000250,0.00000393,0.00000981,-0.00000771,-0.0000
 0742,0.00000229,-0.00000130,-0.00000071,0.00000627,0.00000691,-0.00000
 397,-0.00001048,0.00000804,-0.00000791,0.00000591,0.00000526,-0.000003
 91,0.00000492,-0.00000192,0.00000004,0.00000702,0.00000190,-0.01187157
 ,-0.00538991,0.00614416,-0.10473642,-0.19035210,-0.06647165,0.00673350
 ,0.00852922,0.00299932,-0.01520774,-0.01662385,-0.00970299,0.12327028,
 0.20325665,-0.00071100,0.00044603,0.00034756,0.00021987,-0.00012893,-0
 .00006159,-0.00025814,-0.00007085,-0.00021375,0.00002141,0.00028116,0.
 00037811,0.00035549,-0.00134480,-0.00006399,-0.00091632,0.00438763,0.0
 0241467,0.00003110,0.00001223,-0.00039092,0.00001103,0.00001818,-0.000
 01378,0.00005804,-0.00000382,-0.00005664,0.00003660,0.00009708,-0.0000
 5142,-0.00002552,0.00000885,-0.00000735,0.00000964,-0.00000156,-0.0000
 0400,-0.00000725,0.00001266,0.00000462,-0.00000021,-0.00000509,-0.0000
 0262,0.00000417,-0.00000109,0.00000014,-0.00000151,-0.00000080,-0.0000
 0520,-0.00000131,0.00000004,0.00000071,0.00000472,0.00000050,0.0000025
 4,-0.00000040,-0.00000033,0.00000181,-0.00000209,-0.00000300,0.0000025
 9,0.00000186,-0.00000105,0.00000065,-0.00000041,-0.00000145,-0.0000006
 9,0.00000108,0.00000262,-0.00000223,0.00000196,-0.00000137,-0.00000158
 ,0.00000074,-0.00000138,0.00000066,0.00000005,-0.00000136,0.,0.0258850
 2,0.02296493,0.00136293,-0.05462056,-0.06969811,-0.08369910,-0.0142737
 8,-0.01959399,-0.00666844,-0.00485816,-0.00394275,-0.00141909,0.049033
 85,0.06656981,0.08814537||-0.00000879,-0.00000412,-0.00000316,-0.00001
 171,0.00000954,0.00000437,0.00000443,-0.00000494,-0.00000450,-0.000004
 00,0.00000709,0.00000299,0.00000141,0.00000752,0.00000679,0.00000493,-
 0.00002780,-0.00000235,0.00000481,-0.00000082,0.00000190,0.00000228,0.
 00000024,0.00000106,-0.00000079,-0.00000119,-0.00000236,-0.00000199,-0
 .00000341,-0.00000451,0.00000991,-0.00000323,0.00000108,0.00000500,-0.
 00001809,-0.00000740,-0.00000930,0.00002348,0.00001646,0.00000190,-0.0
 0000558,-0.00000490,0.00000162,-0.00000528,-0.00000604,-0.00000030,0.0
 0000655,0.00000425,-0.00000051,0.00000050,-0.00000139,-0.00000446,0.00
 000265,-0.00000075,0.00000147,0.00000111,0.00000096,0.00000353,-0.0000
 0848,-0.00000232,-0.00000399,0.00000267,-0.00000072,-0.00000060,0.0000
 0353,0.00000226,-0.00000046,0.00000340,-0.00000089,-0.00000155,-0.0000
 0255,0.00000266,-0.00000205,0.00000168,-0.00000360,0.00000232,0.000003
 52,0.00000119,0.00002239,0.00004693,-0.00002171,-0.00002741,-0.0000437
 7,0.00003530,-0.00000508,0.00000508,-0.00000707,0.00001211,-0.00000474
 ,-0.00001190,0.00000489,0.00000852,0.00000430|||@


 ALL MY ATTEMPTS TO ADAPT THE THEORETICAL FOUNDATIONS OF PHYSICS
 TO THESE NEW NOTIONS FAILED COMPLETELY. IT WAS AS IF THE GROUND HAD
 BEEN PULLED OUT FROM UNDER ONE WITH NO FIRM FOUNDATION TO BE SEEN ANYWHERE,
 UPON WHICH ONE COULD HAVE BUILT.  -- A.EINSTEIN
 Job cpu time:       0 days  1 hours  4 minutes  1.0 seconds.
 File lengths (MBytes):  RWF=    732 Int=      0 D2E=      0 Chk=     11 Scr=      1
 Normal termination of Gaussian 09 at Thu Aug 24 15:35:58 2023.
