 Entering Gaussian System, Link 0=C:\G09W\g09.exe
 Input=D:\machine learning\molecule_50.gjf
 Output=D:\machine learning\molecule_50.log
 Initial command:
 C:/G09W\l1.exe ".\Gau-4388.inp" "D:\machine learning\molecule_50.log" /scrdir=".\"
 Entering Link 1 = C:/G09W\l1.exe PID=      4352.
  
 Copyright (c) 1988,1990,1992,1993,1995,1998,2003,2009,2013,
            Gaussian, Inc.  All Rights Reserved.
  
 This is part of the Gaussian(R) 09 program.  It is based on
 the Gaussian(R) 03 system (copyright 2003, Gaussian, Inc.),
 the Gaussian(R) 98 system (copyright 1998, Gaussian, Inc.),
 the Gaussian(R) 94 system (copyright 1995, Gaussian, Inc.),
 the Gaussian 92(TM) system (copyright 1992, Gaussian, Inc.),
 the Gaussian 90(TM) system (copyright 1990, Gaussian, Inc.),
 the Gaussian 88(TM) system (copyright 1988, Gaussian, Inc.),
 the Gaussian 86(TM) system (copyright 1986, Carnegie Mellon
 University), and the Gaussian 82(TM) system (copyright 1983,
 Carnegie Mellon University). Gaussian is a federally registered
 trademark of Gaussian, Inc.
  
 This software contains proprietary and confidential information,
 including trade secrets, belonging to Gaussian, Inc.
  
 This software is provided under written license and may be
 used, copied, transmitted, or stored only in accord with that
 written license.
  
 The following legend is applicable only to US Government
 contracts under FAR:
  
                    RESTRICTED RIGHTS LEGEND
  
 Use, reproduction and disclosure by the US Government is
 subject to restrictions as set forth in subparagraphs (a)
 and (c) of the Commercial Computer Software - Restricted
 Rights clause in FAR 52.227-19.
  
 Gaussian, Inc.
 340 Quinnipiac St., Bldg. 40, Wallingford CT 06492
  
  
 ---------------------------------------------------------------
 Warning -- This program may not be used in any manner that
 competes with the business of Gaussian, Inc. or will provide
 assistance to any competitor of Gaussian, Inc.  The licensee
 of this program is prohibited from giving any competitor of
 Gaussian, Inc. access to this program.  By using this program,
 the user acknowledges that Gaussian, Inc. is engaged in the
 business of creating and licensing software in the field of
 computational chemistry and represents and warrants to the
 licensee that it is not a competitor of Gaussian, Inc. and that
 it will not use this program in any manner prohibited above.
 ---------------------------------------------------------------
  

 Cite this work as:
 Gaussian 09, Revision D.01,
 M. J. Frisch, G. W. Trucks, H. B. Schlegel, G. E. Scuseria, 
 M. A. Robb, J. R. Cheeseman, G. Scalmani, V. Barone, B. Mennucci, 
 G. A. Petersson, H. Nakatsuji, M. Caricato, X. Li, H. P. Hratchian, 
 A. F. Izmaylov, J. Bloino, G. Zheng, J. L. Sonnenberg, M. Hada, 
 M. Ehara, K. Toyota, R. Fukuda, J. Hasegawa, M. Ishida, T. Nakajima, 
 Y. Honda, O. Kitao, H. Nakai, T. Vreven, J. A. Montgomery, Jr., 
 J. E. Peralta, F. Ogliaro, M. Bearpark, J. J. Heyd, E. Brothers, 
 K. N. Kudin, V. N. Staroverov, T. Keith, R. Kobayashi, J. Normand, 
 K. Raghavachari, A. Rendell, J. C. Burant, S. S. Iyengar, J. Tomasi, 
 M. Cossi, N. Rega, J. M. Millam, M. Klene, J. E. Knox, J. B. Cross, 
 V. Bakken, C. Adamo, J. Jaramillo, R. Gomperts, R. E. Stratmann, 
 O. Yazyev, A. J. Austin, R. Cammi, C. Pomelli, J. W. Ochterski, 
 R. L. Martin, K. Morokuma, V. G. Zakrzewski, G. A. Voth, 
 P. Salvador, J. J. Dannenberg, S. Dapprich, A. D. Daniels, 
 O. Farkas, J. B. Foresman, J. V. Ortiz, J. Cioslowski, 
 and D. J. Fox, Gaussian, Inc., Wallingford CT, 2013.
 
 ******************************************
 Gaussian 09:  EM64W-G09RevD.01 13-Apr-2013
                26-Aug-2023 
 ******************************************
 %nprocshared=6
 Will use up to    6 processors via shared memory.
 %mem=6GB
 %chk=D:\machine learning\molecule_50.chk
 --------------------------------------------------------------------
 # opt freq b3lyp/6-31+g(d) geom=connectivity empiricaldispersion=gd3
 --------------------------------------------------------------------
 1/14=-1,18=20,19=15,26=3,38=1,57=2/1,3;
 2/9=110,12=2,17=6,18=5,40=1/2;
 3/5=1,6=6,7=11,11=2,16=1,25=1,30=1,71=1,74=-5,124=31/1,2,3;
 4//1;
 5/5=2,38=5/2;
 6/7=2,8=2,9=2,10=2,28=1/1;
 7//1,2,3,16;
 1/14=-1,18=20,19=15,26=3/3(2);
 2/9=110/2;
 99//99;
 2/9=110/2;
 3/5=1,6=6,7=11,11=2,16=1,25=1,30=1,71=1,74=-5,124=31/1,2,3;
 4/5=5,16=3,69=1/1;
 5/5=2,38=5/2;
 7//1,2,3,16;
 1/14=-1,18=20,19=15,26=3/3(-5);
 2/9=110/2;
 6/7=2,8=2,9=2,10=2,19=2,28=1/1;
 99/9=1/99;
 -------------------
 Title Card Required
 -------------------
 Symbolic Z-matrix:
 Charge =  0 Multiplicity = 1
 C                    -5.37411   1.98795   2.4577 
 C                    -4.25707   1.06255   0.51428 
 C                    -4.67041  -0.22415   0.88982 
 C                    -5.42258  -0.40559   2.06191 
 C                    -5.78227   0.70073   2.84095 
 H                    -5.65146   2.83455   3.04753 
 H                    -4.41507  -1.06645   0.28079 
 H                    -5.72201  -1.38887   2.36025 
 C                    -3.43036   1.2744   -0.77305 
 C                    -2.78902   1.43003  -1.77218 
 C                    -1.95962   1.62897  -3.06419 
 C                    -1.31349   1.78288  -4.07055 
 C                    -0.49595   1.97702  -5.34369 
 C                     0.20454   0.89008  -5.8834 
 C                     0.93916   1.0493   -7.0644 
 H                     0.17478  -0.06339  -5.3936 
 C                     0.30742   3.38652  -7.14774 
 C                     0.9887    2.29221  -7.70117 
 H                     1.46112   0.21801  -7.48392 
 H                     0.35464   4.33991  -7.62536 
 C                    -4.59978   2.16556   1.30285 
 H                    -4.27011   3.14533   1.02213 
 C                    -0.43797   3.22639  -5.96968 
 H                    -0.95928   4.05816  -5.55069 
 C                    -6.62521   0.50212   4.11567 
 H                    -7.33917  -0.27899   3.95295 
 H                    -5.98436   0.23494   4.92924 
 H                    -7.13909   1.41089   4.34919 
 O                     1.73454   2.4396   -8.91153 
 C                     3.05892   2.88155  -8.60732 
 H                     3.63037   2.94436  -9.50956 
 H                     3.01599   3.84504  -8.14425 
 H                     3.52319   2.18578  -7.93931 
 

 GradGradGradGradGradGradGradGradGradGradGradGradGradGradGradGradGradGrad
 Berny optimization.
 Initialization pass.
                           ----------------------------
                           !    Initial Parameters    !
                           ! (Angstroms and Degrees)  !
 --------------------------                            --------------------------
 ! Name  Definition              Value          Derivative Info.                !
 --------------------------------------------------------------------------------
 ! R1    R(1,5)                  1.4037         estimate D2E/DX2                !
 ! R2    R(1,6)                  1.0684         estimate D2E/DX2                !
 ! R3    R(1,21)                 1.4017         estimate D2E/DX2                !
 ! R4    R(2,3)                  1.4027         estimate D2E/DX2                !
 ! R5    R(2,9)                  1.5445         estimate D2E/DX2                !
 ! R6    R(2,21)                 1.3986         estimate D2E/DX2                !
 ! R7    R(3,4)                  1.4045         estimate D2E/DX2                !
 ! R8    R(3,7)                  1.0703         estimate D2E/DX2                !
 ! R9    R(4,5)                  1.4001         estimate D2E/DX2                !
 ! R10   R(4,8)                  1.0703         estimate D2E/DX2                !
 ! R11   R(5,25)                 1.5411         estimate D2E/DX2                !
 ! R12   R(9,10)                 1.1974         estimate D2E/DX2                !
 ! R13   R(10,11)                1.5482         estimate D2E/DX2                !
 ! R14   R(11,12)                1.2058         estimate D2E/DX2                !
 ! R15   R(12,13)                1.5254         estimate D2E/DX2                !
 ! R16   R(13,14)                1.4012         estimate D2E/DX2                !
 ! R17   R(13,23)                1.3986         estimate D2E/DX2                !
 ! R18   R(14,15)                1.3999         estimate D2E/DX2                !
 ! R19   R(14,16)                1.0723         estimate D2E/DX2                !
 ! R20   R(15,18)                1.3974         estimate D2E/DX2                !
 ! R21   R(15,19)                1.0675         estimate D2E/DX2                !
 ! R22   R(17,18)                1.4028         estimate D2E/DX2                !
 ! R23   R(17,20)                1.0674         estimate D2E/DX2                !
 ! R24   R(17,23)                1.4032         estimate D2E/DX2                !
 ! R25   R(18,29)                1.4293         estimate D2E/DX2                !
 ! R26   R(21,22)                1.0712         estimate D2E/DX2                !
 ! R27   R(23,24)                1.0673         estimate D2E/DX2                !
 ! R28   R(25,26)                1.0707         estimate D2E/DX2                !
 ! R29   R(25,27)                1.0696         estimate D2E/DX2                !
 ! R30   R(25,28)                1.0698         estimate D2E/DX2                !
 ! R31   R(29,30)                1.4289         estimate D2E/DX2                !
 ! R32   R(30,31)                1.0698         estimate D2E/DX2                !
 ! R33   R(30,32)                1.0699         estimate D2E/DX2                !
 ! R34   R(30,33)                1.0705         estimate D2E/DX2                !
 ! A1    A(5,1,6)              120.0271         estimate D2E/DX2                !
 ! A2    A(5,1,21)             120.1167         estimate D2E/DX2                !
 ! A3    A(6,1,21)             119.8561         estimate D2E/DX2                !
 ! A4    A(3,2,9)              120.4445         estimate D2E/DX2                !
 ! A5    A(3,2,21)             120.0202         estimate D2E/DX2                !
 ! A6    A(9,2,21)             119.5342         estimate D2E/DX2                !
 ! A7    A(2,3,4)              119.9843         estimate D2E/DX2                !
 ! A8    A(2,3,7)              119.9507         estimate D2E/DX2                !
 ! A9    A(4,3,7)              120.0647         estimate D2E/DX2                !
 ! A10   A(3,4,5)              119.9919         estimate D2E/DX2                !
 ! A11   A(3,4,8)              120.0758         estimate D2E/DX2                !
 ! A12   A(5,4,8)              119.9323         estimate D2E/DX2                !
 ! A13   A(1,5,4)              119.8669         estimate D2E/DX2                !
 ! A14   A(1,5,25)             120.2035         estimate D2E/DX2                !
 ! A15   A(4,5,25)             119.9297         estimate D2E/DX2                !
 ! A16   A(12,13,14)           119.3845         estimate D2E/DX2                !
 ! A17   A(12,13,23)           120.6276         estimate D2E/DX2                !
 ! A18   A(14,13,23)           119.9876         estimate D2E/DX2                !
 ! A19   A(13,14,15)           119.9374         estimate D2E/DX2                !
 ! A20   A(13,14,16)           119.995          estimate D2E/DX2                !
 ! A21   A(15,14,16)           120.0673         estimate D2E/DX2                !
 ! A22   A(14,15,18)           120.2768         estimate D2E/DX2                !
 ! A23   A(14,15,19)           119.9719         estimate D2E/DX2                !
 ! A24   A(18,15,19)           119.7508         estimate D2E/DX2                !
 ! A25   A(18,17,20)           119.9168         estimate D2E/DX2                !
 ! A26   A(18,17,23)           120.0105         estimate D2E/DX2                !
 ! A27   A(20,17,23)           120.0725         estimate D2E/DX2                !
 ! A28   A(15,18,17)           119.7908         estimate D2E/DX2                !
 ! A29   A(15,18,29)           119.7414         estimate D2E/DX2                !
 ! A30   A(17,18,29)           120.4678         estimate D2E/DX2                !
 ! A31   A(1,21,2)             119.9989         estimate D2E/DX2                !
 ! A32   A(1,21,22)            120.1208         estimate D2E/DX2                !
 ! A33   A(2,21,22)            119.8803         estimate D2E/DX2                !
 ! A34   A(13,23,17)           119.981          estimate D2E/DX2                !
 ! A35   A(13,23,24)           120.0126         estimate D2E/DX2                !
 ! A36   A(17,23,24)           120.0063         estimate D2E/DX2                !
 ! A37   A(5,25,26)            109.4545         estimate D2E/DX2                !
 ! A38   A(5,25,27)            109.4903         estimate D2E/DX2                !
 ! A39   A(5,25,28)            109.5008         estimate D2E/DX2                !
 ! A40   A(26,25,27)           109.4455         estimate D2E/DX2                !
 ! A41   A(26,25,28)           109.4264         estimate D2E/DX2                !
 ! A42   A(27,25,28)           109.5098         estimate D2E/DX2                !
 ! A43   A(18,29,30)           109.5875         estimate D2E/DX2                !
 ! A44   A(29,30,31)           109.492          estimate D2E/DX2                !
 ! A45   A(29,30,32)           109.4807         estimate D2E/DX2                !
 ! A46   A(29,30,33)           109.499          estimate D2E/DX2                !
 ! A47   A(31,30,32)           109.4876         estimate D2E/DX2                !
 ! A48   A(31,30,33)           109.4376         estimate D2E/DX2                !
 ! A49   A(32,30,33)           109.4303         estimate D2E/DX2                !
 ! A50   L(2,9,10,22,-1)       180.414          estimate D2E/DX2                !
 ! A51   L(9,10,11,7,-1)       179.9158         estimate D2E/DX2                !
 ! A52   L(10,11,12,16,-1)     179.9506         estimate D2E/DX2                !
 ! A53   L(11,12,13,16,-1)     179.9784         estimate D2E/DX2                !
 ! A54   L(2,9,10,22,-2)       179.9487         estimate D2E/DX2                !
 ! A55   L(9,10,11,7,-2)       180.0197         estimate D2E/DX2                !
 ! A56   L(10,11,12,16,-2)     179.9859         estimate D2E/DX2                !
 ! A57   L(11,12,13,16,-2)     179.998          estimate D2E/DX2                !
 ! D1    D(6,1,5,4)            179.6809         estimate D2E/DX2                !
 ! D2    D(6,1,5,25)            -0.2906         estimate D2E/DX2                !
 ! D3    D(21,1,5,4)            -0.4619         estimate D2E/DX2                !
 ! D4    D(21,1,5,25)          179.5667         estimate D2E/DX2                !
 ! D5    D(5,1,21,2)             1.3931         estimate D2E/DX2                !
 ! D6    D(5,1,21,22)         -178.6511         estimate D2E/DX2                !
 ! D7    D(6,1,21,2)          -178.7494         estimate D2E/DX2                !
 ! D8    D(6,1,21,22)            1.2064         estimate D2E/DX2                !
 ! D9    D(9,2,3,4)           -179.957          estimate D2E/DX2                !
 ! D10   D(9,2,3,7)             -0.1716         estimate D2E/DX2                !
 ! D11   D(21,2,3,4)            -0.3401         estimate D2E/DX2                !
 ! D12   D(21,2,3,7)           179.4453         estimate D2E/DX2                !
 ! D13   D(3,2,13,14)          -20.9517         estimate D2E/DX2                !
 ! D14   D(3,2,13,23)          159.2051         estimate D2E/DX2                !
 ! D15   D(21,2,13,14)         159.3819         estimate D2E/DX2                !
 ! D16   D(21,2,13,23)         -20.4612         estimate D2E/DX2                !
 ! D17   D(3,2,21,1)            -0.9897         estimate D2E/DX2                !
 ! D18   D(3,2,21,22)          179.0543         estimate D2E/DX2                !
 ! D19   D(9,2,21,1)           178.6307         estimate D2E/DX2                !
 ! D20   D(9,2,21,22)           -1.3253         estimate D2E/DX2                !
 ! D21   D(2,3,4,5)              1.2706         estimate D2E/DX2                !
 ! D22   D(2,3,4,8)           -178.7738         estimate D2E/DX2                !
 ! D23   D(7,3,4,5)           -178.5145         estimate D2E/DX2                !
 ! D24   D(7,3,4,8)              1.4411         estimate D2E/DX2                !
 ! D25   D(3,4,5,1)             -0.8683         estimate D2E/DX2                !
 ! D26   D(3,4,5,25)           179.1032         estimate D2E/DX2                !
 ! D27   D(8,4,5,1)            179.176          estimate D2E/DX2                !
 ! D28   D(8,4,5,25)            -0.8525         estimate D2E/DX2                !
 ! D29   D(1,5,25,26)          143.3567         estimate D2E/DX2                !
 ! D30   D(1,5,25,27)          -96.6734         estimate D2E/DX2                !
 ! D31   D(1,5,25,28)           23.4037         estimate D2E/DX2                !
 ! D32   D(4,5,25,26)          -36.6148         estimate D2E/DX2                !
 ! D33   D(4,5,25,27)           83.3551         estimate D2E/DX2                !
 ! D34   D(4,5,25,28)         -156.5677         estimate D2E/DX2                !
 ! D35   D(12,13,14,15)        178.8649         estimate D2E/DX2                !
 ! D36   D(12,13,14,16)         -0.9255         estimate D2E/DX2                !
 ! D37   D(23,13,14,15)         -1.3345         estimate D2E/DX2                !
 ! D38   D(23,13,14,16)        178.8751         estimate D2E/DX2                !
 ! D39   D(12,13,23,17)       -179.3623         estimate D2E/DX2                !
 ! D40   D(12,13,23,24)          0.7318         estimate D2E/DX2                !
 ! D41   D(14,13,23,17)          0.8396         estimate D2E/DX2                !
 ! D42   D(14,13,23,24)       -179.0663         estimate D2E/DX2                !
 ! D43   D(13,14,15,18)          0.6651         estimate D2E/DX2                !
 ! D44   D(13,14,15,19)       -179.0888         estimate D2E/DX2                !
 ! D45   D(16,14,15,18)       -179.5447         estimate D2E/DX2                !
 ! D46   D(16,14,15,19)          0.7015         estimate D2E/DX2                !
 ! D47   D(14,15,18,17)          0.4979         estimate D2E/DX2                !
 ! D48   D(14,15,18,29)       -179.5601         estimate D2E/DX2                !
 ! D49   D(19,15,18,17)       -179.7477         estimate D2E/DX2                !
 ! D50   D(19,15,18,29)          0.1943         estimate D2E/DX2                !
 ! D51   D(20,17,18,15)        179.1808         estimate D2E/DX2                !
 ! D52   D(20,17,18,29)         -0.7608         estimate D2E/DX2                !
 ! D53   D(23,17,18,15)         -0.9926         estimate D2E/DX2                !
 ! D54   D(23,17,18,29)        179.0658         estimate D2E/DX2                !
 ! D55   D(18,17,23,13)          0.3246         estimate D2E/DX2                !
 ! D56   D(18,17,23,24)       -179.7695         estimate D2E/DX2                !
 ! D57   D(20,17,23,13)       -179.849          estimate D2E/DX2                !
 ! D58   D(20,17,23,24)          0.0568         estimate D2E/DX2                !
 ! D59   D(15,18,29,30)        -93.1276         estimate D2E/DX2                !
 ! D60   D(17,18,29,30)         86.814          estimate D2E/DX2                !
 ! D61   D(18,29,30,31)        177.1914         estimate D2E/DX2                !
 ! D62   D(18,29,30,32)        -62.7699         estimate D2E/DX2                !
 ! D63   D(18,29,30,33)         57.2028         estimate D2E/DX2                !
 --------------------------------------------------------------------------------
 Trust Radius=3.00D-01 FncErr=1.00D-07 GrdErr=1.00D-06
 Number of steps in this run=    164 maximum allowed number of steps=    198.
 GradGradGradGradGradGradGradGradGradGradGradGradGradGradGradGradGradGrad

                          Input orientation:                          
 ---------------------------------------------------------------------
 Center     Atomic      Atomic             Coordinates (Angstroms)
 Number     Number       Type             X           Y           Z
 ---------------------------------------------------------------------
      1          6           0       -5.374113    1.987953    2.457696
      2          6           0       -4.257068    1.062545    0.514278
      3          6           0       -4.670410   -0.224153    0.889818
      4          6           0       -5.422585   -0.405586    2.061913
      5          6           0       -5.782271    0.700733    2.840951
      6          1           0       -5.651461    2.834551    3.047525
      7          1           0       -4.415074   -1.066453    0.280788
      8          1           0       -5.722011   -1.388865    2.360252
      9          6           0       -3.430363    1.274399   -0.773050
     10          6           0       -2.789019    1.430031   -1.772175
     11          6           0       -1.959616    1.628974   -3.064193
     12          6           0       -1.313488    1.782878   -4.070548
     13          6           0       -0.495946    1.977019   -5.343691
     14          6           0        0.204538    0.890084   -5.883400
     15          6           0        0.939162    1.049296   -7.064398
     16          1           0        0.174780   -0.063388   -5.393602
     17          6           0        0.307424    3.386523   -7.147735
     18          6           0        0.988705    2.292214   -7.701173
     19          1           0        1.461123    0.218012   -7.483917
     20          1           0        0.354640    4.339913   -7.625363
     21          6           0       -4.599785    2.165561    1.302851
     22          1           0       -4.270106    3.145329    1.022128
     23          6           0       -0.437967    3.226390   -5.969684
     24          1           0       -0.959283    4.058160   -5.550688
     25          6           0       -6.625206    0.502117    4.115669
     26          1           0       -7.339168   -0.278993    3.952949
     27          1           0       -5.984355    0.234942    4.929238
     28          1           0       -7.139089    1.410894    4.349194
     29          8           0        1.734537    2.439599   -8.911527
     30          6           0        3.058925    2.881554   -8.607319
     31          1           0        3.630369    2.944357   -9.509565
     32          1           0        3.015989    3.845041   -8.144248
     33          1           0        3.523186    2.185776   -7.939313
 ---------------------------------------------------------------------
                    Distance matrix (angstroms):
                    1          2          3          4          5
     1  C    0.000000
     2  C    2.425085   0.000000
     3  C    2.801223   1.402667   0.000000
     4  C    2.426525   2.430846   1.404454   0.000000
     5  C    1.403714   2.805451   2.428697   1.400078   0.000000
     6  H    1.068433   3.391412   3.869604   3.394453   2.147781
     7  H    3.871444   2.147584   1.070319   2.150401   3.398030
     8  H    3.396090   3.400454   2.150487   1.070280   2.145023
     9  C    3.837323   1.544519   2.559005   3.850755   4.349893
    10  C    4.988567   2.741913   3.655429   5.000539   5.547285
    11  C    6.502224   4.290057   5.139717   6.512185   7.095425
    12  C    7.690819   5.495832   6.316829   7.699423   8.301197
    13  C    9.200993   7.021261   7.818436   9.208232   9.826622
    14  C   10.094580   7.801664   8.419212   9.821979  10.582630
    15  C   11.463367   9.188978   9.816238  11.219539  11.975605
    16  H    9.830620   7.470746   7.936188   9.329110  10.192066
    17  C   11.247229   9.216394  10.120182  11.490462  12.002988
    18  C   11.990856   9.824656  10.590694  11.987518  12.629937
    19  H   12.193801   9.868235  10.388004  11.785464  12.621516
    20  H   11.832937   9.912757  10.889909  12.236805  12.666848
    21  C    1.401711   1.398551   2.426173   2.804277   2.430997
    22  H    2.149234   2.143844   3.395756   3.875353   3.401589
    23  C    9.844795   7.830040   8.767701  10.126412  10.609798
    24  H    9.376070   7.525484   8.578507   9.889276  10.244664
    25  C    2.553785   4.346513   3.841199   2.547182   1.541069
    26  H    3.352055   4.808692   4.063010   2.695429   2.149496
    27  H    3.090949   4.812517   4.272486   2.991224   2.149126
    28  H    2.650642   4.809779   4.553575   3.387868   2.149438
    29  O   13.416263  11.253507  12.007717  13.406560  14.058691
    30  C   13.940918  11.833684  12.632642  14.020478  14.628247
    31  H   15.007023  12.893034  13.678068  15.069080  15.689706
    32  H   13.647117  11.645158  12.540072  13.908381  14.421187
    33  H   13.685717  11.543709  12.283987  13.666254  14.318205
                    6          7          8          9         10
     6  H    0.000000
     7  H    4.939769   0.000000
     8  H    4.279552   2.477136   0.000000
     9  C    4.686593   2.749513   4.707676   0.000000
    10  C    5.778907   3.618169   5.798756   1.197411   0.000000
    11  C    7.241287   4.948081   7.258621   2.745570   1.548159
    12  C    8.401844   6.055795   8.417257   3.951354   2.753944
    13  C    9.885707   7.500471   9.899074   5.476791   4.279381
    14  C   10.855188   7.947709  10.405547   6.282983   5.114205
    15  C   12.201411   9.332524  11.795757   7.663190   6.484745
    16  H   10.658131   7.366927   9.831139   6.011341   4.912141
    17  C   11.821858   9.864783  12.229483   7.685618   6.504803
    18  C   12.645965  10.207506  12.641848   8.280277   7.082907
    19  H   12.974837   9.821924  12.291750   8.371279   7.221958
    20  H   12.338959  10.699822  13.017569   8.407009   7.253262
    21  C    2.144169   3.394797   3.874459   2.543833   3.643579
    22  H    2.471226   4.278984   4.945455   2.725474   3.597777
    23  C   10.423249   8.562376  10.890801   6.306322   5.135507
    24  H    9.871323   8.497662  10.720850   6.056515   4.952994
    25  C    2.743968   4.695892   2.733690   5.890927   7.088305
    26  H    3.655449   4.759746   2.526598   6.326678   7.510105
    27  H    3.226396   5.075861   3.050453   6.333991   7.519798
    28  H    2.436017   5.487206   3.715193   6.325399   7.509637
    29  O   14.061574  11.602102  14.046717   9.709206   8.511881
    30  C   14.550203  12.265638  14.684309  10.299008   9.111781
    31  H   15.615535  13.291605  15.720572  11.356469  10.167051
    32  H   14.191602  12.260698  14.631846  10.124139   8.951742
    33  H   14.328492  11.881205  14.294501  10.026853   8.857125
                   11         12         13         14         15
    11  C    0.000000
    12  C    1.205785   0.000000
    13  C    2.731223   1.525438   0.000000
    14  C    3.630076   2.527433   1.401211   0.000000
    15  C    4.973990   3.817815   2.425085   1.399920   0.000000
    16  H    3.584115   2.715531   2.148400   1.072332   2.148000
    17  C    4.990367   3.829898   2.426249   2.800239   2.422534
    18  C    5.534805   4.329082   2.803793   2.425940   1.397420
    19  H    5.764219   4.668871   3.391871   2.142974   1.067460
    20  H    5.788717   4.685914   3.393050   3.867594   3.388879
    21  C    5.131227   6.310278   7.813678   8.737881  10.096378
    22  H    4.933124   6.044270   7.492188   8.531992   9.844883
    23  C    3.648154   2.541060   1.398627   2.424579   2.799039
    24  H    3.617218   2.737368   2.142120   3.391443   3.866352
    25  C    8.636432   9.842197  11.367615  12.115169  13.509736
    26  H    9.045452  10.243858  11.762092  12.451025  13.844748
    27  H    9.057417  10.257156  11.776695  12.475767  13.872476
    28  H    9.046149  10.245392  11.764518  12.605796  13.987816
    29  O    6.963849   5.758196   4.233023   3.729805   2.444882
    30  C    7.581619   6.395888   4.909843   4.419639   3.198620
    31  H    8.632554   7.441348   5.942787   5.394944   4.100328
    32  H    7.448124   6.292211   4.864803   4.663417   3.646296
    33  H    7.357849   6.206697   4.788972   4.113274   2.955375
                   16         17         18         19         20
    16  H    0.000000
    17  C    3.872527   0.000000
    18  C    3.396501   1.402836   0.000000
    19  H    2.470482   3.388732   2.138386   0.000000
    20  H    4.939854   1.067384   2.144960   4.270172   0.000000
    21  C    8.520984   9.848038  10.598099  10.850568  10.439690
    22  H    8.438866   9.367957  10.221490  10.666253   9.878988
    23  C    3.395580   1.403230   2.430253   3.866494   2.146959
    24  H    4.277608   2.146207   3.396735   4.933809   2.471853
    25  C   11.704095  13.536818  14.170880  14.142836  14.187979
    26  H   11.994329  13.968951  14.552771  14.439322  14.648764
    27  H   12.024349  13.977562  14.573374  14.474869  14.650995
    28  H   12.271441  13.839547  14.561906  14.676823  14.426543
    29  O    4.590597   2.458511   1.429316   2.654859   2.677597
    30  C    5.226753   3.155335   2.335430   3.302947   3.225554
    31  H    6.158634   4.100697   3.267103   4.030116   4.028423
    32  H    5.560066   2.922259   2.591808   4.001122   2.756250
    33  H    4.769822   3.522715   2.547869   2.886448   3.844288
                   21         22         23         24         25
    21  C    0.000000
    22  H    1.071186   0.000000
    23  C    8.446056   7.973537   0.000000
    24  H    7.987877   7.415977   1.067319   0.000000
    25  C    3.844648   4.701390  12.141579  11.755279   0.000000
    26  H    4.528033   5.452966  12.584631  12.240627   1.070679
    27  H    4.335321   5.164738  12.589587  12.235080   1.069564
    28  H    4.037053   4.723209  12.437054  11.966858   1.069807
    29  O   12.022156  11.628898   3.740755   4.601266  15.599582
    30  C   12.545116  12.104152   4.393664   5.183955  16.165350
    31  H   13.610668  13.167173   5.400153   6.162643  17.227546
    32  H   12.250238  11.730269   4.128107   4.751290  15.950967
    33  H   12.304498  11.914846   4.544563   5.413306  15.847623
                   26         27         28         29         30
    26  H    0.000000
    27  H    1.747223   0.000000
    28  H    1.747215   1.747205   0.000000
    29  O   15.975532  16.000268  15.988940   0.000000
    30  C   16.609327  16.493145  16.553959   1.428940   0.000000
    31  H   17.662390  17.557417  17.618114   2.051002   1.069832
    32  H   16.449289  16.277440  16.283021   2.050878   1.069852
    33  H   16.293917  16.118272  16.287786   2.051558   1.070457
                   31         32         33
    31  H    0.000000
    32  H    1.747222   0.000000
    33  H    1.747176   1.747114   0.000000
 Stoichiometry    C18H14O
 Framework group  C1[X(C18H14O)]
 Deg. of freedom    93
 Full point group                 C1      NOp   1
 Largest Abelian subgroup         C1      NOp   1
 Largest concise Abelian subgroup C1      NOp   1
                         Standard orientation:                         
 ---------------------------------------------------------------------
 Center     Atomic      Atomic             Coordinates (Angstroms)
 Number     Number       Type             X           Y           Z
 ---------------------------------------------------------------------
      1          6           0        6.102895   -1.209912    0.233365
      2          6           0        4.011305   -0.000800    0.022796
      3          6           0        4.721250    1.196549   -0.149847
      4          6           0        6.125213    1.191655   -0.113049
      5          6           0        6.816347   -0.012209    0.069339
      6          1           0        6.627767   -2.130799    0.367628
      7          1           0        4.192326    2.112637   -0.312958
      8          1           0        6.667894    2.107331   -0.225007
      9          6           0        2.467307   -0.007827   -0.016707
     10          6           0        1.270306   -0.004600   -0.047900
     11          6           0       -0.277313    0.001867   -0.088278
     12          6           0       -1.482673    0.007958   -0.119678
     13          6           0       -3.007573    0.016234   -0.159320
     14          6           0       -3.694936    1.214549    0.075128
     15          6           0       -5.093453    1.240438    0.018067
     16          1           0       -3.149498    2.111315    0.294683
     17          6           0       -5.122120   -1.132470   -0.468917
     18          6           0       -5.809055    0.072400   -0.258311
     19          1           0       -5.617012    2.156088    0.182210
     20          1           0       -5.667295   -2.028447   -0.667205
     21          6           0        4.701244   -1.200495    0.224445
     22          1           0        4.156621   -2.111152    0.371173
     23          6           0       -3.719898   -1.158298   -0.422425
     24          1           0       -3.197192   -2.074315   -0.586316
     25          6           0        8.357279   -0.018833    0.088793
     26          1           0        8.725910    0.695443   -0.618508
     27          1           0        8.702914    0.238431    1.067731
     28          1           0        8.713526   -0.993500   -0.171204
     29          8           0       -7.236299    0.113835   -0.323147
     30          6           0       -7.783642   -0.213990    0.955452
     31          1           0       -8.849897   -0.134883    0.918243
     32          1           0       -7.508854   -1.214787    1.215222
     33          1           0       -7.401713    0.462663    1.691760
 ---------------------------------------------------------------------
 Rotational constants (GHZ):      2.4623060      0.0739905      0.0724233
 Standard basis: 6-31+G(d) (6D, 7F)
 There are   389 symmetry adapted cartesian basis functions of A   symmetry.
 There are   389 symmetry adapted basis functions of A   symmetry.
   389 basis functions,   664 primitive gaussians,   389 cartesian basis functions
    65 alpha electrons       65 beta electrons
       nuclear repulsion energy      1067.4394821613 Hartrees.
 NAtoms=   33 NActive=   33 NUniq=   33 SFac= 1.00D+00 NAtFMM=   60 NAOKFM=F Big=F
 Integral buffers will be    131072 words long.
 Raffenetti 2 integral format.
 Two-electron integral symmetry is turned on.
 Nuclear repulsion after empirical dispersion term =     1067.4174233759 Hartrees.
 One-electron integrals computed using PRISM.
 NBasis=   389 RedAO= T EigKep=  1.69D-06  NBF=   389
 NBsUse=   383 1.00D-06 EigRej=  7.48D-07 NBFU=   383
 ExpMin= 4.38D-02 ExpMax= 5.48D+03 ExpMxC= 8.25D+02 IAcc=2 IRadAn=         4 AccDes= 0.00D+00
 Harris functional with IExCor=  402 and IRadAn=       4 diagonalized for initial guess.
 HarFok:  IExCor=  402 AccDes= 0.00D+00 IRadAn=         4 IDoV= 1 UseB2=F ITyADJ=14
 ICtDFT=  3500011 ScaDFX=  1.000000  1.000000  1.000000  1.000000
 FoFCou: FMM=F IPFlag=           0 FMFlag=      100000 FMFlg1=           0
         NFxFlg=           0 DoJE=T BraDBF=F KetDBF=T FulRan=T
         wScrn=  0.000000 ICntrl=     500 IOpCl=  0 I1Cent=   200000004 NGrid=           0
         NMat0=    1 NMatS0=      1 NMatT0=    0 NMatD0=    1 NMtDS0=    0 NMtDT0=    0
 Petite list used in FoFCou.
 Requested convergence on RMS density matrix=1.00D-08 within 128 cycles.
 Requested convergence on MAX density matrix=1.00D-06.
 Requested convergence on             energy=1.00D-06.
 No special actions if energy rises.
 SCF Done:  E(RB3LYP) =  -769.463265052     A.U. after   15 cycles
            NFock= 15  Conv=0.48D-08     -V/T= 2.0103

 **********************************************************************

            Population analysis using the SCF density.

 **********************************************************************

 Orbital symmetries:
       Occupied  (A) (A) (A) (A) (A) (A) (A) (A) (A) (A) (A) (A)
                 (A) (A) (A) (A) (A) (A) (A) (A) (A) (A) (A) (A)
                 (A) (A) (A) (A) (A) (A) (A) (A) (A) (A) (A) (A)
                 (A) (A) (A) (A) (A) (A) (A) (A) (A) (A) (A) (A)
                 (A) (A) (A) (A) (A) (A) (A) (A) (A) (A) (A) (A)
                 (A) (A) (A) (A) (A)
       Virtual   (A) (A) (A) (A) (A) (A) (A) (A) (A) (A) (A) (A)
                 (A) (A) (A) (A) (A) (A) (A) (A) (A) (A) (A) (A)
                 (A) (A) (A) (A) (A) (A) (A) (A) (A) (A) (A) (A)
                 (A) (A) (A) (A) (A) (A) (A) (A) (A) (A) (A) (A)
                 (A) (A) (A) (A) (A) (A) (A) (A) (A) (A) (A) (A)
                 (A) (A) (A) (A) (A) (A) (A) (A) (A) (A) (A) (A)
                 (A) (A) (A) (A) (A) (A) (A) (A) (A) (A) (A) (A)
                 (A) (A) (A) (A) (A) (A) (A) (A) (A) (A) (A) (A)
                 (A) (A) (A) (A) (A) (A) (A) (A) (A) (A) (A) (A)
                 (A) (A) (A) (A) (A) (A) (A) (A) (A) (A) (A) (A)
                 (A) (A) (A) (A) (A) (A) (A) (A) (A) (A) (A) (A)
                 (A) (A) (A) (A) (A) (A) (A) (A) (A) (A) (A) (A)
                 (A) (A) (A) (A) (A) (A) (A) (A) (A) (A) (A) (A)
                 (A) (A) (A) (A) (A) (A) (A) (A) (A) (A) (A) (A)
                 (A) (A) (A) (A) (A) (A) (A) (A) (A) (A) (A) (A)
                 (A) (A) (A) (A) (A) (A) (A) (A) (A) (A) (A) (A)
                 (A) (A) (A) (A) (A) (A) (A) (A) (A) (A) (A) (A)
                 (A) (A) (A) (A) (A) (A) (A) (A) (A) (A) (A) (A)
                 (A) (A) (A) (A) (A) (A) (A) (A) (A) (A) (A) (A)
                 (A) (A) (A) (A) (A) (A) (A) (A) (A) (A) (A) (A)
                 (A) (A) (A) (A) (A) (A) (A) (A) (A) (A) (A) (A)
                 (A) (A) (A) (A) (A) (A) (A) (A) (A) (A) (A) (A)
                 (A) (A) (A) (A) (A) (A) (A) (A) (A) (A) (A) (A)
                 (A) (A) (A) (A) (A) (A) (A) (A) (A) (A) (A) (A)
                 (A) (A) (A) (A) (A) (A) (A) (A) (A) (A) (A) (A)
                 (A) (A) (A) (A) (A) (A) (A) (A) (A) (A) (A) (A)
                 (A) (A) (A) (A) (A) (A)
 The electronic state is 1-A.
 Alpha  occ. eigenvalues --  -19.17837 -10.26211 -10.23948 -10.23675 -10.23471
 Alpha  occ. eigenvalues --  -10.22839 -10.22529 -10.21517 -10.21501 -10.21389
 Alpha  occ. eigenvalues --  -10.21369 -10.21326 -10.20954 -10.20883 -10.20806
 Alpha  occ. eigenvalues --  -10.20785 -10.20307 -10.20285 -10.18917  -1.05045
 Alpha  occ. eigenvalues --   -0.87457  -0.87289  -0.80023  -0.78952  -0.76804
 Alpha  occ. eigenvalues --   -0.76573  -0.76072  -0.74084  -0.70282  -0.69802
 Alpha  occ. eigenvalues --   -0.63367  -0.62555  -0.61974  -0.60483  -0.57213
 Alpha  occ. eigenvalues --   -0.54548  -0.52732  -0.50612  -0.49183  -0.47749
 Alpha  occ. eigenvalues --   -0.47441  -0.46791  -0.46353  -0.44973  -0.44076
 Alpha  occ. eigenvalues --   -0.43837  -0.43721  -0.43332  -0.40679  -0.40545
 Alpha  occ. eigenvalues --   -0.38808  -0.37983  -0.37685  -0.36126  -0.35690
 Alpha  occ. eigenvalues --   -0.35644  -0.33535  -0.33191  -0.29860  -0.28518
 Alpha  occ. eigenvalues --   -0.27070  -0.26984  -0.26559  -0.25604  -0.23111
 Alpha virt. eigenvalues --   -0.05360  -0.02852  -0.02686  -0.02544  -0.00388
 Alpha virt. eigenvalues --    0.00265   0.00469   0.01579   0.02168   0.02254
 Alpha virt. eigenvalues --    0.02380   0.03057   0.03358   0.04176   0.04618
 Alpha virt. eigenvalues --    0.04753   0.05239   0.05358   0.05746   0.06003
 Alpha virt. eigenvalues --    0.06127   0.06930   0.07517   0.07633   0.08237
 Alpha virt. eigenvalues --    0.08549   0.08664   0.09211   0.09282   0.10038
 Alpha virt. eigenvalues --    0.10233   0.10974   0.11187   0.11560   0.12258
 Alpha virt. eigenvalues --    0.12799   0.12953   0.13033   0.13274   0.13470
 Alpha virt. eigenvalues --    0.14125   0.14189   0.14634   0.14795   0.15048
 Alpha virt. eigenvalues --    0.15141   0.15560   0.15755   0.16124   0.16630
 Alpha virt. eigenvalues --    0.17031   0.17050   0.18510   0.18863   0.18973
 Alpha virt. eigenvalues --    0.19244   0.19448   0.19700   0.19918   0.20405
 Alpha virt. eigenvalues --    0.20699   0.20993   0.21274   0.21581   0.21684
 Alpha virt. eigenvalues --    0.22303   0.22563   0.23585   0.23760   0.23899
 Alpha virt. eigenvalues --    0.24110   0.24269   0.24975   0.25557   0.26001
 Alpha virt. eigenvalues --    0.26277   0.26392   0.26515   0.27302   0.27471
 Alpha virt. eigenvalues --    0.27663   0.28104   0.28538   0.28690   0.29254
 Alpha virt. eigenvalues --    0.29509   0.30645   0.31644   0.32155   0.32475
 Alpha virt. eigenvalues --    0.32932   0.33473   0.34222   0.35372   0.35831
 Alpha virt. eigenvalues --    0.36214   0.36291   0.37032   0.37772   0.38074
 Alpha virt. eigenvalues --    0.38328   0.39606   0.41564   0.42084   0.43356
 Alpha virt. eigenvalues --    0.45642   0.46889   0.51440   0.56448   0.57687
 Alpha virt. eigenvalues --    0.59401   0.59860   0.64000   0.64720   0.65045
 Alpha virt. eigenvalues --    0.65626   0.66444   0.67065   0.67834   0.67932
 Alpha virt. eigenvalues --    0.69523   0.70013   0.70299   0.70688   0.71011
 Alpha virt. eigenvalues --    0.71588   0.71852   0.71978   0.72690   0.72807
 Alpha virt. eigenvalues --    0.73659   0.73913   0.74955   0.75466   0.76378
 Alpha virt. eigenvalues --    0.76517   0.77142   0.77459   0.77952   0.78401
 Alpha virt. eigenvalues --    0.78657   0.79674   0.80258   0.81284   0.81796
 Alpha virt. eigenvalues --    0.83283   0.83496   0.85228   0.85769   0.85878
 Alpha virt. eigenvalues --    0.87120   0.91586   0.92662   0.93290   0.93859
 Alpha virt. eigenvalues --    0.93910   0.95603   0.96426   0.96622   0.97427
 Alpha virt. eigenvalues --    0.97797   0.98159   0.98979   0.99556   1.01277
 Alpha virt. eigenvalues --    1.02978   1.03215   1.04896   1.05636   1.07612
 Alpha virt. eigenvalues --    1.09575   1.10145   1.10643   1.11786   1.12540
 Alpha virt. eigenvalues --    1.14403   1.15293   1.16233   1.16982   1.18600
 Alpha virt. eigenvalues --    1.19635   1.19891   1.20158   1.23055   1.23976
 Alpha virt. eigenvalues --    1.24442   1.24612   1.26391   1.27007   1.27604
 Alpha virt. eigenvalues --    1.30004   1.30834   1.31672   1.32518   1.38567
 Alpha virt. eigenvalues --    1.38895   1.39643   1.42451   1.43479   1.43560
 Alpha virt. eigenvalues --    1.43836   1.44982   1.45680   1.45802   1.46508
 Alpha virt. eigenvalues --    1.48343   1.49277   1.50296   1.51035   1.51639
 Alpha virt. eigenvalues --    1.52104   1.52986   1.56834   1.57660   1.58352
 Alpha virt. eigenvalues --    1.59461   1.62686   1.65504   1.71354   1.79835
 Alpha virt. eigenvalues --    1.80125   1.81258   1.82819   1.83354   1.83731
 Alpha virt. eigenvalues --    1.84370   1.85509   1.86520   1.87771   1.88074
 Alpha virt. eigenvalues --    1.89482   1.91328   1.91823   1.92472   1.96479
 Alpha virt. eigenvalues --    1.97021   1.97805   1.99157   2.00267   2.00634
 Alpha virt. eigenvalues --    2.01126   2.05419   2.07205   2.08608   2.09000
 Alpha virt. eigenvalues --    2.10654   2.11817   2.12380   2.13347   2.14176
 Alpha virt. eigenvalues --    2.16029   2.16659   2.18617   2.19809   2.21780
 Alpha virt. eigenvalues --    2.23769   2.25862   2.26737   2.28489   2.28739
 Alpha virt. eigenvalues --    2.29058   2.29717   2.31777   2.36749   2.38597
 Alpha virt. eigenvalues --    2.39177   2.39859   2.40944   2.47295   2.50057
 Alpha virt. eigenvalues --    2.53094   2.55685   2.57397   2.59372   2.62270
 Alpha virt. eigenvalues --    2.63171   2.63389   2.63785   2.64338   2.64947
 Alpha virt. eigenvalues --    2.68250   2.73551   2.74356   2.75976   2.78857
 Alpha virt. eigenvalues --    2.80662   2.81615   2.86679   2.88399   2.95289
 Alpha virt. eigenvalues --    2.95333   2.97173   3.07803   3.10062   3.16784
 Alpha virt. eigenvalues --    3.21214   3.36974   3.43821   3.62541   4.06816
 Alpha virt. eigenvalues --    4.19377   4.20828   4.23517   4.24175   4.24820
 Alpha virt. eigenvalues --    4.28836   4.31270   4.32515   4.35378   4.39674
 Alpha virt. eigenvalues --    4.40166   4.42452   4.42712   4.58176   4.63596
 Alpha virt. eigenvalues --    4.76641   4.82794   5.23045
          Condensed to atoms (all electrons):
               1          2          3          4          5          6
     1  C    7.882878   0.226213   0.325605  -0.791144   0.144786   0.295217
     2  C    0.226213   7.192160  -0.401752   0.174171  -0.335620   0.023821
     3  C    0.325605  -0.401752  10.737099  -1.508105  -0.064015   0.000727
     4  C   -0.791144   0.174171  -1.508105   7.670035   0.175532   0.036318
     5  C    0.144786  -0.335620  -0.064015   0.175532   7.028015   0.037066
     6  H    0.295217   0.023821   0.000727   0.036318   0.037066   0.541553
     7  H   -0.006702  -0.022881   0.361554  -0.095367   0.005910   0.000018
     8  H    0.050544   0.021795  -0.089641   0.284798   0.041686  -0.000164
     9  C   -0.091277   0.048180   0.031253  -0.123954  -0.136401  -0.005834
    10  C    0.052122  -0.255617  -0.031264   0.036165  -0.130828   0.001180
    11  C    0.014114   0.321909  -0.070135   0.010590   0.035480  -0.000092
    12  C   -0.004031  -0.201931   0.037758  -0.004694  -0.009488   0.000006
    13  C    0.001081   0.085309  -0.012028   0.001278   0.001750   0.000000
    14  C    0.001319  -0.015666   0.019525  -0.001513  -0.000046   0.000000
    15  C   -0.000190   0.003425  -0.002495   0.000284   0.000015   0.000000
    16  H    0.000000  -0.000020   0.000002   0.000000   0.000000   0.000000
    17  C    0.000295   0.001638   0.001798  -0.000187   0.000006   0.000000
    18  C   -0.000001   0.000296   0.000032   0.000003   0.000005   0.000000
    19  H    0.000000   0.000000   0.000000   0.000000   0.000000   0.000000
    20  H    0.000000   0.000000   0.000000   0.000000   0.000000   0.000000
    21  C   -1.642797  -0.295424  -3.192916   0.346253   0.151581  -0.082452
    22  H   -0.091400  -0.022728   0.019315  -0.006765   0.003095  -0.004305
    23  C   -0.001600  -0.006799  -0.015941   0.001298   0.000002   0.000000
    24  H    0.000000  -0.000013  -0.000003   0.000000   0.000000   0.000000
    25  C   -0.039151  -0.430527   0.023543  -0.103021  -0.997022  -0.025544
    26  H    0.030699  -0.000340   0.004847  -0.012188  -0.128623   0.000087
    27  H   -0.002989  -0.000551  -0.003162  -0.016543  -0.050905   0.000273
    28  H   -0.015417  -0.003586  -0.005451   0.020732  -0.140190   0.003415
    29  O    0.000000  -0.000001   0.000000   0.000000   0.000000   0.000000
    30  C    0.000000   0.000001   0.000000   0.000000   0.000000   0.000000
    31  H    0.000000   0.000000   0.000000   0.000000   0.000000   0.000000
    32  H    0.000000   0.000000   0.000000   0.000000   0.000000   0.000000
    33  H    0.000000   0.000000   0.000000   0.000000   0.000000   0.000000
               7          8          9         10         11         12
     1  C   -0.006702   0.050544  -0.091277   0.052122   0.014114  -0.004031
     2  C   -0.022881   0.021795   0.048180  -0.255617   0.321909  -0.201931
     3  C    0.361554  -0.089641   0.031253  -0.031264  -0.070135   0.037758
     4  C   -0.095367   0.284798  -0.123954   0.036165   0.010590  -0.004694
     5  C    0.005910   0.041686  -0.136401  -0.130828   0.035480  -0.009488
     6  H    0.000018  -0.000164  -0.005834   0.001180  -0.000092   0.000006
     7  H    0.523134  -0.004164   0.026063  -0.007581   0.001148   0.000058
     8  H   -0.004164   0.539988  -0.005116   0.001420  -0.000097   0.000009
     9  C    0.026063  -0.005116   7.879196   0.203383  -0.735084   0.078500
    10  C   -0.007581   0.001420   0.203383   6.557872  -0.785201  -0.389567
    11  C    0.001148  -0.000097  -0.735084  -0.785201   7.093845  -0.688551
    12  C    0.000058   0.000009   0.078500  -0.389567  -0.688551   9.153666
    13  C   -0.000004   0.000000  -0.169664   0.066236   0.541630  -1.763424
    14  C    0.000003   0.000000   0.017315  -0.054618  -0.305447   0.821527
    15  C    0.000000   0.000000  -0.005143   0.021349   0.098417  -0.357959
    16  H    0.000000   0.000000   0.000094   0.000787  -0.007758   0.029697
    17  C    0.000000   0.000000  -0.006791   0.004228   0.094071  -0.412898
    18  C    0.000000   0.000000  -0.003083  -0.001173  -0.057563  -0.207958
    19  H    0.000000   0.000000   0.000007  -0.000067   0.001315  -0.005254
    20  H    0.000000   0.000000   0.000006  -0.000069   0.001365  -0.004952
    21  C    0.021505  -0.003271  -0.118111  -0.089956  -0.087414   0.026591
    22  H   -0.000160   0.000019   0.027733  -0.006923   0.001343   0.000069
    23  C   -0.000001   0.000000   0.023537  -0.004100  -0.366591   0.858412
    24  H    0.000000   0.000000  -0.000019   0.001180  -0.010450   0.030271
    25  C    0.002091  -0.020752   0.072093  -0.045772   0.008535  -0.001136
    26  H   -0.000003   0.002265   0.000458   0.000001   0.000002   0.000000
    27  H    0.000001   0.000452   0.000245  -0.000030   0.000002   0.000000
    28  H    0.000002   0.000086   0.000254  -0.000012   0.000001   0.000000
    29  O    0.000000   0.000000   0.000015  -0.000076   0.000948   0.000240
    30  C    0.000000   0.000000   0.000002   0.000083   0.000155   0.003209
    31  H    0.000000   0.000000   0.000000   0.000000   0.000007   0.000039
    32  H    0.000000   0.000000   0.000000   0.000000  -0.000065  -0.000547
    33  H    0.000000   0.000000   0.000000   0.000000  -0.000001  -0.000275
              13         14         15         16         17         18
     1  C    0.001081   0.001319  -0.000190   0.000000   0.000295  -0.000001
     2  C    0.085309  -0.015666   0.003425  -0.000020   0.001638   0.000296
     3  C   -0.012028   0.019525  -0.002495   0.000002   0.001798   0.000032
     4  C    0.001278  -0.001513   0.000284   0.000000  -0.000187   0.000003
     5  C    0.001750  -0.000046   0.000015   0.000000   0.000006   0.000005
     6  H    0.000000   0.000000   0.000000   0.000000   0.000000   0.000000
     7  H   -0.000004   0.000003   0.000000   0.000000   0.000000   0.000000
     8  H    0.000000   0.000000   0.000000   0.000000   0.000000   0.000000
     9  C   -0.169664   0.017315  -0.005143   0.000094  -0.006791  -0.003083
    10  C    0.066236  -0.054618   0.021349   0.000787   0.004228  -0.001173
    11  C    0.541630  -0.305447   0.098417  -0.007758   0.094071  -0.057563
    12  C   -1.763424   0.821527  -0.357959   0.029697  -0.412898  -0.207958
    13  C   10.866010  -2.410175   1.052291  -0.033940   1.025623  -0.774532
    14  C   -2.410175  23.473675  -7.437230   0.369775   4.378039   0.471934
    15  C    1.052291  -7.437230  11.843760  -0.078422  -3.284176  -0.798344
    16  H   -0.033940   0.369775  -0.078422   0.515396  -0.013340   0.004696
    17  C    1.025623   4.378039  -3.284176  -0.013340  11.324216  -0.341298
    18  C   -0.774532   0.471934  -0.798344   0.004696  -0.341298   7.463154
    19  H    0.024846  -0.148052   0.374355  -0.004584   0.028785   0.015447
    20  H    0.030324   0.000996   0.023204   0.000016   0.388367  -0.003949
    21  C   -0.010411  -0.016027   0.001917  -0.000001  -0.002265  -0.000022
    22  H    0.000000  -0.000001   0.000000   0.000000   0.000000   0.000000
    23  C   -2.795001 -12.598178   4.445351   0.017206  -7.231564   0.264498
    24  H   -0.033690   0.022563  -0.016130  -0.000162  -0.090673   0.006961
    25  C    0.000141  -0.000002   0.000001   0.000000   0.000000   0.000000
    26  H    0.000000   0.000000   0.000000   0.000000   0.000000   0.000000
    27  H    0.000000   0.000000   0.000000   0.000000   0.000000   0.000000
    28  H    0.000000   0.000000   0.000000   0.000000   0.000000   0.000000
    29  O   -0.029842   0.082648  -0.251796  -0.000499  -0.243307   0.496533
    30  C    0.020261  -0.048557   0.079664  -0.000424   0.102495  -0.357321
    31  H    0.001217  -0.002450   0.011646   0.000000   0.012383  -0.020536
    32  H   -0.003199   0.032950  -0.053811  -0.000001   0.028520   0.040656
    33  H    0.000399  -0.045135   0.044417   0.000009  -0.045375   0.019397
              19         20         21         22         23         24
     1  C    0.000000   0.000000  -1.642797  -0.091400  -0.001600   0.000000
     2  C    0.000000   0.000000  -0.295424  -0.022728  -0.006799  -0.000013
     3  C    0.000000   0.000000  -3.192916   0.019315  -0.015941  -0.000003
     4  C    0.000000   0.000000   0.346253  -0.006765   0.001298   0.000000
     5  C    0.000000   0.000000   0.151581   0.003095   0.000002   0.000000
     6  H    0.000000   0.000000  -0.082452  -0.004305   0.000000   0.000000
     7  H    0.000000   0.000000   0.021505  -0.000160  -0.000001   0.000000
     8  H    0.000000   0.000000  -0.003271   0.000019   0.000000   0.000000
     9  C    0.000007   0.000006  -0.118111   0.027733   0.023537  -0.000019
    10  C   -0.000067  -0.000069  -0.089956  -0.006923  -0.004100   0.001180
    11  C    0.001315   0.001365  -0.087414   0.001343  -0.366591  -0.010450
    12  C   -0.005254  -0.004952   0.026591   0.000069   0.858412   0.030271
    13  C    0.024846   0.030324  -0.010411   0.000000  -2.795001  -0.033690
    14  C   -0.148052   0.000996  -0.016027  -0.000001 -12.598178   0.022563
    15  C    0.374355   0.023204   0.001917   0.000000   4.445351  -0.016130
    16  H   -0.004584   0.000016  -0.000001   0.000000   0.017206  -0.000162
    17  C    0.028785   0.388367  -0.002265   0.000000  -7.231564  -0.090673
    18  C    0.015447  -0.003949  -0.000022   0.000000   0.264498   0.006961
    19  H    0.520253  -0.000156   0.000000   0.000000   0.000550   0.000016
    20  H   -0.000156   0.521250   0.000000   0.000000  -0.143556  -0.004533
    21  C    0.000000   0.000000  10.758020   0.359178   0.019031   0.000006
    22  H    0.000000   0.000000   0.359178   0.523527   0.000003   0.000000
    23  C    0.000550  -0.143556   0.019031   0.000003  23.714847   0.378921
    24  H    0.000016  -0.004533   0.000006   0.000000   0.378921   0.516471
    25  C    0.000000   0.000000   0.078291   0.002189  -0.000001   0.000000
    26  H    0.000000   0.000000  -0.009459   0.000002   0.000000   0.000000
    27  H    0.000000   0.000000   0.000762   0.000002   0.000000   0.000000
    28  H    0.000000   0.000000   0.008308  -0.000004   0.000000   0.000000
    29  O   -0.002585  -0.001938   0.000000   0.000000   0.074522  -0.000495
    30  C    0.001073   0.000804   0.000000   0.000000  -0.025112  -0.000441
    31  H   -0.000064  -0.000060   0.000000   0.000000  -0.000636   0.000000
    32  H    0.000036   0.000220   0.000000   0.000000  -0.043943   0.000009
    33  H    0.000118   0.000069   0.000000   0.000000   0.029548  -0.000001
              25         26         27         28         29         30
     1  C   -0.039151   0.030699  -0.002989  -0.015417   0.000000   0.000000
     2  C   -0.430527  -0.000340  -0.000551  -0.003586  -0.000001   0.000001
     3  C    0.023543   0.004847  -0.003162  -0.005451   0.000000   0.000000
     4  C   -0.103021  -0.012188  -0.016543   0.020732   0.000000   0.000000
     5  C   -0.997022  -0.128623  -0.050905  -0.140190   0.000000   0.000000
     6  H   -0.025544   0.000087   0.000273   0.003415   0.000000   0.000000
     7  H    0.002091  -0.000003   0.000001   0.000002   0.000000   0.000000
     8  H   -0.020752   0.002265   0.000452   0.000086   0.000000   0.000000
     9  C    0.072093   0.000458   0.000245   0.000254   0.000015   0.000002
    10  C   -0.045772   0.000001  -0.000030  -0.000012  -0.000076   0.000083
    11  C    0.008535   0.000002   0.000002   0.000001   0.000948   0.000155
    12  C   -0.001136   0.000000   0.000000   0.000000   0.000240   0.003209
    13  C    0.000141   0.000000   0.000000   0.000000  -0.029842   0.020261
    14  C   -0.000002   0.000000   0.000000   0.000000   0.082648  -0.048557
    15  C    0.000001   0.000000   0.000000   0.000000  -0.251796   0.079664
    16  H    0.000000   0.000000   0.000000   0.000000  -0.000499  -0.000424
    17  C    0.000000   0.000000   0.000000   0.000000  -0.243307   0.102495
    18  C    0.000000   0.000000   0.000000   0.000000   0.496533  -0.357321
    19  H    0.000000   0.000000   0.000000   0.000000  -0.002585   0.001073
    20  H    0.000000   0.000000   0.000000   0.000000  -0.001938   0.000804
    21  C    0.078291  -0.009459   0.000762   0.008308   0.000000   0.000000
    22  H    0.002189   0.000002   0.000002  -0.000004   0.000000   0.000000
    23  C   -0.000001   0.000000   0.000000   0.000000   0.074522  -0.025112
    24  H    0.000000   0.000000   0.000000   0.000000  -0.000495  -0.000441
    25  C    6.847872   0.455776   0.408387   0.477745   0.000000   0.000000
    26  H    0.455776   0.497341  -0.029161  -0.026079   0.000000   0.000000
    27  H    0.408387  -0.029161   0.488059  -0.027056   0.000000   0.000000
    28  H    0.477745  -0.026079  -0.027056   0.497988   0.000000   0.000000
    29  O    0.000000   0.000000   0.000000   0.000000   8.294261   0.121994
    30  C    0.000000   0.000000   0.000000   0.000000   0.121994   5.274929
    31  H    0.000000   0.000000   0.000000   0.000000  -0.042401   0.390671
    32  H    0.000000   0.000000   0.000000   0.000000  -0.053249   0.393124
    33  H    0.000000   0.000000   0.000000   0.000000  -0.052943   0.389938
              31         32         33
     1  C    0.000000   0.000000   0.000000
     2  C    0.000000   0.000000   0.000000
     3  C    0.000000   0.000000   0.000000
     4  C    0.000000   0.000000   0.000000
     5  C    0.000000   0.000000   0.000000
     6  H    0.000000   0.000000   0.000000
     7  H    0.000000   0.000000   0.000000
     8  H    0.000000   0.000000   0.000000
     9  C    0.000000   0.000000   0.000000
    10  C    0.000000   0.000000   0.000000
    11  C    0.000007  -0.000065  -0.000001
    12  C    0.000039  -0.000547  -0.000275
    13  C    0.001217  -0.003199   0.000399
    14  C   -0.002450   0.032950  -0.045135
    15  C    0.011646  -0.053811   0.044417
    16  H    0.000000  -0.000001   0.000009
    17  C    0.012383   0.028520  -0.045375
    18  C   -0.020536   0.040656   0.019397
    19  H   -0.000064   0.000036   0.000118
    20  H   -0.000060   0.000220   0.000069
    21  C    0.000000   0.000000   0.000000
    22  H    0.000000   0.000000   0.000000
    23  C   -0.000636  -0.043943   0.029548
    24  H    0.000000   0.000009  -0.000001
    25  C    0.000000   0.000000   0.000000
    26  H    0.000000   0.000000   0.000000
    27  H    0.000000   0.000000   0.000000
    28  H    0.000000   0.000000   0.000000
    29  O   -0.042401  -0.053249  -0.052943
    30  C    0.390671   0.393124   0.389938
    31  H    0.506761  -0.031286  -0.030200
    32  H   -0.031286   0.540687  -0.046559
    33  H   -0.030200  -0.046559   0.537317
 Mulliken charges:
               1
     1  C   -0.338171
     2  C   -0.105461
     3  C   -0.166151
     4  C   -0.093974
     5  C    0.368211
     6  H    0.178710
     7  H    0.195377
     8  H    0.180143
     9  C   -1.007856
    10  C    0.856847
    11  C    0.889570
    12  C   -0.987389
    13  C    0.317517
    14  C   -0.609169
    15  C    0.285603
    16  H    0.201474
    17  C    0.281412
    18  C   -0.217834
    19  H    0.193962
    20  H    0.192592
    21  C   -0.220917
    22  H    0.195812
    23  C   -0.594700
    24  H    0.200212
    25  C   -0.713736
    26  H    0.214376
    27  H    0.232214
    28  H    0.209262
    29  O   -0.392029
    30  C   -0.346550
    31  H    0.204909
    32  H    0.196457
    33  H    0.199278
 Sum of Mulliken charges =   0.00000
 Mulliken charges with hydrogens summed into heavy atoms:
               1
     1  C   -0.159461
     2  C   -0.105461
     3  C    0.029226
     4  C    0.086169
     5  C    0.368211
     9  C   -1.007856
    10  C    0.856847
    11  C    0.889570
    12  C   -0.987389
    13  C    0.317517
    14  C   -0.407695
    15  C    0.479565
    17  C    0.474003
    18  C   -0.217834
    21  C   -0.025105
    23  C   -0.394488
    25  C   -0.057884
    29  O   -0.392029
    30  C    0.254093
 Electronic spatial extent (au):  <R**2>=          13921.3733
 Charge=              0.0000 electrons
 Dipole moment (field-independent basis, Debye):
    X=              1.2131    Y=             -0.3468    Z=              1.5189  Tot=              1.9746
 Quadrupole moment (field-independent basis, Debye-Ang):
   XX=            -78.2228   YY=           -101.2898   ZZ=           -117.3530
   XY=              3.2156   XZ=            -10.9522   YZ=              0.5074
 Traceless Quadrupole moment (field-independent basis, Debye-Ang):
   XX=             20.7324   YY=             -2.3346   ZZ=            -18.3978
   XY=              3.2156   XZ=            -10.9522   YZ=              0.5074
 Octapole moment (field-independent basis, Debye-Ang**2):
  XXX=            110.1768  YYY=             -0.0277  ZZZ=              2.8695  XYY=             -8.8550
  XXY=            -22.4738  XXZ=             96.7128  XZZ=            -18.4622  YZZ=             -0.2483
  YYZ=             -0.4296  XYZ=            -13.7684
 Hexadecapole moment (field-independent basis, Debye-Ang**3):
 XXXX=         -16306.1719 YYYY=           -589.0262 ZZZZ=           -232.6755 XXXY=            199.1335
 XXXZ=           -701.9142 YYYX=             -4.2492 YYYZ=              2.6327 ZZZX=            -10.7177
 ZZZY=              0.6276 XXYY=          -2923.3072 XXZZ=          -3232.2083 YYZZ=           -153.9508
 XXYZ=             -1.3721 YYXZ=             -0.0868 ZZXY=              5.2661
 N-N= 1.067417423376D+03 E-N=-3.917284054953D+03  KE= 7.616558150327D+02
 Calling FoFJK, ICntrl=      2127 FMM=F ISym2X=0 I1Cent= 0 IOpClX= 0 NMat=1 NMatS=1 NMatT=0.
 ***** Axes restored to original set *****
 -------------------------------------------------------------------
 Center     Atomic                   Forces (Hartrees/Bohr)
 Number     Number              X              Y              Z
 -------------------------------------------------------------------
      1        6           0.008225487   -0.016029101   -0.014241457
      2        6           0.030669062    0.006489905   -0.048487701
      3        6          -0.005113334    0.004850832    0.010439336
      4        6           0.009948332    0.017412955   -0.012258245
      5        6          -0.010749965    0.000350078    0.014652741
      6        1          -0.003214651    0.010590544    0.007380071
      7        1           0.003401964   -0.008450123   -0.006535666
      8        1          -0.003848200   -0.011154229    0.002303797
      9        6          -0.049725884   -0.013982018    0.077822115
     10        6           0.073668460    0.017599892   -0.114865705
     11        6          -0.064043567   -0.015152775    0.099787931
     12        6           0.036556625    0.010063551   -0.056733738
     13        6          -0.027367651   -0.009604358    0.045880203
     14        6           0.002338321    0.008099426   -0.009331579
     15        6          -0.006563658    0.007911679    0.006190064
     16        1          -0.000834058   -0.008375032    0.003979040
     17        6          -0.000996958   -0.013940128    0.006972604
     18        6           0.006027182    0.004085912   -0.015897237
     19        1           0.007075520   -0.009817147   -0.006284657
     20        1           0.000766561    0.011553203   -0.007102186
     21        6          -0.006100739   -0.005494385    0.008184239
     22        1           0.002755204    0.009583929   -0.003567456
     23        6           0.009440825   -0.006731401   -0.011740281
     24        1          -0.006778432    0.010110501    0.004942803
     25        6           0.018219815    0.005259075   -0.031332217
     26        1          -0.011987307   -0.012229166    0.000655531
     27        1           0.008932748   -0.004903605    0.016135337
     28        1          -0.009253005    0.013282048    0.006715797
     29        8          -0.017819463   -0.004111808    0.023994486
     30        6          -0.011508197   -0.003754736   -0.001727221
     31        1           0.004660034   -0.000397339   -0.016525019
     32        1           0.002210014    0.018292249    0.008698688
     33        1           0.011008917   -0.011408426    0.011895583
 -------------------------------------------------------------------
 Cartesian Forces:  Max     0.114865705 RMS     0.024896958

 GradGradGradGradGradGradGradGradGradGradGradGradGradGradGradGradGradGrad
 Berny optimization.
 FormGI is forming the generalized inverse of G from B-inverse, IUseBI=4.
 GSVD:  received Info=                   1 from GESDD.
 Internal  Forces:  Max     0.104208201 RMS     0.012373887
 Search for a local minimum.
 Step number   1 out of a maximum of  164
 All quantities printed in internal units (Hartrees-Bohrs-Radians)
 Mixed Optimization -- RFO/linear search
 Second derivative matrix not updated -- first step.
 ITU=  0
     Eigenvalues ---    0.00230   0.00230   0.00230   0.00230   0.00363
     Eigenvalues ---    0.00428   0.01304   0.01309   0.01317   0.01508
     Eigenvalues ---    0.01684   0.01945   0.02041   0.02047   0.02049
     Eigenvalues ---    0.02051   0.02058   0.02060   0.02068   0.02075
     Eigenvalues ---    0.02081   0.02082   0.02090   0.02090   0.02099
     Eigenvalues ---    0.02108   0.03715   0.04476   0.04666   0.04764
     Eigenvalues ---    0.07232   0.07241   0.10345   0.10347   0.16000
     Eigenvalues ---    0.16000   0.16000   0.16000   0.16000   0.16000
     Eigenvalues ---    0.16000   0.16000   0.16000   0.16000   0.16000
     Eigenvalues ---    0.16000   0.16000   0.16000   0.21999   0.22000
     Eigenvalues ---    0.22979   0.22979   0.23998   0.24000   0.24999
     Eigenvalues ---    0.25000   0.25000   0.25000   0.25000   0.27808
     Eigenvalues ---    0.28122   0.28424   0.29849   0.36937   0.37081
     Eigenvalues ---    0.37144   0.37172   0.37190   0.37195   0.37249
     Eigenvalues ---    0.37251   0.37255   0.37285   0.37429   0.37553
     Eigenvalues ---    0.37563   0.37571   0.41067   0.41088   0.41142
     Eigenvalues ---    0.41247   0.41689   0.41852   0.45051   0.45102
     Eigenvalues ---    0.45244   0.45319   0.45383   0.45640   0.45752
     Eigenvalues ---    0.45962   1.01969   1.06135
 RFO step:  Lambda=-6.34214096D-02 EMin= 2.30000000D-03
 Linear search not attempted -- first point.
 Maximum step size (   0.300) exceeded in Quadratic search.
    -- Step size scaled by   0.713
 Iteration  1 RMS(Cart)=  0.08871570 RMS(Int)=  0.00154016
 Iteration  2 RMS(Cart)=  0.00438741 RMS(Int)=  0.00003685
 Iteration  3 RMS(Cart)=  0.00000065 RMS(Int)=  0.00003685
 Variable       Old X    -DE/DX   Delta X   Delta X   Delta X     New X
                                 (Linear)    (Quad)   (Total)
    R1        2.65263  -0.00159   0.00000  -0.00225  -0.00225   2.65039
    R2        2.01905   0.01330   0.00000   0.02167   0.02167   2.04072
    R3        2.64885  -0.00482   0.00000  -0.00655  -0.00655   2.64230
    R4        2.65066  -0.00211   0.00000  -0.00287  -0.00288   2.64778
    R5        2.91872  -0.06002   0.00000  -0.12420  -0.12420   2.79452
    R6        2.64288   0.00176   0.00000   0.00255   0.00254   2.64542
    R7        2.65403  -0.00722   0.00000  -0.01016  -0.01016   2.64388
    R8        2.02261   0.01118   0.00000   0.01832   0.01832   2.04093
    R9        2.64576   0.00191   0.00000   0.00249   0.00249   2.64826
   R10        2.02254   0.01197   0.00000   0.01960   0.01960   2.04214
   R11        2.91220  -0.00989   0.00000  -0.02029  -0.02029   2.89191
   R12        2.26278   0.03338   0.00000   0.02117   0.02117   2.28395
   R13        2.92560  -0.10421   0.00000  -0.21764  -0.21764   2.70796
   R14        2.27860   0.01533   0.00000   0.01009   0.01009   2.28870
   R15        2.88266  -0.05290   0.00000  -0.10425  -0.10425   2.77841
   R16        2.64790   0.00198   0.00000   0.00311   0.00310   2.65101
   R17        2.64302   0.00343   0.00000   0.00492   0.00491   2.64793
   R18        2.64547  -0.00452   0.00000  -0.00605  -0.00605   2.63942
   R19        2.02641   0.00929   0.00000   0.01530   0.01530   2.04172
   R20        2.64074  -0.00184   0.00000  -0.00274  -0.00273   2.63802
   R21        2.01721   0.01357   0.00000   0.02206   0.02206   2.03926
   R22        2.65098  -0.00604   0.00000  -0.00875  -0.00874   2.64224
   R23        2.01706   0.01353   0.00000   0.02198   0.02198   2.03905
   R24        2.65172  -0.00698   0.00000  -0.00983  -0.00983   2.64189
   R25        2.70102  -0.02842   0.00000  -0.04274  -0.04274   2.65828
   R26        2.02425   0.01055   0.00000   0.01733   0.01733   2.04157
   R27        2.01694   0.01313   0.00000   0.02133   0.02133   2.03827
   R28        2.02329   0.01682   0.00000   0.02758   0.02758   2.05087
   R29        2.02118   0.01885   0.00000   0.03082   0.03082   2.05200
   R30        2.02164   0.01719   0.00000   0.02813   0.02813   2.04977
   R31        2.70031   0.00725   0.00000   0.01089   0.01089   2.71120
   R32        2.02169   0.01640   0.00000   0.02684   0.02684   2.04852
   R33        2.02173   0.02015   0.00000   0.03297   0.03297   2.05470
   R34        2.02287   0.01961   0.00000   0.03215   0.03215   2.05502
    A1        2.09487  -0.00139   0.00000  -0.00340  -0.00340   2.09147
    A2        2.09643   0.00303   0.00000   0.00759   0.00760   2.10403
    A3        2.09188  -0.00164   0.00000  -0.00419  -0.00419   2.08769
    A4        2.10215  -0.00196   0.00000  -0.00455  -0.00454   2.09761
    A5        2.09475   0.00082   0.00000   0.00206   0.00204   2.09679
    A6        2.08626   0.00114   0.00000   0.00249   0.00250   2.08877
    A7        2.09412  -0.00172   0.00000  -0.00458  -0.00459   2.08953
    A8        2.09353   0.00018   0.00000   0.00011   0.00012   2.09365
    A9        2.09552   0.00154   0.00000   0.00447   0.00447   2.10000
   A10        2.09425   0.00424   0.00000   0.01008   0.01008   2.10433
   A11        2.09572  -0.00279   0.00000  -0.00717  -0.00718   2.08854
   A12        2.09321  -0.00145   0.00000  -0.00290  -0.00290   2.09031
   A13        2.09207  -0.00471   0.00000  -0.01116  -0.01115   2.08092
   A14        2.09795   0.00225   0.00000   0.00535   0.00534   2.10328
   A15        2.09317   0.00246   0.00000   0.00582   0.00581   2.09898
   A16        2.08365   0.00149   0.00000   0.00274   0.00275   2.08640
   A17        2.10535  -0.00199   0.00000  -0.00517  -0.00516   2.10019
   A18        2.09418   0.00050   0.00000   0.00244   0.00242   2.09660
   A19        2.09330  -0.00123   0.00000  -0.00183  -0.00183   2.09147
   A20        2.09431   0.00051   0.00000   0.00056   0.00056   2.09487
   A21        2.09557   0.00073   0.00000   0.00127   0.00127   2.09684
   A22        2.09923  -0.00289   0.00000  -0.00715  -0.00714   2.09209
   A23        2.09390   0.00275   0.00000   0.00772   0.00772   2.10162
   A24        2.09005   0.00015   0.00000  -0.00058  -0.00059   2.08946
   A25        2.09294  -0.00024   0.00000  -0.00097  -0.00097   2.09197
   A26        2.09458  -0.00164   0.00000  -0.00482  -0.00482   2.08976
   A27        2.09566   0.00188   0.00000   0.00579   0.00579   2.10145
   A28        2.09074   0.00608   0.00000   0.01307   0.01308   2.10382
   A29        2.08988  -0.00228   0.00000  -0.00481  -0.00482   2.08506
   A30        2.10256  -0.00380   0.00000  -0.00826  -0.00828   2.09428
   A31        2.09438  -0.00164   0.00000  -0.00383  -0.00384   2.09054
   A32        2.09650   0.00127   0.00000   0.00334   0.00335   2.09985
   A33        2.09231   0.00037   0.00000   0.00049   0.00049   2.09280
   A34        2.09406  -0.00080   0.00000  -0.00156  -0.00158   2.09249
   A35        2.09462   0.00037   0.00000   0.00067   0.00068   2.09530
   A36        2.09450   0.00043   0.00000   0.00089   0.00090   2.09540
   A37        1.91034   0.00343   0.00000   0.01112   0.01105   1.92140
   A38        1.91097   0.00265   0.00000   0.00801   0.00797   1.91893
   A39        1.91115   0.00362   0.00000   0.01182   0.01175   1.92290
   A40        1.91018  -0.00336   0.00000  -0.01126  -0.01130   1.89888
   A41        1.90985  -0.00298   0.00000  -0.00861  -0.00870   1.90115
   A42        1.91131  -0.00336   0.00000  -0.01108  -0.01112   1.90019
   A43        1.91266   0.01425   0.00000   0.03244   0.03244   1.94510
   A44        1.91100  -0.00988   0.00000  -0.03315  -0.03310   1.87789
   A45        1.91080   0.00546   0.00000   0.01824   0.01815   1.92895
   A46        1.91112   0.00517   0.00000   0.01734   0.01724   1.92836
   A47        1.91092   0.00032   0.00000  -0.00062  -0.00057   1.91035
   A48        1.91005   0.00049   0.00000  -0.00004   0.00000   1.91005
   A49        1.90992  -0.00157   0.00000  -0.00175  -0.00198   1.90794
   A50        3.14882  -0.00071   0.00000  -0.00452  -0.00452   3.14430
   A51        3.14012   0.00051   0.00000   0.00543   0.00543   3.14555
   A52        3.14073  -0.00017   0.00000  -0.00108  -0.00109   3.13964
   A53        3.14122  -0.00024   0.00000  -0.00251  -0.00251   3.13870
   A54        3.14070   0.00011   0.00000   0.00074   0.00073   3.14143
   A55        3.14194   0.00000   0.00000  -0.00008  -0.00008   3.14186
   A56        3.14135   0.00000   0.00000  -0.00009  -0.00009   3.14125
   A57        3.14156  -0.00001   0.00000  -0.00029  -0.00029   3.14127
    D1        3.13602  -0.00001   0.00000   0.00014   0.00014   3.13617
    D2       -0.00507  -0.00039   0.00000  -0.00333  -0.00332  -0.00839
    D3       -0.00806   0.00012   0.00000   0.00137   0.00138  -0.00668
    D4        3.13403  -0.00025   0.00000  -0.00210  -0.00208   3.13195
    D5        0.02431  -0.00057   0.00000  -0.00479  -0.00478   0.01953
    D6       -3.11805  -0.00047   0.00000  -0.00401  -0.00401  -3.12206
    D7       -3.11977  -0.00044   0.00000  -0.00355  -0.00354  -3.12331
    D8        0.02106  -0.00033   0.00000  -0.00277  -0.00277   0.01829
    D9       -3.14084   0.00014   0.00000   0.00106   0.00105  -3.13979
   D10       -0.00300   0.00002   0.00000   0.00013   0.00012  -0.00287
   D11       -0.00594   0.00019   0.00000   0.00154   0.00152  -0.00441
   D12        3.13191   0.00007   0.00000   0.00061   0.00060   3.13251
   D13       -0.36568   0.00014   0.00000   0.00133   0.00132  -0.36435
   D14        2.77865  -0.00008   0.00000  -0.00071  -0.00072   2.77794
   D15        2.78174   0.00011   0.00000   0.00102   0.00103   2.78277
   D16       -0.35712  -0.00011   0.00000  -0.00102  -0.00101  -0.35813
   D17       -0.01727   0.00041   0.00000   0.00336   0.00335  -0.01392
   D18        3.12509   0.00031   0.00000   0.00258   0.00258   3.12767
   D19        3.11769   0.00046   0.00000   0.00381   0.00379   3.12149
   D20       -0.02313   0.00036   0.00000   0.00302   0.00302  -0.02011
   D21        0.02218  -0.00056   0.00000  -0.00475  -0.00476   0.01741
   D22       -3.12019  -0.00044   0.00000  -0.00365  -0.00365  -3.12384
   D23       -3.11567  -0.00044   0.00000  -0.00381  -0.00383  -3.11949
   D24        0.02515  -0.00032   0.00000  -0.00270  -0.00271   0.02244
   D25       -0.01516   0.00038   0.00000   0.00326   0.00328  -0.01188
   D26        3.12594   0.00075   0.00000   0.00673   0.00673   3.13267
   D27        3.12721   0.00026   0.00000   0.00216   0.00216   3.12937
   D28       -0.01488   0.00063   0.00000   0.00562   0.00562  -0.00926
   D29        2.50205   0.00053   0.00000   0.00353   0.00356   2.50561
   D30       -1.68727   0.00014   0.00000   0.00145   0.00146  -1.68581
   D31        0.40847  -0.00013   0.00000   0.00005   0.00004   0.40851
   D32       -0.63905   0.00016   0.00000   0.00006   0.00007  -0.63898
   D33        1.45482  -0.00023   0.00000  -0.00202  -0.00204   1.45279
   D34       -2.73262  -0.00050   0.00000  -0.00342  -0.00345  -2.73607
   D35        3.12178   0.00038   0.00000   0.00316   0.00316   3.12494
   D36       -0.01615   0.00028   0.00000   0.00228   0.00228  -0.01387
   D37       -0.02329   0.00072   0.00000   0.00609   0.00609  -0.01720
   D38        3.12196   0.00062   0.00000   0.00521   0.00521   3.12717
   D39       -3.13046  -0.00013   0.00000  -0.00105  -0.00105  -3.13152
   D40        0.01277  -0.00030   0.00000  -0.00246  -0.00246   0.01031
   D41        0.01465  -0.00048   0.00000  -0.00403  -0.00402   0.01063
   D42       -3.12530  -0.00065   0.00000  -0.00544  -0.00543  -3.13073
   D43        0.01161  -0.00032   0.00000  -0.00278  -0.00278   0.00883
   D44       -3.12569  -0.00011   0.00000  -0.00093  -0.00093  -3.12662
   D45       -3.13365  -0.00022   0.00000  -0.00189  -0.00190  -3.13555
   D46        0.01224   0.00000   0.00000  -0.00005  -0.00005   0.01219
   D47        0.00869  -0.00029   0.00000  -0.00256  -0.00257   0.00612
   D48       -3.13391   0.00064   0.00000   0.00560   0.00562  -3.12829
   D49       -3.13719  -0.00050   0.00000  -0.00438  -0.00439  -3.14157
   D50        0.00339   0.00044   0.00000   0.00379   0.00381   0.00720
   D51        3.12729   0.00069   0.00000   0.00606   0.00608   3.13337
   D52       -0.01328  -0.00026   0.00000  -0.00216  -0.00216  -0.01544
   D53       -0.01732   0.00052   0.00000   0.00461   0.00463  -0.01269
   D54        3.12529  -0.00042   0.00000  -0.00361  -0.00361   3.12168
   D55        0.00567  -0.00018   0.00000  -0.00141  -0.00140   0.00427
   D56       -3.13757  -0.00001   0.00000   0.00000   0.00001  -3.13756
   D57       -3.13896  -0.00035   0.00000  -0.00287  -0.00287   3.14136
   D58        0.00099  -0.00018   0.00000  -0.00146  -0.00146  -0.00047
   D59       -1.62538  -0.00051   0.00000  -0.00445  -0.00441  -1.62980
   D60        1.51519   0.00044   0.00000   0.00378   0.00374   1.51893
   D61        3.09257   0.00027   0.00000   0.00244   0.00244   3.09501
   D62       -1.09554  -0.00205   0.00000  -0.00747  -0.00769  -1.10324
   D63        0.99838   0.00255   0.00000   0.01218   0.01240   1.01078
         Item               Value     Threshold  Converged?
 Maximum Force            0.104208     0.000450     NO 
 RMS     Force            0.012374     0.000300     NO 
 Maximum Displacement     0.235401     0.001800     NO 
 RMS     Displacement     0.092911     0.001200     NO 
 Predicted change in Energy=-3.198444D-02
 GradGradGradGradGradGradGradGradGradGradGradGradGradGradGradGradGradGrad

                          Input orientation:                          
 ---------------------------------------------------------------------
 Center     Atomic      Atomic             Coordinates (Angstroms)
 Number     Number       Type             X           Y           Z
 ---------------------------------------------------------------------
      1          6           0       -5.308590    2.002639    2.359521
      2          6           0       -4.199052    1.072299    0.419802
      3          6           0       -4.614470   -0.211719    0.796536
      4          6           0       -5.365741   -0.382937    1.964311
      5          6           0       -5.724122    0.721111    2.749520
      6          1           0       -5.583495    2.860812    2.954628
      7          1           0       -4.357865   -1.063095    0.183559
      8          1           0       -5.671604   -1.375495    2.262789
      9          6           0       -3.406524    1.265317   -0.813680
     10          6           0       -2.758770    1.419832   -1.822286
     11          6           0       -1.990385    1.608592   -3.017029
     12          6           0       -1.340512    1.765797   -4.026869
     13          6           0       -0.550716    1.952464   -5.252872
     14          6           0        0.149894    0.865468   -5.796543
     15          6           0        0.885896    1.031052   -6.972003
     16          1           0        0.117499   -0.097588   -5.307868
     17          6           0        0.247931    3.370864   -7.047501
     18          6           0        0.929723    2.279671   -7.594727
     19          1           0        1.417083    0.197928   -7.405905
     20          1           0        0.295508    4.332888   -7.533838
     21          6           0       -4.538824    2.179791    1.205756
     22          1           0       -4.205642    3.166595    0.918749
[...]
 669,-0.00002219,-0.00000128,-0.00002342,0.00000452,0.00002584,-0.00000
 433,0.00000245,0.00000163,-0.00000292,-0.12635120,0.11579322,0.0261906
 9,0.01343388,-0.01736700,-0.00378142,-0.01086574,0.01673644,0.00350130
 ,0.13336270,-0.00136526,0.00036133,0.00143854,-0.00019315,0.00028099,0
 .00019605,-0.00006617,0.00002722,0.00025247,0.00025422,0.00019734,0.00
 051856,-0.00362494,0.00411011,-0.00005276,0.00032067,0.00010285,0.0003
 2569,0.00000579,0.00000195,-0.00000026,-0.00007826,0.00038593,0.000229
 16,0.00017751,0.00004385,0.00000328,-0.00002792,-0.00001171,0.00003718
 ,0.00000764,0.00000542,-0.00004324,-0.00001277,-0.00000374,0.00002765,
 0.00000047,0.00000225,-0.00000213,-0.00000174,0.00001097,0.00000461,0.
 00000783,0.00001287,-0.00001056,-0.00000082,0.00000109,0.00000307,0.00
 000933,-0.00000935,-0.00001466,-0.00002419,0.00000052,0.00003483,0.000
 00121,-0.00000149,-0.00000174,0.00000196,0.00000225,-0.00000157,-0.000
 03992,0.00028418,-0.00080755,0.00007177,0.00000545,-0.00003072,-0.0000
 0409,-0.00001414,0.00000152,-0.00000132,-0.00000150,0.00000207,0.11694
 370,-0.22856154,-0.03823887,0.01435640,-0.01938343,-0.00341606,0.00193
 417,-0.00384719,-0.00038793,-0.12867716,0.24599835,-0.00095343,-0.0012
 9824,0.00065771,-0.00002279,-0.00011437,0.00021852,-0.00018785,-0.0010
 2219,-0.00096201,0.00343010,0.00201743,-0.00316664,0.01534281,-0.02462
 368,-0.00709354,0.00042450,0.00088056,0.00032898,0.00016772,0.00004962
 ,-0.00037952,0.00012614,0.00009531,0.00015902,0.00008456,0.00008438,-0
 .00001873,-0.00003291,-0.00000102,0.00002722,0.00003272,-0.00000989,-0
 .00002501,-0.00002522,0.00000493,0.00001483,0.00000479,0.00000091,0.00
 000016,-0.00000177,0.00001336,0.00000483,0.00000682,0.00001295,-0.0000
 0890,-0.00000103,0.00000085,0.00000222,0.00000737,-0.00001008,-0.00001
 417,-0.00002195,0.00000114,0.00003106,0.00000130,-0.00000096,-0.000001
 49,0.00000168,0.00000197,-0.00000162,-0.00032632,-0.00001216,-0.000265
 01,-0.00001233,0.00001419,0.00002714,-0.00000221,-0.00001646,0.0000011
 5,-0.00000061,-0.00000078,0.00000197,0.02478184,-0.03620974,-0.0540172
 6,0.00145712,-0.00253098,-0.00148460,-0.01361295,0.02270484,0.00553227
 ,-0.03069184,0.03996932,0.06046556,-0.00006780,-0.00025217,0.00005961,
 0.00039127,0.00006805,-0.00052220,-0.00011066,0.00014412,0.00020326,-0
 .00005194,0.00022703,0.00013122,-0.00008268,0.00001682,-0.00006121,-0.
 00004599,0.00005934,0.00007002,0.00002577,0.00003023,-0.00004618,-0.00
 004790,-0.00007307,0.00004870,-0.00030336,-0.00003801,0.00035387,0.000
 37667,0.00003903,-0.00033580,-0.00104665,-0.00020745,0.00122333,0.0011
 7858,0.00040983,-0.00208870,-0.00322235,0.00129985,0.00294513,0.005572
 89,-0.00165781,-0.00220072,-0.01422703,-0.01248880,0.02736410,-0.00015
 980,-0.00017059,0.00058765,-0.00671598,0.00414057,0.02300481,-0.122077
 23,0.00796412,0.11696468,-0.00172533,0.00081496,-0.00189262,-0.0018334
 4,-0.00006174,-0.00135156,-0.00012143,-0.00019438,0.00015253,0.0000263
 9,-0.00001547,-0.00005248,0.00549972,0.00044327,0.00157424,-0.00050568
 ,-0.00006802,0.00047303,0.00013043,-0.00002479,0.00006811,-0.00007316,
 -0.00003025,0.00002294,-0.00005481,-0.00001699,0.00012733,-0.00006782,
 0.00003193,0.00002984,0.21861865,-0.00002549,-0.00007946,0.00002364,0.
 00012756,0.00002176,-0.00017788,-0.00003749,0.00004815,0.00006600,-0.0
 0001979,0.00007756,0.00004705,-0.00002822,0.00000688,-0.00002819,-0.00
 001770,0.00002140,0.00002794,0.00001122,0.00001557,-0.00001581,-0.0000
 1484,-0.00002418,0.00001548,-0.00006550,0.00001136,0.00010911,0.000064
 57,-0.00001951,-0.00012416,-0.00024295,-0.00013490,0.00035877,0.000415
 15,0.00064196,-0.00043814,-0.00018903,0.00460729,0.00126502,0.00173811
 ,-0.00830833,-0.00460122,-0.03086150,0.00004834,0.04339860,-0.00107393
 ,-0.00013563,0.00147859,0.01912445,0.00841180,-0.02759635,-0.01375701,
 -0.10770947,0.00876846,0.00045949,0.00175352,0.00015529,-0.00092442,0.
 00129128,0.00200938,-0.00004587,-0.00008430,0.00005673,0.00001069,-0.0
 0000395,-0.00001891,-0.00310688,-0.00831169,0.00198943,0.00084207,0.00
 031596,-0.00113121,0.00004648,-0.00001008,0.00002383,-0.00002386,-0.00
 001008,0.00000779,-0.00001840,-0.00000701,0.00004313,-0.00002449,0.000
 01278,0.00001063,0.08285630,0.37055544,0.00009661,0.00035078,-0.000081
 17,-0.00053193,-0.00009479,0.00072933,0.00015731,-0.00019974,-0.000277
 55,0.00007419,-0.00031521,-0.00017949,0.00012837,-0.00002599,0.0000937
 4,0.00006104,-0.00008125,-0.00009755,-0.00003958,-0.00004120,0.0000602
 5,0.00006458,0.00010123,-0.00006856,0.00035478,0.00006215,-0.00054136,
 -0.00033180,-0.00007913,0.00060214,0.00121752,0.00030364,-0.00187515,-
 0.00208679,-0.00042898,0.00261528,0.00269644,-0.00087948,-0.00535555,-
 0.00163244,0.00028882,0.00663522,0.02429131,0.01694518,-0.02590384,0.0
 0043622,0.00017760,-0.00032992,0.02551136,-0.00602311,-0.02895443,0.11
 332653,-0.02250099,-0.20867805,-0.00195208,-0.00035494,-0.00038579,-0.
 00149410,0.00076659,-0.00048267,0.00016517,0.00026659,-0.00021174,-0.0
 0003883,0.00002248,0.00007029,0.00097941,-0.00312316,0.00460803,0.0006
 2485,0.00017935,-0.00103931,-0.00018686,0.00003563,-0.00009835,0.00010
 113,0.00004247,-0.00003223,0.00007584,0.00002277,-0.00017475,0.0000932
 6,-0.00004470,-0.00004173,-0.20341161,-0.06860412,0.34905144,0.0000117
 2,0.00006059,-0.00001788,-0.00009308,-0.00001771,0.00014040,0.00002634
 ,-0.00002944,-0.00005063,0.00001045,-0.00005477,-0.00003208,0.00002056
 ,-0.00000558,0.00001672,0.00001289,-0.00001469,-0.00001645,-0.00000447
 ,-0.00000925,0.00001228,0.00001268,0.00001745,-0.00001029,0.00004065,0
 .00002468,-0.00013197,-0.00001547,-0.00005301,0.00018146,0.00019844,0.
 00009010,-0.00038911,-0.00062862,-0.00010645,0.00039934,0.00074181,-0.
 00009236,-0.00060623,0.00055707,-0.00104988,0.00136126,0.00182548,0.00
 265406,0.00213963,-0.00028754,0.00009188,-0.00002625,-0.00007335,0.000
 02269,-0.00183539,-0.01860425,-0.02235995,0.01499027,-0.00044024,-0.00
 019417,-0.00033498,-0.00085119,-0.00071555,0.00092457,0.00003159,0.000
 04479,-0.00003935,-0.00000335,0.00000404,0.00001517,-0.00000220,-0.001
 20049,0.00032676,0.00015639,-0.00000631,-0.00020067,-0.00003170,0.0000
 0719,-0.00001601,0.00001776,0.00000670,-0.00000535,0.00001282,0.000004
 51,-0.00003204,0.00001702,-0.00000778,-0.00000681,-0.07970903,-0.02808
 112,0.02366612,0.57582983,0.00004519,0.00014839,-0.00003643,-0.0002311
 8,-0.00003946,0.00031761,0.00006535,-0.00008773,-0.00011863,0.00003527
 ,-0.00013929,-0.00007953,0.00005036,-0.00001004,0.00004269,0.00002848,
 -0.00003589,-0.00004497,-0.00001689,-0.00002253,0.00002594,0.00002670,
 0.00004253,-0.00002832,0.00015312,-0.00001350,-0.00021824,-0.00016775,
 0.00000989,0.00022771,0.00052792,0.00015975,-0.00071893,-0.00077634,-0
 .00037731,0.00111280,0.00110405,0.00070096,-0.00153097,-0.00048402,-0.
 00022517,0.00038988,0.00272389,0.00298954,-0.00392742,0.00020791,0.000
 15226,-0.00022099,0.00577673,0.00310816,-0.00756822,-0.01047285,-0.002
 09194,0.01566992,0.00001666,0.00000290,0.00008503,0.00069282,-0.000770
 72,-0.00110604,0.00007520,0.00013665,-0.00009713,-0.00001762,0.0000085
 3,0.00003155,-0.00090860,-0.00198268,0.00091335,0.00029212,-0.00005205
 ,-0.00043250,-0.00008087,0.00001619,-0.00004206,0.00004241,0.00001725,
 -0.00001411,0.00003290,0.00001104,-0.00007630,0.00004165,-0.00002063,-
 0.00001811,-0.04560623,-0.19730116,0.04269441,-0.04631412,0.48135433,-
 0.00001935,-0.00005899,0.00001103,0.00011315,0.00001717,-0.00013629,-0
 .00003252,0.00002832,0.00005034,-0.00001281,0.00005511,0.00002982,-0.0
 0002571,0.00000499,-0.00001794,-0.00001002,0.00001498,0.00001874,0.000
 00902,0.00000773,-0.00001017,-0.00001031,-0.00001862,0.00001271,-0.000
 11509,-0.00002771,0.00009550,0.00016434,0.00005821,-0.00010348,-0.0003
 1488,-0.00009353,0.00035438,0.00028534,0.00015266,-0.00072639,-0.00040
 529,0.00019470,0.00094917,0.00145544,0.00120212,-0.00027060,0.00215287
 ,-0.00382283,-0.00073407,-0.00000712,-0.00005436,-0.00031543,-0.000872
 67,0.00071198,0.00002304,0.01697932,0.03277873,-0.02455239,-0.00029952
 ,0.00038817,-0.00015409,0.00115634,0.00092202,-0.00164015,-0.00003158,
 -0.00004138,0.00004187,0.00000962,-0.00000478,-0.00001148,0.00037630,0
 .00133454,0.00004678,-0.00015055,-0.00000272,0.00023429,0.00003536,-0.
 00000761,0.00001759,-0.00001834,-0.00000866,0.00000590,-0.00001342,-0.
 00000424,0.00003138,-0.00001709,0.00000912,0.00000805,0.02072895,0.017
 45761,-0.08692560,-0.00769872,0.05081954,0.59547070,-0.00000369,-0.000
 01025,0.00000274,0.00001640,0.00000317,-0.00002411,-0.00000647,0.00000
 722,0.00000903,-0.00000183,0.00000915,0.00000625,-0.00000199,0.0000011
 2,-0.00000291,-0.00000197,0.00000266,0.00000340,0.00000178,0.00000173,
 -0.00000208,-0.00000206,-0.00000352,0.00000253,-0.00001162,0.00000003,
 0.00001275,0.00001847,-0.00000129,-0.00001096,-0.00005038,-0.00000549,
 0.00003380,0.00004758,0.00001796,-0.00006543,-0.00006870,0.00000097,0.
 00000507,0.00001425,-0.00021058,-0.00004774,-0.00022314,0.00008429,0.0
 0065958,-0.00006373,-0.00000231,0.00002797,0.00025554,-0.00012529,0.00
 007495,0.00100532,-0.00179127,-0.00090529,0.00001849,-0.00001647,-0.00
 000154,-0.00027522,0.00003142,-0.00026767,-0.00000507,-0.00000953,0.00
 000718,0.00000170,-0.00000119,-0.00000245,0.00014036,0.00004850,0.0000
 7755,0.00000712,0.00000075,0.00003463,0.00000519,-0.00000114,0.0000028
 9,-0.00000329,-0.00000168,0.00000100,-0.00000245,-0.00000073,0.0000056
 1,-0.00000297,0.00000152,0.00000142,-0.00851671,-0.00314594,0.01255356
 ,-0.13018933,0.03502551,0.11670029,0.13699806,-0.00000141,-0.00000383,
 0.00000081,0.00000495,0.00000089,-0.00000753,-0.00000088,0.00000214,0.
 00000239,-0.00000071,0.00000397,0.00000122,-0.00000063,0.00000071,-0.0
 0000013,-0.00000059,0.00000045,0.00000082,0.00000007,0.00000052,-0.000
 00035,-0.00000046,-0.00000074,0.00000043,-0.00000466,0.00000111,0.0000
 0831,0.00000407,-0.00000153,-0.00000894,-0.00001208,-0.00000876,0.0000
 2088,0.00003661,0.00006265,-0.00004290,0.00004337,0.00017492,-0.000021
 93,0.00010795,-0.00052061,-0.00024368,-0.00101074,0.00025082,0.0014597
 2,-0.00007921,-0.00000296,0.00012102,0.00009381,-0.00124881,-0.0003976
 2,-0.00103725,-0.00490561,0.00057388,0.00002914,-0.00001304,-0.0000473
 0,0.00026835,0.00083575,-0.00016888,-0.00000165,-0.00000413,0.00000230
 ,0.00000010,0.00000005,-0.00000031,-0.00011770,0.00045376,0.00021379,-
 0.00004034,-0.00001419,0.00005054,0.00000146,-0.00000072,0.00000055,-0
 .00000074,-0.00000004,0.00000032,-0.00000069,-0.00000013,0.00000157,-0
 .00000080,0.00000024,0.00000032,-0.02507938,-0.00203869,0.03566894,0.0
 4265904,-0.06385790,-0.06319921,-0.03239448,0.07459349,0.00000361,0.00
 001455,-0.00000500,-0.00002361,-0.00000420,0.00003299,0.00000674,-0.00
 000979,-0.00001413,0.00000356,-0.00001268,-0.00000818,0.00000588,-0.00
 000202,0.00000645,0.00000307,-0.00000378,-0.00000453,-0.00000197,-0.00
 000257,0.00000327,0.00000337,0.00000484,-0.00000320,0.00001166,0.00000
 066,-0.00002008,-0.00001037,-0.00000053,0.00002525,0.00003411,0.000011
 42,-0.00007072,-0.00006407,-0.00001563,0.00008589,0.00001318,0.0000387
 3,-0.00007533,0.00000535,0.00021518,0.00003309,0.00047688,-0.00011708,
 -0.00047937,0.00001508,0.00001019,-0.00006403,0.00011203,-0.00008250,0
 .00014770,-0.00077994,0.00166025,0.00198352,0.00000605,0.00001826,0.00
 001361,-0.00022804,0.00017204,-0.00010777,0.00000820,0.00001283,-0.000
 00919,-0.00000185,0.00000169,0.00000385,0.00004945,-0.00002554,0.00011
 284,0.00002777,-0.00000869,-0.00001031,-0.00000853,0.00000184,-0.00000
 479,0.00000468,0.00000216,-0.00000137,0.00000329,0.00000101,-0.0000080
 1,0.00000419,-0.00000206,-0.00000187,0.00888229,0.00409295,-0.01153342
 ,0.11797734,-0.05220850,-0.23177932,-0.13339464,0.05107093,0.24869081,
 0.00000436,0.00000820,-0.00000015,-0.00001089,-0.00000309,0.00001596,0
 .00000521,-0.00000466,-0.00000361,0.00000030,-0.00000881,-0.00000541,0
 .00000306,-0.00000029,0.00000198,0.00000124,-0.00000186,-0.00000273,-0
 .00000114,-0.00000103,0.00000089,0.00000080,0.00000223,-0.00000150,0.0
 0000880,-0.00000410,-0.00000799,-0.00001732,0.00001374,0.00000224,0.00
 002591,-0.00001381,-0.00003088,0.00003040,-0.00004681,0.00012367,0.000
 00451,0.00052037,-0.00005591,0.00008061,-0.00023905,-0.00040123,-0.000
 58765,-0.00031230,-0.00012822,0.00003862,-0.00000729,0.00000683,0.0003
 1506,0.00142672,-0.00009653,0.00201075,-0.00043573,-0.00003922,0.00004
 840,-0.00000977,0.00005690,0.00008545,-0.00068126,0.00109968,0.0000017
 5,0.00000897,-0.00000525,-0.00000183,0.00000022,0.00000069,-0.00063376
 ,-0.00062109,0.00019470,0.00004117,0.00000109,-0.00000591,-0.00000446,
 0.00000086,-0.00000290,0.00000212,0.00000103,-0.00000079,0.00000204,0.
 00000061,-0.00000382,0.00000226,-0.00000112,-0.00000110,0.01608555,-0.
 01047390,0.00512088,-0.21228885,0.11569328,-0.04846177,-0.01173374,0.0
 0826492,-0.00512942,0.21980913,-0.00000685,-0.00002461,0.00000571,0.00
 004176,0.00000808,-0.00005659,-0.00001054,0.00001340,0.00002212,-0.000
 00736,0.00002370,0.00001183,-0.00000934,0.00000107,-0.00000658,-0.0000
 0442,0.00000612,0.00000762,0.00000343,0.00000320,-0.00000431,-0.000004
 41,-0.00000746,0.00000512,-0.00003036,-0.00000437,0.00004438,0.0000243
 1,0.00001095,-0.00005649,-0.00009653,-0.00004286,0.00015294,0.00018394
 ,0.00007916,-0.00019407,-0.00022575,0.00031163,0.00041432,0.00017287,-
 0.00004001,-0.00070045,-0.00127000,-0.00083825,0.00084182,0.00001210,-
 0.00003090,0.00006746,-0.00069502,0.00055979,0.00043861,0.00466755,0.0
 0021634,-0.00526269,0.00022060,0.00016614,0.00006302,0.00015582,0.0004
 1334,0.00007954,-0.00001464,-0.00002108,0.00001619,0.00000350,-0.00000
 149,-0.00000494,-0.00007802,0.00006051,0.00008304,-0.00004649,0.000012
 77,0.00005273,0.00001429,-0.00000265,0.00000728,-0.00000737,-0.0000032
 5,0.00000244,-0.00000568,-0.00000176,0.00001293,-0.00000696,0.00000356
 ,0.00000315,0.01317797,-0.03442500,0.01658608,0.11144530,-0.13027197,0
 .03288208,0.00625520,-0.00229774,0.00107593,-0.12397551,0.15531486,-0.
 00000238,-0.00000222,0.00000114,0.00000195,0.00000082,-0.00000490,-0.0
 0000263,0.00000376,0.00000217,0.00000024,0.00000123,0.00000282,0.00000
 112,0.00000078,-0.00000137,-0.00000064,0.00000054,0.00000060,0.0000002
 7,0.00000082,-0.00000094,-0.00000090,-0.00000110,0.00000086,0.00000139
 ,-0.00000209,-0.00000329,0.00000549,0.00000938,0.00001026,0.00000617,-
 0.00000833,0.00000017,-0.00010480,-0.00003712,-0.00004513,0.00001758,-
 0.00068958,-0.00007468,-0.00033485,0.00022321,0.00074016,0.00089374,0.
 00055034,-0.00069109,-0.00002037,0.00000098,-0.00002065,-0.00014496,0.
 00005397,-0.00015403,-0.00326942,0.00084101,0.00254677,-0.00010012,-0.
 00011838,-0.00001794,-0.00013326,-0.00021154,-0.00216331,0.00000066,-0
 .00000339,0.00000212,0.00000033,-0.00000106,-0.00000105,0.00067654,0.0
 0001864,-0.00024845,-0.00001984,0.00001644,-0.00002920,0.00000070,-0.0
 0000040,0.00000072,-0.00000088,-0.00000054,0.00000022,-0.00000055,-0.0
 0000004,0.00000151,-0.00000056,0.00000031,0.00000023,-0.00404411,0.013
 53065,-0.00461755,-0.04579413,0.03176647,-0.06767213,0.02048636,-0.015
 63652,0.00913206,0.05058955,-0.04302019,0.06790106,-0.00000150,-0.0000
 0573,0.00000038,0.00000734,0.00000117,-0.00001060,-0.00000161,0.000000
 30,0.00000137,0.00000046,0.00000573,0.00000252,-0.00000078,0.00000056,
 0.00000028,-0.00000113,0.00000093,0.00000108,-0.00000045,0.00000093,-0
 .00000045,-0.00000053,-0.00000076,0.00000010,-0.00000929,0.00000341,0.
 00001316,0.00001549,-0.00001331,-0.00001257,-0.00002169,0.00000559,0.0
 0004131,-0.00000170,0.00007460,-0.00011240,-0.00004355,0.00051290,0.00
 015881,0.00048880,-0.00015388,-0.00053825,-0.00056156,-0.00056805,0.00
 100256,-0.00002832,0.00000131,0.00000193,-0.00027430,-0.00042181,0.000
 11421,0.00181696,-0.00045739,-0.00406068,-0.00002268,0.00015486,-0.000
 08518,-0.00149531,0.00068626,0.00052727,-0.00000110,-0.00000373,0.0000
 0370,-0.00000042,0.00000042,-0.00000072,0.00000936,0.00015105,0.000482
 05,-0.00003588,-0.00000975,0.00001425,0.00000180,-0.00000061,0.0000007
 9,-0.00000095,0.00000007,0.00000043,-0.00000105,-0.00000043,0.00000227
 ,-0.00000130,0.00000048,0.00000037,-0.00713913,-0.01351777,-0.00009046
 ,-0.13630083,-0.05758107,-0.10164958,0.01263407,0.00827056,0.01198466,
 -0.01332787,-0.00988339,-0.01870769,0.14429866,-0.00000806,-0.00002408
 ,0.00000556,0.00003945,0.00000665,-0.00005393,-0.00001279,0.00001318,0
 .00001864,-0.00000388,0.00002206,0.00001355,-0.00000769,0.00000193,-0.
 00000663,-0.00000463,0.00000567,0.00000677,0.00000222,0.00000376,-0.00
 000452,-0.00000463,-0.00000696,0.00000453,-0.00003060,-0.00000321,0.00
 004122,0.00004499,0.00000906,-0.00003888,-0.00011203,-0.00004071,0.000
 13137,0.00011481,0.00007191,-0.00021795,-0.00023886,0.00031531,0.00037
 611,0.00056467,-0.00010144,-0.00038043,-0.00038689,-0.00091214,0.00132
 671,-0.00007039,-0.00002102,0.00000494,-0.00003789,0.00070550,0.000829
 37,0.00305893,0.00040489,-0.00593827,-0.00011269,0.00018693,-0.0001573
 3,-0.00001897,0.00030189,-0.00010669,-0.00001055,-0.00002010,0.0000176
 7,0.00000225,-0.00000173,-0.00000535,-0.00004968,-0.00004054,0.0001220
 4,-0.00002805,0.00001285,0.00005689,0.00001255,-0.00000263,0.00000627,
 -0.00000687,-0.00000269,0.00000221,-0.00000515,-0.00000167,0.00001260,
 -0.00000663,0.00000320,0.00000281,-0.02573826,-0.02923760,-0.01171791,
 -0.05682040,-0.09155838,-0.07169514,-0.00377005,-0.00146200,-0.0059099
 2,0.01089923,0.01080877,0.01271317,0.07274655,0.11056333,-0.00000096,-
 0.00001180,0.00000435,0.00001610,0.00000382,-0.00002231,-0.00000165,0.
 00000638,0.00001006,-0.00000446,0.00001168,0.00000516,-0.00000438,0.00
 000054,-0.00000372,-0.00000251,0.00000272,0.00000312,0.00000077,0.0000
 0163,-0.00000213,-0.00000229,-0.00000311,0.00000165,-0.00000537,0.0000
 0194,0.00001502,-0.00000430,-0.00000503,-0.00002180,-0.00003133,0.0000
 0339,0.00004560,0.00016395,0.00001625,-0.00000595,-0.00016616,-0.00067
 806,-0.00002995,-0.00041510,0.00032457,0.00039375,-0.00015052,0.000497
 29,-0.00064445,0.00002052,-0.00000354,0.00003691,-0.00012002,-0.001279
 63,0.00028151,0.00060907,0.00036442,0.00256227,0.00006541,-0.00002925,
 0.00003237,0.00178099,0.00037471,-0.00046242,-0.00000655,-0.00001110,0
 .00000527,0.00000020,-0.00000044,-0.00000296,0.00005772,0.00067870,-0.
 00079094,0.00001728,-0.00000167,0.00004765,0.00000609,-0.00000139,0.00
 000354,-0.00000319,-0.00000102,0.00000104,-0.00000246,-0.00000086,0.00
 000599,-0.00000320,0.00000138,0.00000118,0.01099152,0.00779993,0.01342
 004,-0.10490696,-0.07560948,-0.18235180,-0.01598374,-0.00942347,-0.016
 07074,-0.00282961,-0.00357002,-0.00459720,0.11091510,0.08054053,0.1881
 2988||-0.00000272,-0.00000227,0.00000381,-0.00000143,0.00000510,0.0000
 0101,-0.00000176,-0.00000270,0.00000251,0.00000253,-0.00000171,-0.0000
 0169,-0.00000075,0.00000394,-0.00000089,-0.00000007,0.00000045,-0.0000
 0091,0.00000052,0.00000052,-0.00000022,0.00000048,0.00000017,0.0000006
 0,0.00000031,-0.00000078,0.00000019,-0.00000031,0.00000111,0.00000059,
 0.00000064,-0.00000080,-0.00000067,-0.00000055,0.00000060,0.00000093,0
 .00000045,-0.00000151,-0.00000092,-0.00000008,0.00000120,0.00000112,0.
 00000076,-0.00000096,0.00000032,0.00000103,-0.00000029,0.00000030,0.00
 000068,-0.00000033,-0.00000113,-0.00000002,0.00000084,-0.00000055,0.00
 000073,-0.00000006,0.00000073,-0.00000039,0.,0.00000010,0.00000293,-0.
 00000245,-0.00000542,-0.00000111,0.00000031,0.,-0.00000051,-0.00000006
 ,0.00000027,-0.00000024,-0.00000007,-0.00000024,0.00000095,-0.00000004
 ,0.00000079,-0.00000029,0.00000039,0.00000015,-0.00000061,0.00000064,-
 0.00000064,-0.00000101,-0.00000025,-0.00000068,-0.00000021,-0.00000071
 ,0.00000094,0.00000088,0.00000033,-0.00000002,-0.00000004,-0.00000017,
 0.00000012,-0.00000021,-0.00000032,-0.00000031,-0.00000056,-0.00000012
 ,-0.00000022|||@


 THE PROBLEM WITH THE LADDER OF SUCCESS IS YOU CAN'T
 CLIMB IT WHILE YOU'RE TWIDDLING YOUR THUMBS.
 Job cpu time:       0 days  0 hours 42 minutes 36.0 seconds.
 File lengths (MBytes):  RWF=    942 Int=      0 D2E=      0 Chk=     13 Scr=      1
 Normal termination of Gaussian 09 at Sat Aug 26 07:21:03 2023.
