 Entering Gaussian System, Link 0=C:\G09W\g09.exe
 Input=D:\machine learning\molecule_14.gjf
 Output=D:\machine learning\molecule_14.log
 Initial command:
 C:/G09W\l1.exe ".\Gau-4724.inp" "D:\machine learning\molecule_14.log" /scrdir=".\"
 Entering Link 1 = C:/G09W\l1.exe PID=      2820.
  
 Copyright (c) 1988,1990,1992,1993,1995,1998,2003,2009,2013,
            Gaussian, Inc.  All Rights Reserved.
  
 This is part of the Gaussian(R) 09 program.  It is based on
 the Gaussian(R) 03 system (copyright 2003, Gaussian, Inc.),
 the Gaussian(R) 98 system (copyright 1998, Gaussian, Inc.),
 the Gaussian(R) 94 system (copyright 1995, Gaussian, Inc.),
 the Gaussian 92(TM) system (copyright 1992, Gaussian, Inc.),
 the Gaussian 90(TM) system (copyright 1990, Gaussian, Inc.),
 the Gaussian 88(TM) system (copyright 1988, Gaussian, Inc.),
 the Gaussian 86(TM) system (copyright 1986, Carnegie Mellon
 University), and the Gaussian 82(TM) system (copyright 1983,
 Carnegie Mellon University). Gaussian is a federally registered
 trademark of Gaussian, Inc.
  
 This software contains proprietary and confidential information,
 including trade secrets, belonging to Gaussian, Inc.
  
 This software is provided under written license and may be
 used, copied, transmitted, or stored only in accord with that
 written license.
  
 The following legend is applicable only to US Government
 contracts under FAR:
  
                    RESTRICTED RIGHTS LEGEND
  
 Use, reproduction and disclosure by the US Government is
 subject to restrictions as set forth in subparagraphs (a)
 and (c) of the Commercial Computer Software - Restricted
 Rights clause in FAR 52.227-19.
  
 Gaussian, Inc.
 340 Quinnipiac St., Bldg. 40, Wallingford CT 06492
  
  
 ---------------------------------------------------------------
 Warning -- This program may not be used in any manner that
 competes with the business of Gaussian, Inc. or will provide
 assistance to any competitor of Gaussian, Inc.  The licensee
 of this program is prohibited from giving any competitor of
 Gaussian, Inc. access to this program.  By using this program,
 the user acknowledges that Gaussian, Inc. is engaged in the
 business of creating and licensing software in the field of
 computational chemistry and represents and warrants to the
 licensee that it is not a competitor of Gaussian, Inc. and that
 it will not use this program in any manner prohibited above.
 ---------------------------------------------------------------
  

 Cite this work as:
 Gaussian 09, Revision D.01,
 M. J. Frisch, G. W. Trucks, H. B. Schlegel, G. E. Scuseria, 
 M. A. Robb, J. R. Cheeseman, G. Scalmani, V. Barone, B. Mennucci, 
 G. A. Petersson, H. Nakatsuji, M. Caricato, X. Li, H. P. Hratchian, 
 A. F. Izmaylov, J. Bloino, G. Zheng, J. L. Sonnenberg, M. Hada, 
 M. Ehara, K. Toyota, R. Fukuda, J. Hasegawa, M. Ishida, T. Nakajima, 
 Y. Honda, O. Kitao, H. Nakai, T. Vreven, J. A. Montgomery, Jr., 
 J. E. Peralta, F. Ogliaro, M. Bearpark, J. J. Heyd, E. Brothers, 
 K. N. Kudin, V. N. Staroverov, T. Keith, R. Kobayashi, J. Normand, 
 K. Raghavachari, A. Rendell, J. C. Burant, S. S. Iyengar, J. Tomasi, 
 M. Cossi, N. Rega, J. M. Millam, M. Klene, J. E. Knox, J. B. Cross, 
 V. Bakken, C. Adamo, J. Jaramillo, R. Gomperts, R. E. Stratmann, 
 O. Yazyev, A. J. Austin, R. Cammi, C. Pomelli, J. W. Ochterski, 
 R. L. Martin, K. Morokuma, V. G. Zakrzewski, G. A. Voth, 
 P. Salvador, J. J. Dannenberg, S. Dapprich, A. D. Daniels, 
 O. Farkas, J. B. Foresman, J. V. Ortiz, J. Cioslowski, 
 and D. J. Fox, Gaussian, Inc., Wallingford CT, 2013.
 
 ******************************************
 Gaussian 09:  EM64W-G09RevD.01 13-Apr-2013
                24-Aug-2023 
 ******************************************
 %nprocshared=6
 Will use up to    6 processors via shared memory.
 %mem=8GB
 %chk=D:\machine learning\molecule_14.chk
 --------------------------------------------------
 # opt freq b3lyp/6-31+g(d) empiricaldispersion=gd3
 --------------------------------------------------
 1/14=-1,18=20,19=15,26=3,38=1/1,3;
 2/9=110,12=2,17=6,18=5,40=1/2;
 3/5=1,6=6,7=11,11=2,16=1,25=1,30=1,71=1,74=-5,124=31/1,2,3;
 4//1;
 5/5=2,38=5/2;
 6/7=2,8=2,9=2,10=2,28=1/1;
 7//1,2,3,16;
 1/14=-1,18=20,19=15,26=3/3(2);
 2/9=110/2;
 99//99;
 2/9=110/2;
 3/5=1,6=6,7=11,11=2,16=1,25=1,30=1,71=1,74=-5,124=31/1,2,3;
 4/5=5,16=3,69=1/1;
 5/5=2,38=5/2;
 7//1,2,3,16;
 1/14=-1,18=20,19=15,26=3/3(-5);
 2/9=110/2;
 6/7=2,8=2,9=2,10=2,19=2,28=1/1;
 99/9=1/99;
 -------------------
 Title Card Required
 -------------------
 Symbolic Z-matrix:
 Charge =  0 Multiplicity = 1
 C                    -5.30642  -0.95004   1.13808 
 C                    -3.91026  -0.97885   1.0873 
 C                    -3.24353  -0.49817  -0.05029 
 C                    -3.96927  -0.06568  -1.15526 
 C                    -5.36722  -0.03465  -1.10341 
 C                    -6.03529  -0.47585   0.04315 
 H                    -5.82877  -1.29526   2.03458 
 H                    -3.33932  -1.35081   1.9443 
 H                    -3.4475    0.28095  -2.05001 
 H                    -5.9376    0.33606  -1.95976 
 C                    -1.70232  -0.51098  -0.00174 
 C                    -0.50316  -0.51544   0.00061 
 C                     1.03814  -0.52118   0.00361 
 C                     1.73324  -0.49899   1.21632 
 C                     1.73531  -0.50038  -1.20582 
 C                     3.13124  -0.50192   1.21672 
 H                     1.18549  -0.5016    2.1622 
 C                     3.13359  -0.50384  -1.20525 
 H                     1.18944  -0.5035   -2.1542 
 C                     3.82894  -0.50274   0.00634 
 H                     3.67742  -0.50148   2.16417 
 H                     3.6812   -0.50459  -2.15173 
 C                     5.38916  -0.53949  -0.02644 
 O                     5.54698  -0.56129  -1.27471 
 C                     6.61687  -0.47966   0.90133 
 H                     6.60244   0.43683   1.45335 
 H                     6.591    -1.30577   1.58086 
 H                     7.51018  -0.52847   0.31438 
 C                    -7.464    -0.44384   0.0949 
 H                    -7.77757   0.16591   0.91635 
 H                    -7.83854  -1.43766   0.22503 
 H                    -7.84491  -0.03581  -0.81797 
 

 GradGradGradGradGradGradGradGradGradGradGradGradGradGradGradGradGradGrad
 Berny optimization.
 Initialization pass.
                           ----------------------------
                           !    Initial Parameters    !
                           ! (Angstroms and Degrees)  !
 --------------------------                            --------------------------
 ! Name  Definition              Value          Derivative Info.                !
 --------------------------------------------------------------------------------
 ! R1    R(1,2)                  1.3974         estimate D2E/DX2                !
 ! R2    R(1,6)                  1.3982         estimate D2E/DX2                !
 ! R3    R(1,7)                  1.0935         estimate D2E/DX2                !
 ! R4    R(2,3)                  1.4035         estimate D2E/DX2                !
 ! R5    R(2,8)                  1.0949         estimate D2E/DX2                !
 ! R6    R(3,4)                  1.3909         estimate D2E/DX2                !
 ! R7    R(3,11)                 1.542          estimate D2E/DX2                !
 ! R8    R(4,5)                  1.3993         estimate D2E/DX2                !
 ! R9    R(4,9)                  1.0922         estimate D2E/DX2                !
 ! R10   R(5,6)                  1.3984         estimate D2E/DX2                !
 ! R11   R(5,10)                 1.0937         estimate D2E/DX2                !
 ! R12   R(6,29)                 1.43           estimate D2E/DX2                !
 ! R13   R(11,12)                1.1992         estimate D2E/DX2                !
 ! R14   R(12,13)                1.5413         estimate D2E/DX2                !
 ! R15   R(13,14)                1.398          estimate D2E/DX2                !
 ! R16   R(13,15)                1.3961         estimate D2E/DX2                !
 ! R17   R(14,16)                1.398          estimate D2E/DX2                !
 ! R18   R(14,17)                1.093          estimate D2E/DX2                !
 ! R19   R(15,18)                1.3983         estimate D2E/DX2                !
 ! R20   R(15,19)                1.0943         estimate D2E/DX2                !
 ! R21   R(16,20)                1.3971         estimate D2E/DX2                !
 ! R22   R(16,21)                1.0936         estimate D2E/DX2                !
 ! R23   R(18,20)                1.3969         estimate D2E/DX2                !
 ! R24   R(18,22)                1.0935         estimate D2E/DX2                !
 ! R25   R(20,23)                1.561          estimate D2E/DX2                !
 ! R26   R(23,24)                1.2584         estimate D2E/DX2                !
 ! R27   R(23,25)                1.54           estimate D2E/DX2                !
 ! R28   R(25,26)                1.07           estimate D2E/DX2                !
 ! R29   R(25,27)                1.07           estimate D2E/DX2                !
 ! R30   R(25,28)                1.07           estimate D2E/DX2                !
 ! R31   R(29,30)                1.07           estimate D2E/DX2                !
 ! R32   R(29,31)                1.07           estimate D2E/DX2                !
 ! R33   R(29,32)                1.07           estimate D2E/DX2                !
 ! A1    A(2,1,6)              119.958          estimate D2E/DX2                !
 ! A2    A(2,1,7)              120.0372         estimate D2E/DX2                !
 ! A3    A(6,1,7)              120.0045         estimate D2E/DX2                !
 ! A4    A(1,2,3)              119.8047         estimate D2E/DX2                !
 ! A5    A(1,2,8)              119.971          estimate D2E/DX2                !
 ! A6    A(3,2,8)              120.204          estimate D2E/DX2                !
 ! A7    A(2,3,4)              120.1683         estimate D2E/DX2                !
 ! A8    A(2,3,11)             116.5157         estimate D2E/DX2                !
 ! A9    A(4,3,11)             123.304          estimate D2E/DX2                !
 ! A10   A(3,4,5)              119.9162         estimate D2E/DX2                !
 ! A11   A(3,4,9)              120.0131         estimate D2E/DX2                !
 ! A12   A(5,4,9)              120.0388         estimate D2E/DX2                !
 ! A13   A(4,5,6)              120.0444         estimate D2E/DX2                !
 ! A14   A(4,5,10)             119.9699         estimate D2E/DX2                !
 ! A15   A(6,5,10)             119.9857         estimate D2E/DX2                !
 ! A16   A(1,6,5)              120.0015         estimate D2E/DX2                !
 ! A17   A(1,6,29)             120.0048         estimate D2E/DX2                !
 ! A18   A(5,6,29)             119.9936         estimate D2E/DX2                !
 ! A19   A(12,13,14)           119.9238         estimate D2E/DX2                !
 ! A20   A(12,13,15)           119.8422         estimate D2E/DX2                !
 ! A21   A(14,13,15)           120.1945         estimate D2E/DX2                !
 ! A22   A(13,14,16)           119.8308         estimate D2E/DX2                !
 ! A23   A(13,14,17)           120.098          estimate D2E/DX2                !
 ! A24   A(16,14,17)           120.0575         estimate D2E/DX2                !
 ! A25   A(13,15,18)           119.9314         estimate D2E/DX2                !
 ! A26   A(13,15,19)           120.108          estimate D2E/DX2                !
 ! A27   A(18,15,19)           119.947          estimate D2E/DX2                !
 ! A28   A(14,16,20)           119.944          estimate D2E/DX2                !
 ! A29   A(14,16,21)           119.9792         estimate D2E/DX2                !
 ! A30   A(20,16,21)           120.0767         estimate D2E/DX2                !
 ! A31   A(15,18,20)           119.8756         estimate D2E/DX2                !
 ! A32   A(15,18,22)           120.0284         estimate D2E/DX2                !
 ! A33   A(20,18,22)           120.0958         estimate D2E/DX2                !
 ! A34   A(16,20,18)           120.1873         estimate D2E/DX2                !
 ! A35   A(16,20,23)           121.1553         estimate D2E/DX2                !
 ! A36   A(18,20,23)           118.6389         estimate D2E/DX2                !
 ! A37   A(20,23,24)            98.4294         estimate D2E/DX2                !
 ! A38   A(20,23,25)           141.5595         estimate D2E/DX2                !
 ! A39   A(24,23,25)           119.8865         estimate D2E/DX2                !
 ! A40   A(23,25,26)           109.4712         estimate D2E/DX2                !
 ! A41   A(23,25,27)           109.4712         estimate D2E/DX2                !
 ! A42   A(23,25,28)           109.4712         estimate D2E/DX2                !
 ! A43   A(26,25,27)           109.4713         estimate D2E/DX2                !
 ! A44   A(26,25,28)           109.4712         estimate D2E/DX2                !
 ! A45   A(27,25,28)           109.4712         estimate D2E/DX2                !
 ! A46   A(6,29,30)            109.4712         estimate D2E/DX2                !
 ! A47   A(6,29,31)            109.4712         estimate D2E/DX2                !
 ! A48   A(6,29,32)            109.4712         estimate D2E/DX2                !
 ! A49   A(30,29,31)           109.4712         estimate D2E/DX2                !
 ! A50   A(30,29,32)           109.4712         estimate D2E/DX2                !
 ! A51   A(31,29,32)           109.4712         estimate D2E/DX2                !
 ! A52   L(3,11,12,8,-1)       181.6583         estimate D2E/DX2                !
 ! A53   L(11,12,13,19,-1)     179.9996         estimate D2E/DX2                !
 ! A54   L(3,11,12,8,-2)       179.4663         estimate D2E/DX2                !
 ! A55   L(11,12,13,19,-2)     179.9998         estimate D2E/DX2                !
 ! D1    D(6,1,2,3)              1.6809         estimate D2E/DX2                !
 ! D2    D(6,1,2,8)           -179.9557         estimate D2E/DX2                !
 ! D3    D(7,1,2,3)           -178.1363         estimate D2E/DX2                !
 ! D4    D(7,1,2,8)              0.227          estimate D2E/DX2                !
 ! D5    D(2,1,6,5)              0.1967         estimate D2E/DX2                !
 ! D6    D(2,1,6,29)          -179.8961         estimate D2E/DX2                !
 ! D7    D(7,1,6,5)           -179.986          estimate D2E/DX2                !
 ! D8    D(7,1,6,29)            -0.0788         estimate D2E/DX2                !
 ! D9    D(1,2,3,4)             -3.6992         estimate D2E/DX2                !
 ! D10   D(1,2,3,11)           177.5162         estimate D2E/DX2                !
 ! D11   D(8,2,3,4)            177.9414         estimate D2E/DX2                !
 ! D12   D(8,2,3,11)            -0.8433         estimate D2E/DX2                !
 ! D13   D(2,3,4,5)              3.816          estimate D2E/DX2                !
 ! D14   D(2,3,4,9)           -178.2399         estimate D2E/DX2                !
 ! D15   D(11,3,4,5)          -177.4853         estimate D2E/DX2                !
 ! D16   D(11,3,4,9)             0.4589         estimate D2E/DX2                !
 ! D17   D(2,3,13,14)          -24.1431         estimate D2E/DX2                !
 ! D18   D(2,3,13,15)          158.2445         estimate D2E/DX2                !
 ! D19   D(4,3,13,14)          157.4038         estimate D2E/DX2                !
 ! D20   D(4,3,13,15)          -20.2086         estimate D2E/DX2                !
 ! D21   D(3,4,5,6)             -1.9249         estimate D2E/DX2                !
 ! D22   D(3,4,5,10)           178.0            estimate D2E/DX2                !
 ! D23   D(9,4,5,6)           -179.8685         estimate D2E/DX2                !
 ! D24   D(9,4,5,10)             0.0564         estimate D2E/DX2                !
 ! D25   D(4,5,6,1)             -0.0841         estimate D2E/DX2                !
 ! D26   D(4,5,6,29)          -179.9913         estimate D2E/DX2                !
 ! D27   D(10,5,6,1)           179.991          estimate D2E/DX2                !
 ! D28   D(10,5,6,29)            0.0838         estimate D2E/DX2                !
 ! D29   D(1,6,29,30)           58.89           estimate D2E/DX2                !
 ! D30   D(1,6,29,31)          -61.11           estimate D2E/DX2                !
 ! D31   D(1,6,29,32)          178.89           estimate D2E/DX2                !
 ! D32   D(5,6,29,30)         -121.2027         estimate D2E/DX2                !
 ! D33   D(5,6,29,31)          118.7973         estimate D2E/DX2                !
 ! D34   D(5,6,29,32)           -1.2027         estimate D2E/DX2                !
 ! D35   D(12,13,14,16)       -179.8905         estimate D2E/DX2                !
 ! D36   D(12,13,14,17)          1.4544         estimate D2E/DX2                !
 ! D37   D(15,13,14,16)         -2.1768         estimate D2E/DX2                !
 ! D38   D(15,13,14,17)        179.1681         estimate D2E/DX2                !
 ! D39   D(12,13,15,18)        179.9195         estimate D2E/DX2                !
 ! D40   D(12,13,15,19)         -1.4191         estimate D2E/DX2                !
 ! D41   D(14,13,15,18)          2.2039         estimate D2E/DX2                !
 ! D42   D(14,13,15,19)       -179.1347         estimate D2E/DX2                !
 ! D43   D(13,14,16,20)          1.1475         estimate D2E/DX2                !
 ! D44   D(13,14,16,21)       -178.9793         estimate D2E/DX2                !
 ! D45   D(17,14,16,20)        179.8032         estimate D2E/DX2                !
 ! D46   D(17,14,16,21)         -0.3236         estimate D2E/DX2                !
 ! D47   D(13,15,18,20)         -1.1998         estimate D2E/DX2                !
 ! D48   D(13,15,18,22)        178.9699         estimate D2E/DX2                !
 ! D49   D(19,15,18,20)       -179.8633         estimate D2E/DX2                !
 ! D50   D(19,15,18,22)          0.3064         estimate D2E/DX2                !
 ! D51   D(14,16,20,18)         -0.1518         estimate D2E/DX2                !
 ! D52   D(14,16,20,23)       -178.5631         estimate D2E/DX2                !
 ! D53   D(21,16,20,18)        179.9751         estimate D2E/DX2                !
 ! D54   D(21,16,20,23)          1.5638         estimate D2E/DX2                !
 ! D55   D(15,18,20,16)          0.1766         estimate D2E/DX2                !
 ! D56   D(15,18,20,23)        178.6275         estimate D2E/DX2                !
 ! D57   D(22,18,20,16)       -179.9932         estimate D2E/DX2                !
 ! D58   D(22,18,20,23)         -1.5423         estimate D2E/DX2                !
 ! D59   D(16,20,23,24)        178.4196         estimate D2E/DX2                !
 ! D60   D(16,20,23,25)         -6.0655         estimate D2E/DX2                !
 ! D61   D(18,20,23,24)         -0.0157         estimate D2E/DX2                !
 ! D62   D(18,20,23,25)        175.4992         estimate D2E/DX2                !
 ! D63   D(20,23,25,26)        -58.5801         estimate D2E/DX2                !
 ! D64   D(20,23,25,27)         61.4199         estimate D2E/DX2                !
 ! D65   D(20,23,25,28)       -178.5801         estimate D2E/DX2                !
 ! D66   D(24,23,25,26)        116.3011         estimate D2E/DX2                !
 ! D67   D(24,23,25,27)       -123.6989         estimate D2E/DX2                !
 ! D68   D(24,23,25,28)         -3.6989         estimate D2E/DX2                !
 --------------------------------------------------------------------------------
 Trust Radius=3.00D-01 FncErr=1.00D-07 GrdErr=1.00D-06
 Number of steps in this run=    166 maximum allowed number of steps=    192.
 GradGradGradGradGradGradGradGradGradGradGradGradGradGradGradGradGradGrad

                          Input orientation:                          
 ---------------------------------------------------------------------
 Center     Atomic      Atomic             Coordinates (Angstroms)
 Number     Number       Type             X           Y           Z
 ---------------------------------------------------------------------
      1          6           0       -5.306420   -0.950037    1.138085
      2          6           0       -3.910257   -0.978854    1.087296
      3          6           0       -3.243530   -0.498173   -0.050288
      4          6           0       -3.969271   -0.065678   -1.155262
      5          6           0       -5.367223   -0.034654   -1.103412
      6          6           0       -6.035290   -0.475849    0.043153
      7          1           0       -5.828773   -1.295255    2.034578
      8          1           0       -3.339319   -1.350808    1.944296
      9          1           0       -3.447499    0.280946   -2.050008
     10          1           0       -5.937596    0.336059   -1.959755
     11          6           0       -1.702325   -0.510980   -0.001736
     12          6           0       -0.503164   -0.515444    0.000607
     13          6           0        1.038137   -0.521178    0.003607
     14          6           0        1.733241   -0.498994    1.216317
     15          6           0        1.735313   -0.500380   -1.205823
     16          6           0        3.131236   -0.501924    1.216721
     17          1           0        1.185494   -0.501600    2.162198
     18          6           0        3.133594   -0.503838   -1.205245
     19          1           0        1.189441   -0.503497   -2.154202
     20          6           0        3.828940   -0.502741    0.006338
     21          1           0        3.677424   -0.501477    2.164168
     22          1           0        3.681197   -0.504590   -2.151735
     23          6           0        5.389157   -0.539492   -0.026437
     24          8           0        5.546983   -0.561293   -1.274711
     25          6           0        6.616868   -0.479660    0.901326
     26          1           0        6.602439    0.436835    1.453348
     27          1           0        6.591001   -1.305772    1.580864
     28          1           0        7.510184   -0.528473    0.314381
     29          6           0       -7.463995   -0.443839    0.094897
     30          1           0       -7.777573    0.165909    0.916346
     31          1           0       -7.838539   -1.437661    0.225032
     32          1           0       -7.844906   -0.035812   -0.817967
 ---------------------------------------------------------------------
                    Distance matrix (angstroms):
                    1          2          3          4          5
     1  C    0.000000
     2  C    1.397384   0.000000
     3  C    2.423205   1.403451   0.000000
     4  C    2.798124   2.422073   1.390941   0.000000
     5  C    2.421968   2.795257   2.415365   1.399257   0.000000
     6  C    1.398207   2.420541   2.793413   2.423402   1.398420
     7  H    1.093494   2.162905   3.415478   3.891618   3.413082
     8  H    2.163349   1.094883   2.171296   3.414038   3.890139
     9  H    3.890352   3.412318   2.155808   1.092229   2.163558
    10  H    3.413069   3.888910   3.405877   2.164002   1.093653
    11  C    3.805452   2.505965   1.542023   2.582240   3.856430
    12  C    4.955199   3.606095   2.740893   3.681334   5.010897
    13  C    6.459440   5.086300   4.282068   5.159902   6.518499
    14  C    7.054530   5.665332   5.135421   6.191187   7.484206
    15  C    7.435193   6.112265   5.111179   5.721346   7.118525
    16  C    8.449913   7.058812   6.499459   7.498920   8.821857
    17  H    6.587476   5.229709   4.950895   6.145499   7.336235
    18  C    8.770639   7.422750   6.480869   7.116542   8.514363
    19  H    7.296215   6.061368   4.906905   5.272748   6.656861
    20  C    9.216058   7.828813   7.072698   7.896355   9.274699
    21  H    9.053370   7.678571   7.266598   8.347484   9.628117
    22  H    9.581158   8.267189   7.236571   7.727564   9.121058
    23  C   10.766616   9.376168   8.632819   9.438162  10.821942
    24  O   11.125154   9.756680   8.875602   9.529900  10.928247
    25  C   11.934911  10.540595   9.906229  10.792000  12.158760
    26  H   11.993486  10.613903  10.003913  10.900386  12.248760
    27  H   11.910971  10.517933  10.001544  10.979233  12.321534
    28  H   12.849962  11.455422  10.759938  11.582396  12.964628
    29  C    2.449410   3.728291   4.223311   3.730818   2.449456
    30  H    2.720496   4.036811   4.683260   4.341469   3.151101
    31  H    2.735520   4.047889   4.698142   4.331141   3.136972
    32  H    3.332545   4.472227   4.687831   3.890399   2.494072
                    6          7          8          9         10
     6  C    0.000000
     7  H    2.163297   0.000000
     8  H    3.412940   2.491710   0.000000
     9  H    3.413316   4.983846   4.316107   0.000000
    10  H    2.163419   4.315986   4.983792   2.492341   0.000000
    11  C    4.333341   4.667894   2.678077   2.805031   4.742240
    12  C    5.532432   5.753890   3.538295   3.675373   5.839617
    13  C    7.073683   7.202672   4.859699   4.998166   7.297294
    14  C    7.856649   7.647721   5.194844   6.173917   8.344249
    15  C    7.870376   8.267250   6.033106   5.308923   7.755100
    16  C    9.241382   9.032166   6.566433   7.386755   9.645513
    17  H    7.525340   7.060178   4.608966   6.310283   8.272277
    18  C    9.253525   9.562783   7.248142   6.681339   9.141181
    19  H    7.551548   8.211460   6.166464   4.703979   7.178949
    20  C    9.864335   9.900164   7.473876   7.601926   9.997716
    21  H    9.941639   9.540161   7.071378   8.314806  10.495562
    22  H    9.961349  10.420647   8.171976   7.172567   9.657366
    23  C   11.424837  11.430700   8.984894   9.102442  11.523872
    24  O   11.657321  11.870043   9.484287   9.067037  11.539934
    25  C   12.681230  12.523715  10.048499  10.515721  12.902161
    26  H   12.748876  12.564752  10.113122  10.644203  12.996611
    27  H   12.746630  12.428063   9.937071  10.792238  13.122398
    28  H   13.548292  13.471258  11.002025  11.239053  13.666085
    29  C    1.430000   2.676047   4.610404   4.610659   2.675768
    30  H    2.051796   2.680162   4.801584   5.249955   3.418541
    31  H    2.051796   2.708117   4.817301   5.235518   3.396022
    32  H    2.051796   3.713220   5.446065   4.577712   2.253841
                   11         12         13         14         15
    11  C    0.000000
    12  C    1.199171   0.000000
    13  C    2.740486   1.541315   0.000000
    14  C    3.645121   2.545531   1.397972   0.000000
    15  C    3.642429   2.542927   1.396141   2.422141   0.000000
    16  C    4.984779   3.832490   2.419314   1.397998   2.795948
    17  H    3.608627   2.743033   2.163703   1.093035   3.412604
    18  C    4.983432   3.831478   2.419207   2.797315   1.398285
    19  H    3.604924   2.740120   2.163180   3.414109   1.094262
    20  C    5.531276   4.332126   2.790865   2.419920   2.419217
    21  H    5.799390   4.707283   3.410902   2.162932   3.889555
    22  H    5.796968   4.705483   3.410504   3.890801   2.163615
    23  C    7.091582   5.892432   4.351162   3.861580   3.839669
    24  O    7.360398   6.183269   4.686726   4.555626   3.812779
    25  C    8.368122   7.176868   5.650652   4.893813   5.316962
    26  H    8.484381   7.314840   5.829322   4.963974   5.624809
    27  H    8.480305   7.310883   5.825601   4.937775   5.656146
    28  H    9.217947   8.019499   6.479508   5.847001   5.971678
    29  C    5.762872   6.961838   8.502974   9.265516   9.290982
    30  H    6.181399   7.363413   8.889427   9.538746   9.769470
    31  H    6.209934   7.396525   8.926609   9.668646   9.725455
    32  H    6.214766   7.402789   8.934149   9.802742   9.599315
                   16         17         18         19         20
    16  C    0.000000
    17  H    2.163294   0.000000
    18  C    2.421968   3.890343   0.000000
    19  H    3.890205   4.316402   2.163389   0.000000
    20  C    1.397075   3.411091   1.396940   3.410995   0.000000
    21  H    1.093608   2.491931   3.413020   4.983813   2.163144
    22  H    3.413057   4.983830   1.093486   2.491757   2.163125
    23  C    2.577802   4.739446   2.545275   4.708110   1.560994
    24  O    3.470820   5.553242   2.415072   4.445787   2.143872
    25  C    3.499943   5.575850   4.070802   6.228466   2.928153
    26  H    3.603680   5.543142   4.470556   6.572609   3.266334
    27  H    3.570539   5.495831   4.512113   6.615982   3.279173
    28  H    4.471030   6.589147   4.632970   6.785744   3.694200
    29  C   10.654614   8.893297  10.677212   8.941139  11.293436
    30  H   10.933359   9.073824  11.135675   9.501773  11.661318
    31  H   11.054185   9.276960  11.104297   9.382848  11.706919
    32  H   11.172864   9.520843  10.995293   9.144597  11.712223
                   21         22         23         24         25
    21  H    0.000000
    22  H    4.315906   0.000000
    23  C    2.780329   2.726763   0.000000
    24  O    3.914680   2.062413   1.258400   0.000000
    25  C    3.199309   4.235560   1.540000   2.426202   0.000000
    26  H    3.152999   4.734613   2.148263   3.090720   1.070000
    27  H    3.078322   4.800120   2.148263   3.130260   1.070000
    28  H    4.255877   4.554497   2.148263   2.525955   1.070000
    29  C   11.332098  11.369536  12.854081  13.083393  14.103983
    30  H   11.542072  11.881333  13.219274  13.523067  14.408918
    31  H   11.715549  11.799320  13.260538  13.497757  14.502894
    32  H   11.911090  11.612481  13.267276  13.409975  14.570376
                   26         27         28         29         30
    26  H    0.000000
    27  H    1.747303   0.000000
    28  H    1.747303   1.747303   0.000000
    29  C   14.159292  14.159589  14.976027   0.000000
    30  H   14.392585  14.459023  15.315353   1.070000   0.000000
    31  H   14.613840  14.493699  15.375887   1.070000   1.747303
    32  H   14.632431  14.688860  15.404665   1.070000   1.747303
                   31         32
    31  H    0.000000
    32  H    1.747303   0.000000
 Stoichiometry    C17H14O
 Framework group  C1[X(C17H14O)]
 Deg. of freedom    90
 Full point group                 C1      NOp   1
 Largest Abelian subgroup         C1      NOp   1
 Largest concise Abelian subgroup C1      NOp   1
                         Standard orientation:                         
 ---------------------------------------------------------------------
 Center     Atomic      Atomic             Coordinates (Angstroms)
 Number     Number       Type             X           Y           Z
 ---------------------------------------------------------------------
      1          6           0       -5.044531   -1.192001   -0.283974
      2          6           0       -3.648194   -1.148159   -0.315636
      3          6           0       -2.980773    0.048442   -0.011715
      4          6           0       -3.705725    1.207431    0.245008
      5          6           0       -5.103860    1.162880    0.279007
      6          6           0       -5.772759   -0.036580    0.015475
      7          1           0       -5.567534   -2.129891   -0.490276
      8          1           0       -3.077758   -2.052628   -0.550811
      9          1           0       -3.183312    2.143808    0.452963
     10          1           0       -5.673729    2.066510    0.513058
     11          6           0       -1.439630   -0.003663   -0.011946
     12          6           0       -0.240468   -0.008345   -0.012088
     13          6           0        1.300835   -0.014351   -0.012268
     14          6           0        1.993580   -1.210498    0.196693
     15          6           0        2.000227    1.183145   -0.173706
     16          6           0        3.391573   -1.213310    0.198421
     17          1           0        1.444058   -2.144961    0.336443
     18          6           0        3.398508    1.180081   -0.172472
     19          1           0        1.456157    2.120744   -0.323061
     20          6           0        4.091560   -0.018166    0.015477
     21          1           0        3.935969   -2.150395    0.344997
     22          1           0        3.947896    2.114634   -0.315634
     23          6           0        5.651939    0.006433   -0.020747
     24          8           0        5.812186    1.236587   -0.231964
     25          6           0        6.877712   -0.903108    0.183745
     26          1           0        6.859481   -1.309024    1.173594
     27          1           0        6.853050   -1.700545   -0.529268
     28          1           0        7.772277   -0.331711    0.048991
     29          6           0       -7.201649   -0.080834    0.050332
     30          1           0       -7.518610   -0.799346    0.777090
     31          1           0       -7.573443   -0.360345   -0.913277
     32          1           0       -7.582062    0.884076    0.313267
 ---------------------------------------------------------------------
 Rotational constants (GHZ):      2.2618600      0.1089086      0.1043975
 Standard basis: 6-31+G(d) (6D, 7F)
 There are   370 symmetry adapted cartesian basis functions of A   symmetry.
 There are   370 symmetry adapted basis functions of A   symmetry.
   370 basis functions,   632 primitive gaussians,   370 cartesian basis functions
    62 alpha electrons       62 beta electrons
       nuclear repulsion energy      1041.9447732325 Hartrees.
 NAtoms=   32 NActive=   32 NUniq=   32 SFac= 1.00D+00 NAtFMM=   60 NAOKFM=F Big=F
 Integral buffers will be    131072 words long.
 Raffenetti 2 integral format.
 Two-electron integral symmetry is turned on.
 Nuclear repulsion after empirical dispersion term =     1041.9230297407 Hartrees.
 One-electron integrals computed using PRISM.
 NBasis=   370 RedAO= T EigKep=  1.06D-06  NBF=   370
 NBsUse=   366 1.00D-06 EigRej=  5.36D-07 NBFU=   366
 ExpMin= 4.38D-02 ExpMax= 5.48D+03 ExpMxC= 8.25D+02 IAcc=2 IRadAn=         4 AccDes= 0.00D+00
 Harris functional with IExCor=  402 and IRadAn=       4 diagonalized for initial guess.
 HarFok:  IExCor=  402 AccDes= 0.00D+00 IRadAn=         4 IDoV= 1 UseB2=F ITyADJ=14
 ICtDFT=  3500011 ScaDFX=  1.000000  1.000000  1.000000  1.000000
 FoFCou: FMM=F IPFlag=           0 FMFlag=      100000 FMFlg1=           0
         NFxFlg=           0 DoJE=T BraDBF=F KetDBF=T FulRan=T
         wScrn=  0.000000 ICntrl=     500 IOpCl=  0 I1Cent=   200000004 NGrid=           0
         NMat0=    1 NMatS0=      1 NMatT0=    0 NMatD0=    1 NMtDS0=    0 NMtDT0=    0
 Petite list used in FoFCou.
 Requested convergence on RMS density matrix=1.00D-08 within 128 cycles.
 Requested convergence on MAX density matrix=1.00D-06.
 Requested convergence on             energy=1.00D-06.
 No special actions if energy rises.
 SCF Done:  E(RB3LYP) =  -731.408444391     A.U. after   16 cycles
            NFock= 16  Conv=0.73D-08     -V/T= 2.0098

 **********************************************************************

            Population analysis using the SCF density.

 **********************************************************************

 Orbital symmetries:
       Occupied  (A) (A) (A) (A) (A) (A) (A) (A) (A) (A) (A) (A)
                 (A) (A) (A) (A) (A) (A) (A) (A) (A) (A) (A) (A)
                 (A) (A) (A) (A) (A) (A) (A) (A) (A) (A) (A) (A)
                 (A) (A) (A) (A) (A) (A) (A) (A) (A) (A) (A) (A)
                 (A) (A) (A) (A) (A) (A) (A) (A) (A) (A) (A) (A)
                 (A) (A)
       Virtual   (A) (A) (A) (A) (A) (A) (A) (A) (A) (A) (A) (A)
                 (A) (A) (A) (A) (A) (A) (A) (A) (A) (A) (A) (A)
                 (A) (A) (A) (A) (A) (A) (A) (A) (A) (A) (A) (A)
                 (A) (A) (A) (A) (A) (A) (A) (A) (A) (A) (A) (A)
                 (A) (A) (A) (A) (A) (A) (A) (A) (A) (A) (A) (A)
                 (A) (A) (A) (A) (A) (A) (A) (A) (A) (A) (A) (A)
                 (A) (A) (A) (A) (A) (A) (A) (A) (A) (A) (A) (A)
                 (A) (A) (A) (A) (A) (A) (A) (A) (A) (A) (A) (A)
                 (A) (A) (A) (A) (A) (A) (A) (A) (A) (A) (A) (A)
                 (A) (A) (A) (A) (A) (A) (A) (A) (A) (A) (A) (A)
                 (A) (A) (A) (A) (A) (A) (A) (A) (A) (A) (A) (A)
                 (A) (A) (A) (A) (A) (A) (A) (A) (A) (A) (A) (A)
                 (A) (A) (A) (A) (A) (A) (A) (A) (A) (A) (A) (A)
                 (A) (A) (A) (A) (A) (A) (A) (A) (A) (A) (A) (A)
                 (A) (A) (A) (A) (A) (A) (A) (A) (A) (A) (A) (A)
                 (A) (A) (A) (A) (A) (A) (A) (A) (A) (A) (A) (A)
                 (A) (A) (A) (A) (A) (A) (A) (A) (A) (A) (A) (A)
                 (A) (A) (A) (A) (A) (A) (A) (A) (A) (A) (A) (A)
                 (A) (A) (A) (A) (A) (A) (A) (A) (A) (A) (A) (A)
                 (A) (A) (A) (A) (A) (A) (A) (A) (A) (A) (A) (A)
                 (A) (A) (A) (A) (A) (A) (A) (A) (A) (A) (A) (A)
                 (A) (A) (A) (A) (A) (A) (A) (A) (A) (A) (A) (A)
                 (A) (A) (A) (A) (A) (A) (A) (A) (A) (A) (A) (A)
                 (A) (A) (A) (A) (A) (A) (A) (A) (A) (A) (A) (A)
                 (A) (A) (A) (A) (A) (A) (A) (A) (A) (A) (A) (A)
                 (A) (A) (A) (A)
 The electronic state is 1-A.
 Alpha  occ. eigenvalues --  -19.13939 -10.29662 -10.23760 -10.23066 -10.21871
 Alpha  occ. eigenvalues --  -10.21057 -10.20950 -10.20830 -10.20674 -10.20600
 Alpha  occ. eigenvalues --  -10.20581 -10.20447 -10.20095 -10.20086 -10.20073
 Alpha  occ. eigenvalues --  -10.19980 -10.19780 -10.17956  -1.03472  -0.87484
 Alpha  occ. eigenvalues --   -0.87195  -0.80578  -0.78244  -0.76491  -0.75723
 Alpha  occ. eigenvalues --   -0.75564  -0.74105  -0.69691  -0.63546  -0.62204
 Alpha  occ. eigenvalues --   -0.62017  -0.59576  -0.55839  -0.54489  -0.52319
 Alpha  occ. eigenvalues --   -0.48504  -0.48167  -0.47096  -0.46675  -0.46042
 Alpha  occ. eigenvalues --   -0.45718  -0.44549  -0.43752  -0.43357  -0.43283
 Alpha  occ. eigenvalues --   -0.43130  -0.41231  -0.39918  -0.39661  -0.37559
 Alpha  occ. eigenvalues --   -0.36934  -0.36181  -0.36118  -0.35398  -0.35135
 Alpha  occ. eigenvalues --   -0.30987  -0.28516  -0.26689  -0.26353  -0.26235
 Alpha  occ. eigenvalues --   -0.24670  -0.22765
 Alpha virt. eigenvalues --   -0.07193  -0.03064  -0.02252  -0.01986  -0.00268
 Alpha virt. eigenvalues --    0.00364   0.00792   0.01426   0.01949   0.02714
 Alpha virt. eigenvalues --    0.03008   0.04278   0.04345   0.04434   0.04542
 Alpha virt. eigenvalues --    0.05154   0.05326   0.05778   0.05984   0.06410
 Alpha virt. eigenvalues --    0.06775   0.07369   0.07576   0.08147   0.08492
 Alpha virt. eigenvalues --    0.08854   0.09184   0.09316   0.09974   0.10306
 Alpha virt. eigenvalues --    0.10578   0.11156   0.11517   0.12290   0.12375
 Alpha virt. eigenvalues --    0.12965   0.13404   0.14263   0.14479   0.14588
 Alpha virt. eigenvalues --    0.15005   0.15100   0.15238   0.15382   0.15655
 Alpha virt. eigenvalues --    0.16066   0.16825   0.17105   0.17488   0.18362
 Alpha virt. eigenvalues --    0.18571   0.18961   0.19386   0.19655   0.20264
 Alpha virt. eigenvalues --    0.20362   0.20946   0.21090   0.21467   0.21834
 Alpha virt. eigenvalues --    0.21968   0.22478   0.23020   0.23418   0.23777
 Alpha virt. eigenvalues --    0.24143   0.24488   0.24650   0.25000   0.25234
 Alpha virt. eigenvalues --    0.25929   0.26415   0.26702   0.27029   0.27216
 Alpha virt. eigenvalues --    0.27734   0.28112   0.28890   0.29655   0.29914
 Alpha virt. eigenvalues --    0.30403   0.30657   0.30753   0.31324   0.31811
 Alpha virt. eigenvalues --    0.32198   0.32755   0.33458   0.33927   0.34769
 Alpha virt. eigenvalues --    0.35309   0.36179   0.37236   0.37485   0.37987
 Alpha virt. eigenvalues --    0.38620   0.39539   0.40669   0.42088   0.42938
 Alpha virt. eigenvalues --    0.43240   0.44683   0.47605   0.49641   0.51307
 Alpha virt. eigenvalues --    0.56209   0.57577   0.59777   0.60588   0.64233
 Alpha virt. eigenvalues --    0.64915   0.65721   0.66501   0.66774   0.67656
 Alpha virt. eigenvalues --    0.68088   0.68622   0.69048   0.70647   0.71268
 Alpha virt. eigenvalues --    0.71504   0.71648   0.71973   0.72761   0.72957
 Alpha virt. eigenvalues --    0.73498   0.74288   0.74955   0.75347   0.75522
 Alpha virt. eigenvalues --    0.75980   0.76713   0.77933   0.78536   0.78643
 Alpha virt. eigenvalues --    0.79097   0.79249   0.80365   0.80843   0.82946
 Alpha virt. eigenvalues --    0.84092   0.84576   0.84976   0.85968   0.86468
 Alpha virt. eigenvalues --    0.88442   0.90984   0.91912   0.93278   0.94570
 Alpha virt. eigenvalues --    0.94950   0.95119   0.95827   0.96364   0.96567
 Alpha virt. eigenvalues --    0.97361   0.97639   0.99275   1.02050   1.05123
 Alpha virt. eigenvalues --    1.05573   1.06156   1.08154   1.09677   1.11826
 Alpha virt. eigenvalues --    1.13179   1.14002   1.14625   1.16413   1.16686
 Alpha virt. eigenvalues --    1.17335   1.19426   1.20628   1.21738   1.21815
 Alpha virt. eigenvalues --    1.22594   1.23377   1.24517   1.25526   1.26626
 Alpha virt. eigenvalues --    1.27308   1.28353   1.28889   1.29992   1.31738
 Alpha virt. eigenvalues --    1.33567   1.34247   1.36951   1.38125   1.38234
 Alpha virt. eigenvalues --    1.40151   1.41990   1.43866   1.44648   1.44889
 Alpha virt. eigenvalues --    1.45676   1.46416   1.47350   1.47924   1.49686
 Alpha virt. eigenvalues --    1.49857   1.50001   1.55682   1.56273   1.56741
 Alpha virt. eigenvalues --    1.57525   1.59241   1.65997   1.71823   1.74274
 Alpha virt. eigenvalues --    1.74662   1.77096   1.79357   1.80716   1.81201
 Alpha virt. eigenvalues --    1.83399   1.85646   1.87145   1.88480   1.90293
 Alpha virt. eigenvalues --    1.90893   1.92517   1.93183   1.93816   1.94138
 Alpha virt. eigenvalues --    1.95579   1.98072   1.98269   1.98954   2.03011
 Alpha virt. eigenvalues --    2.07710   2.08095   2.10217   2.11395   2.12554
 Alpha virt. eigenvalues --    2.13529   2.14209   2.14474   2.14797   2.17414
 Alpha virt. eigenvalues --    2.19001   2.19633   2.20280   2.22519   2.22959
 Alpha virt. eigenvalues --    2.24957   2.28504   2.29322   2.29634   2.29884
 Alpha virt. eigenvalues --    2.30869   2.34112   2.39102   2.40916   2.41799
 Alpha virt. eigenvalues --    2.42114   2.45119   2.46934   2.47969   2.51083
 Alpha virt. eigenvalues --    2.52897   2.56119   2.62034   2.62095   2.63756
 Alpha virt. eigenvalues --    2.64151   2.64670   2.64961   2.70080   2.72783
 Alpha virt. eigenvalues --    2.75382   2.76632   2.78749   2.81612   2.84947
 Alpha virt. eigenvalues --    2.88680   2.90628   2.94846   2.97599   2.99906
 Alpha virt. eigenvalues --    3.07441   3.12171   3.18856   3.31217   3.40200
 Alpha virt. eigenvalues --    3.55888   4.17386   4.19011   4.21558   4.22994
 Alpha virt. eigenvalues --    4.24243   4.25145   4.27200   4.30615   4.32461
 Alpha virt. eigenvalues --    4.38233   4.40077   4.42313   4.43617   4.52481
 Alpha virt. eigenvalues --    4.59036   4.65735   4.76130   4.89376
          Condensed to atoms (all electrons):
               1          2          3          4          5          6
     1  C   10.649764  -8.008383   0.653158   5.621087  -3.373813   0.696148
     2  C   -8.008383  24.388521  -1.151207 -14.066978   4.831391  -0.585315
     3  C    0.653158  -1.151207  12.343844  -5.088646   1.627740  -0.291375
     4  C    5.621087 -14.066978  -5.088646  24.984112  -7.258933   1.170874
     5  C   -3.373813   4.831391   1.627740  -7.258933  10.958203  -0.540076
     6  C    0.696148  -0.585315  -0.291375   1.170874  -0.540076   7.560277
     7  H    0.190016  -0.043470   0.004833  -0.033312   0.097156   0.093655
     8  H   -0.097868   0.401446  -0.055136  -0.007424  -0.000827   0.014836
     9  H   -0.013007   0.034112   0.010476   0.309730  -0.079389  -0.005547
    10  H    0.022153  -0.001087   0.030474  -0.053616   0.283050   0.042992
    11  C   -0.228614   0.582153  -2.302300   1.187144  -0.269527  -0.071481
    12  C    0.127468  -0.450207   0.403017  -0.149754  -0.022014  -0.106293
    13  C    0.044696  -0.238462   0.031701   0.184016  -0.026626   0.024817
    14  C    0.017526   0.207259  -0.080936  -0.181762  -0.006507  -0.004256
    15  C   -0.014494  -0.161529  -0.071356   0.211025   0.018917   0.005761
    16  C    0.029780  -0.090397  -0.009326   0.095161  -0.017430  -0.000792
    17  H   -0.000394   0.001993   0.000958  -0.000532   0.000061   0.000048
    18  C   -0.017703   0.068269   0.127613  -0.119476   0.016144   0.001077
    19  H    0.000007  -0.000166   0.001572   0.001301  -0.000004   0.000037
    20  C   -0.002218   0.017818   0.042349  -0.020306   0.003629   0.002566
    21  H    0.000002   0.000027  -0.000127  -0.000011  -0.000001   0.000000
    22  H   -0.000001  -0.000008  -0.000144   0.000023   0.000002   0.000000
    23  C   -0.000400   0.002678   0.019129  -0.004769   0.000156   0.000267
    24  O    0.000000   0.000005   0.000096  -0.000010   0.000000   0.000000
    25  C   -0.000001   0.000044   0.000062  -0.000068  -0.000004   0.000001
    26  H    0.000000   0.000000   0.000000   0.000000   0.000000   0.000000
    27  H    0.000000   0.000000   0.000000   0.000000   0.000000   0.000000
    28  H    0.000000   0.000000   0.000000   0.000000   0.000000   0.000000
    29  C   -0.514003   0.662338  -0.527622  -0.514029   0.319939  -1.716761
    30  H   -0.071231   0.042218  -0.001970  -0.032432   0.058460  -0.104567
    31  H   -0.090102   0.009606   0.000773  -0.018639   0.084068  -0.078094
    32  H    0.075324  -0.030341  -0.013267   0.050390  -0.118733  -0.146796
               7          8          9         10         11         12
     1  C    0.190016  -0.097868  -0.013007   0.022153  -0.228614   0.127468
     2  C   -0.043470   0.401446   0.034112  -0.001087   0.582153  -0.450207
     3  C    0.004833  -0.055136   0.010476   0.030474  -2.302300   0.403017
     4  C   -0.033312  -0.007424   0.309730  -0.053616   1.187144  -0.149754
     5  C    0.097156  -0.000827  -0.079389   0.283050  -0.269527  -0.022014
     6  C    0.093655   0.014836  -0.005547   0.042992  -0.071481  -0.106293
     7  H    0.541583  -0.003991   0.000018  -0.000151  -0.003836   0.000768
     8  H   -0.003991   0.522740  -0.000149   0.000016   0.027864  -0.000277
     9  H    0.000018  -0.000149   0.524787  -0.003932   0.025738  -0.002001
    10  H   -0.000151   0.000016  -0.003932   0.540065  -0.004634   0.000715
    11  C   -0.003836   0.027864   0.025738  -0.004634   7.228288   0.313081
    12  C    0.000768  -0.000277  -0.002001   0.000715   0.313081   6.402763
    13  C   -0.000202   0.000194   0.000317  -0.000087   0.018255  -0.363435
    14  C    0.000063   0.000640  -0.000055  -0.000012   0.035178   0.184337
    15  C   -0.000026   0.000229   0.001247   0.000025  -0.141206  -0.244084
    16  C    0.000001  -0.000349  -0.000020  -0.000001  -0.010002  -0.203390
    17  H    0.000000   0.000001   0.000000   0.000000   0.001159   0.027632
    18  C    0.000000   0.000012   0.000370   0.000001  -0.171793   0.308473
    19  H    0.000000   0.000000   0.000000   0.000000  -0.008913   0.030397
    20  C    0.000000   0.000006   0.000009   0.000000  -0.123566  -0.278018
    21  H    0.000000   0.000000   0.000000   0.000000   0.000859  -0.006535
    22  H    0.000000   0.000000   0.000000   0.000000   0.001352  -0.004206
    23  C    0.000000   0.000000   0.000001   0.000000  -0.071265   0.173466
    24  O    0.000000   0.000000   0.000000   0.000000  -0.000420   0.001302
    25  C    0.000000   0.000000   0.000000   0.000000  -0.000263   0.000477
    26  H    0.000000   0.000000   0.000000   0.000000   0.000004  -0.000043
    27  H    0.000000   0.000000   0.000000   0.000000  -0.000004   0.000036
    28  H    0.000000   0.000000   0.000000   0.000000   0.000000  -0.000027
    29  C   -0.024696   0.001595   0.003085  -0.040947   0.086389  -0.054836
    30  H    0.001117  -0.000001   0.000004   0.000144   0.000734  -0.000083
    31  H    0.001044  -0.000004   0.000003   0.000152   0.000423  -0.000039
    32  H    0.000095   0.000003  -0.000011   0.006115   0.000845   0.000022
              13         14         15         16         17         18
     1  C    0.044696   0.017526  -0.014494   0.029780  -0.000394  -0.017703
     2  C   -0.238462   0.207259  -0.161529  -0.090397   0.001993   0.068269
     3  C    0.031701  -0.080936  -0.071356  -0.009326   0.000958   0.127613
     4  C    0.184016  -0.181762   0.211025   0.095161  -0.000532  -0.119476
     5  C   -0.026626  -0.006507   0.018917  -0.017430   0.000061   0.016144
     6  C    0.024817  -0.004256   0.005761  -0.000792   0.000048   0.001077
     7  H   -0.000202   0.000063  -0.000026   0.000001   0.000000   0.000000
     8  H    0.000194   0.000640   0.000229  -0.000349   0.000001   0.000012
     9  H    0.000317  -0.000055   0.001247  -0.000020   0.000000   0.000370
    10  H   -0.000087  -0.000012   0.000025  -0.000001   0.000000   0.000001
    11  C    0.018255   0.035178  -0.141206  -0.010002   0.001159  -0.171793
    12  C   -0.363435   0.184337  -0.244084  -0.203390   0.027632   0.308473
    13  C    7.545540  -0.620723  -0.037119   0.906685  -0.032884  -0.513881
    14  C   -0.620723  10.760665  -1.175368  -1.112494   0.360091  -1.673008
    15  C   -0.037119  -1.175368   9.789670  -1.587392   0.012988  -0.622799
    16  C    0.906685  -1.112494  -1.587392  11.594402  -0.090410  -1.785614
    17  H   -0.032884   0.360091   0.012988  -0.090410   0.520779  -0.004403
    18  C   -0.513881  -1.673008  -0.622799  -1.785614  -0.004403   9.922243
    19  H   -0.050678   0.022621   0.396354  -0.018016  -0.000145  -0.109926
    20  C    0.148587   0.180284  -0.806913  -1.047877   0.001888  -0.206660
    21  H    0.020914  -0.058171   0.013154   0.237196  -0.003891   0.026160
    22  H    0.046062  -0.011035  -0.097277   0.018412   0.000013   0.405404
    23  C   -1.058741  -0.035859   0.376355   0.079937   0.008912  -0.026705
    24  O   -0.012551   0.007145   0.168976  -0.067604   0.000066  -0.025922
    25  C    0.020854  -0.241146  -0.009078  -0.104807   0.000271   0.210938
    26  H    0.001507  -0.008091   0.000187  -0.027555   0.000000   0.015042
    27  H    0.000342   0.009740  -0.000302   0.013066   0.000000  -0.007250
    28  H    0.000393  -0.001611  -0.001257  -0.005278   0.000000  -0.004849
    29  C    0.011538  -0.001035   0.000765  -0.000204   0.000000   0.000183
    30  H   -0.000001   0.000001   0.000000   0.000000   0.000000   0.000000
    31  H    0.000003  -0.000001   0.000001   0.000000   0.000000   0.000000
    32  H    0.000006   0.000000   0.000000   0.000000   0.000000   0.000000
              19         20         21         22         23         24
     1  C    0.000007  -0.002218   0.000002  -0.000001  -0.000400   0.000000
     2  C   -0.000166   0.017818   0.000027  -0.000008   0.002678   0.000005
     3  C    0.001572   0.042349  -0.000127  -0.000144   0.019129   0.000096
     4  C    0.001301  -0.020306  -0.000011   0.000023  -0.004769  -0.000010
     5  C   -0.000004   0.003629  -0.000001   0.000002   0.000156   0.000000
     6  C    0.000037   0.002566   0.000000   0.000000   0.000267   0.000000
     7  H    0.000000   0.000000   0.000000   0.000000   0.000000   0.000000
     8  H    0.000000   0.000006   0.000000   0.000000   0.000000   0.000000
     9  H    0.000000   0.000009   0.000000   0.000000   0.000001   0.000000
    10  H    0.000000   0.000000   0.000000   0.000000   0.000000   0.000000
    11  C   -0.008913  -0.123566   0.000859   0.001352  -0.071265  -0.000420
    12  C    0.030397  -0.278018  -0.006535  -0.004206   0.173466   0.001302
    13  C   -0.050678   0.148587   0.020914   0.046062  -1.058741  -0.012551
    14  C    0.022621   0.180284  -0.058171  -0.011035  -0.035859   0.007145
    15  C    0.396354  -0.806913   0.013154  -0.097277   0.376355   0.168976
    16  C   -0.018016  -1.047877   0.237196   0.018412   0.079937  -0.067604
    17  H   -0.000145   0.001888  -0.003891   0.000013   0.008912   0.000066
    18  C   -0.109926  -0.206660   0.026160   0.405404  -0.026705  -0.025922
    19  H    0.515868   0.020606   0.000016  -0.004423   0.003438   0.000465
    20  C    0.020606  12.703409   0.083214  -0.021482  -3.827511  -0.465533
    21  H    0.000016   0.083214   0.540008  -0.000143  -0.025057   0.000591
    22  H   -0.004423  -0.021482  -0.000143   0.490491  -0.047077  -0.013568
    23  C    0.003438  -3.827511  -0.025057  -0.047077   9.700047   0.578012
    24  O    0.000465  -0.465533   0.000591  -0.013568   0.578012   8.294412
    25  C   -0.000432  -0.514474  -0.008749   0.011655  -0.497378  -0.105481
    26  H    0.000000   0.074809  -0.000119   0.000004  -0.150184   0.003060
    27  H    0.000000   0.003089  -0.000106   0.000003  -0.086244   0.004180
    28  H    0.000000   0.036367  -0.000006  -0.000014  -0.133596  -0.000375
    29  C    0.000000   0.000304   0.000000   0.000000   0.000016   0.000000
    30  H    0.000000   0.000000   0.000000   0.000000   0.000000   0.000000
    31  H    0.000000   0.000000   0.000000   0.000000   0.000000   0.000000
    32  H    0.000000   0.000000   0.000000   0.000000   0.000000   0.000000
              25         26         27         28         29         30
     1  C   -0.000001   0.000000   0.000000   0.000000  -0.514003  -0.071231
     2  C    0.000044   0.000000   0.000000   0.000000   0.662338   0.042218
     3  C    0.000062   0.000000   0.000000   0.000000  -0.527622  -0.001970
     4  C   -0.000068   0.000000   0.000000   0.000000  -0.514029  -0.032432
     5  C   -0.000004   0.000000   0.000000   0.000000   0.319939   0.058460
     6  C    0.000001   0.000000   0.000000   0.000000  -1.716761  -0.104567
     7  H    0.000000   0.000000   0.000000   0.000000  -0.024696   0.001117
     8  H    0.000000   0.000000   0.000000   0.000000   0.001595  -0.000001
     9  H    0.000000   0.000000   0.000000   0.000000   0.003085   0.000004
    10  H    0.000000   0.000000   0.000000   0.000000  -0.040947   0.000144
    11  C   -0.000263   0.000004  -0.000004   0.000000   0.086389   0.000734
    12  C    0.000477  -0.000043   0.000036  -0.000027  -0.054836  -0.000083
    13  C    0.020854   0.001507   0.000342   0.000393   0.011538  -0.000001
    14  C   -0.241146  -0.008091   0.009740  -0.001611  -0.001035   0.000001
    15  C   -0.009078   0.000187  -0.000302  -0.001257   0.000765   0.000000
    16  C   -0.104807  -0.027555   0.013066  -0.005278  -0.000204   0.000000
    17  H    0.000271   0.000000   0.000000   0.000000   0.000000   0.000000
    18  C    0.210938   0.015042  -0.007250  -0.004849   0.000183   0.000000
    19  H   -0.000432   0.000000   0.000000   0.000000   0.000000   0.000000
    20  C   -0.514474   0.074809   0.003089   0.036367   0.000304   0.000000
    21  H   -0.008749  -0.000119  -0.000106  -0.000006   0.000000   0.000000
    22  H    0.011655   0.000004   0.000003  -0.000014   0.000000   0.000000
    23  C   -0.497378  -0.150184  -0.086244  -0.133596   0.000016   0.000000
    24  O   -0.105481   0.003060   0.004180  -0.000375   0.000000   0.000000
    25  C    6.795999   0.429825   0.399267   0.462797   0.000000   0.000000
    26  H    0.429825   0.475273  -0.026314  -0.022862   0.000000   0.000000
    27  H    0.399267  -0.026314   0.484107  -0.023585   0.000000   0.000000
    28  H    0.462797  -0.022862  -0.023585   0.437286   0.000000   0.000000
    29  C    0.000000   0.000000   0.000000   0.000000   7.584657   0.438102
    30  H    0.000000   0.000000   0.000000   0.000000   0.438102   0.498898
    31  H    0.000000   0.000000   0.000000   0.000000   0.420714  -0.031522
    32  H    0.000000   0.000000   0.000000   0.000000   0.518247  -0.024706
              31         32
     1  C   -0.090102   0.075324
     2  C    0.009606  -0.030341
     3  C    0.000773  -0.013267
     4  C   -0.018639   0.050390
     5  C    0.084068  -0.118733
     6  C   -0.078094  -0.146796
     7  H    0.001044   0.000095
     8  H   -0.000004   0.000003
     9  H    0.000003  -0.000011
    10  H    0.000152   0.006115
    11  C    0.000423   0.000845
    12  C   -0.000039   0.000022
    13  C    0.000003   0.000006
    14  C   -0.000001   0.000000
    15  C    0.000001   0.000000
    16  C    0.000000   0.000000
    17  H    0.000000   0.000000
    18  C    0.000000   0.000000
    19  H    0.000000   0.000000
    20  C    0.000000   0.000000
    21  H    0.000000   0.000000
    22  H    0.000000   0.000000
    23  C    0.000000   0.000000
    24  O    0.000000   0.000000
    25  C    0.000000   0.000000
    26  H    0.000000   0.000000
    27  H    0.000000   0.000000
    28  H    0.000000   0.000000
    29  C    0.420714   0.518247
    30  H   -0.031522  -0.024706
    31  H    0.496936  -0.024702
    32  H   -0.024702   0.503229
 Mulliken charges:
               1
     1  C    0.305101
     2  C   -0.422327
     3  C    0.295617
     4  C   -0.264166
     5  C   -0.585029
     6  C    0.037999
     7  H    0.179336
     8  H    0.196446
     9  H    0.194214
    10  H    0.178565
    11  C   -0.101643
    12  C   -0.088711
    13  C   -0.051041
    14  C   -0.573479
    15  C   -0.025455
    16  C   -0.795684
    17  H    0.195796
    18  C    0.188060
    19  H    0.200020
    20  C   -0.004374
    21  H    0.180774
    22  H    0.225959
    23  C    1.022372
    24  O   -0.366846
    25  C   -0.850307
    26  H    0.235455
    27  H    0.229974
    28  H    0.256618
    29  C   -0.653741
    30  H    0.226835
    31  H    0.229381
    32  H    0.204280
 Sum of Mulliken charges =   0.00000
 Mulliken charges with hydrogens summed into heavy atoms:
               1
     1  C    0.484437
     2  C   -0.225882
     3  C    0.295617
     4  C   -0.069952
     5  C   -0.406464
     6  C    0.037999
    11  C   -0.101643
    12  C   -0.088711
    13  C   -0.051041
    14  C   -0.377683
    15  C    0.174564
    16  C   -0.614910
    18  C    0.414019
    20  C   -0.004374
    23  C    1.022372
    24  O   -0.366846
    25  C   -0.128260
    29  C    0.006755
 Electronic spatial extent (au):  <R**2>=           9752.1706
 Charge=              0.0000 electrons
 Dipole moment (field-independent basis, Debye):
    X=             -1.4108    Y=             -2.6026    Z=              0.5005  Tot=              3.0024
 Quadrupole moment (field-independent basis, Debye-Ang):
   XX=            -83.6717   YY=            -98.7591   ZZ=           -110.9100
   XY=            -16.7707   XZ=              3.1053   YZ=              1.1338
 Traceless Quadrupole moment (field-independent basis, Debye-Ang):
   XX=             14.1086   YY=             -0.9788   ZZ=            -13.1297
   XY=            -16.7707   XZ=              3.1053   YZ=              1.1338
 Octapole moment (field-independent basis, Debye-Ang**2):
  XXX=            -48.4768  YYY=              0.7048  ZZZ=             -0.3446  XYY=            -12.5340
  XXY=           -111.5189  XXZ=             22.3260  XZZ=             15.7377  YZZ=             -0.0766
  YYZ=              0.6488  XYZ=             -7.2511
 Hexadecapole moment (field-independent basis, Debye-Ang**3):
 XXXX=         -11376.3505 YYYY=           -682.1528 ZZZZ=           -171.9226 XXXY=           -661.0860
 XXXZ=            123.4903 YYYX=             -9.0026 YYYZ=              3.9998 ZZZX=              2.1677
 ZZZY=             -2.5788 XXYY=          -2191.4979 XXZZ=          -2181.6360 YYZZ=           -156.5562
 XXYZ=             46.4290 YYXZ=             -1.6037 ZZXY=              4.3025
 N-N= 1.041923029741D+03 E-N=-3.778982636204D+03  KE= 7.242808925507D+02
 Calling FoFJK, ICntrl=      2127 FMM=F ISym2X=0 I1Cent= 0 IOpClX= 0 NMat=1 NMatS=1 NMatT=0.
 ***** Axes restored to original set *****
 -------------------------------------------------------------------
 Center     Atomic                   Forces (Hartrees/Bohr)
 Number     Number              X              Y              Z
 -------------------------------------------------------------------
      1        6           0.013242193   -0.002213624    0.001100317
      2        6          -0.006034920    0.000387537    0.009320042
      3        6           0.063395254   -0.009675791    0.013589702
      4        6           0.000299981    0.008923102   -0.011221645
      5        6           0.010680074   -0.002198784    0.000426549
      6        6           0.040317006    0.001012228   -0.005058541
      7        1           0.001566170    0.000645758   -0.003408279
      8        1          -0.001999065    0.002718513   -0.005344470
      9        1          -0.001118866   -0.001157817    0.003736311
     10        1           0.002628408   -0.002036512    0.003174804
     11        6          -0.089307595    0.002200223   -0.010535409
     12        6           0.090100031   -0.000707890    0.000933076
     13        6          -0.064458467    0.004212534    0.004947660
     14        6          -0.000308229   -0.002563024    0.011343413
     15        6           0.007432809   -0.002303589   -0.008091883
     16        6          -0.007107291    0.001027387    0.002594612
     17        1           0.001289071    0.000223511   -0.004738853
     18        6          -0.014390660    0.001412699   -0.012414357
     19        1           0.002791059    0.000203707    0.005357069
     20        6           0.021543631   -0.002411728    0.057493446
     21        1          -0.002382528    0.000091803   -0.003448612
     22        1          -0.007058069    0.000153395    0.008562105
     23        6          -0.034086183    0.006448404   -0.096000625
     24        8           0.068380599   -0.003331787    0.028490309
     25        6          -0.038633831   -0.003708159   -0.007911879
     26        1          -0.000613563    0.014607640    0.012143995
     27        1           0.000283263   -0.012364949    0.014881263
     28        1           0.008710581   -0.000950448   -0.013111985
     29        6          -0.025673593    0.002052017   -0.001553056
     30        1          -0.012511724    0.009101402    0.013819660
     31        1          -0.013364826   -0.015542285    0.003155480
     32        1          -0.013610718    0.005744526   -0.012230219
 -------------------------------------------------------------------
 Cartesian Forces:  Max     0.096000625 RMS     0.023297140

 GradGradGradGradGradGradGradGradGradGradGradGradGradGradGradGradGradGrad
 Berny optimization.
 FormGI is forming the generalized inverse of G from B-inverse, IUseBI=4.
 GSVD:  received Info=                   1 from GESDD.
 Internal  Forces:  Max     0.130858803 RMS     0.016997253
 Search for a local minimum.
 Step number   1 out of a maximum of  166
 All quantities printed in internal units (Hartrees-Bohrs-Radians)
 Mixed Optimization -- RFO/linear search
 Second derivative matrix not updated -- first step.
 ITU=  0
     Eigenvalues ---    0.00230   0.00230   0.00230   0.00230   0.00237
     Eigenvalues ---    0.00243   0.01518   0.01545   0.01669   0.01692
     Eigenvalues ---    0.01945   0.02079   0.02091   0.02104   0.02111
     Eigenvalues ---    0.02116   0.02117   0.02118   0.02120   0.02122
     Eigenvalues ---    0.02125   0.02126   0.02132   0.02148   0.02165
     Eigenvalues ---    0.03984   0.04701   0.07243   0.07243   0.08051
     Eigenvalues ---    0.08051   0.15990   0.15994   0.15995   0.15996
     Eigenvalues ---    0.16000   0.16000   0.16000   0.16000   0.16000
     Eigenvalues ---    0.16000   0.16000   0.16000   0.16000   0.16000
     Eigenvalues ---    0.21985   0.21994   0.22975   0.22980   0.23986
     Eigenvalues ---    0.23991   0.24971   0.24980   0.24991   0.24994
     Eigenvalues ---    0.25000   0.25000   0.26737   0.28340   0.28403
     Eigenvalues ---    0.28519   0.34254   0.34325   0.34394   0.34399
     Eigenvalues ---    0.34412   0.34413   0.34464   0.34556   0.37230
     Eigenvalues ---    0.37230   0.37230   0.37230   0.37230   0.37230
     Eigenvalues ---    0.40989   0.41551   0.41751   0.42154   0.42205
     Eigenvalues ---    0.45390   0.45833   0.45928   0.45974   0.45996
     Eigenvalues ---    0.46091   0.46204   0.46785   0.80209   1.05241
 RFO step:  Lambda=-1.14659473D-01 EMin= 2.30000000D-03
 Linear search not attempted -- first point.
 Maximum step size (   0.300) exceeded in Quadratic search.
    -- Step size scaled by   0.549
 Iteration  1 RMS(Cart)=  0.10125807 RMS(Int)=  0.00562808
 Iteration  2 RMS(Cart)=  0.00964583 RMS(Int)=  0.00005548
 Iteration  3 RMS(Cart)=  0.00006693 RMS(Int)=  0.00004542
 Iteration  4 RMS(Cart)=  0.00000001 RMS(Int)=  0.00004542
 Variable       Old X    -DE/DX   Delta X   Delta X   Delta X     New X
                                 (Linear)    (Quad)   (Total)
    R1        2.64067  -0.00261   0.00000  -0.00255  -0.00255   2.63813
    R2        2.64223   0.00850   0.00000   0.00815   0.00816   2.65039
    R3        2.06640  -0.00375   0.00000  -0.00448  -0.00448   2.06192
    R4        2.65214   0.00136   0.00000   0.00124   0.00123   2.65337
    R5        2.06903  -0.00615   0.00000  -0.00739  -0.00739   2.06164
    R6        2.62850   0.00437   0.00000   0.00407   0.00406   2.63256
    R7        2.91400  -0.05810   0.00000  -0.08014  -0.08014   2.83386
    R8        2.64421  -0.00075   0.00000  -0.00067  -0.00067   2.64354
    R9        2.06401  -0.00396   0.00000  -0.00473  -0.00473   2.05929
   R10        2.64263   0.00578   0.00000   0.00561   0.00562   2.64825
   R11        2.06671  -0.00455   0.00000  -0.00544  -0.00544   2.06126
   R12        2.70231   0.06525   0.00000   0.06830   0.06830   2.77060
   R13        2.26611   0.03149   0.00000   0.01482   0.01482   2.28092
   R14        2.91266  -0.05861   0.00000  -0.08071  -0.08071   2.83195
   R15        2.64178  -0.00118   0.00000  -0.00136  -0.00137   2.64042
   R16        2.63832   0.00667   0.00000   0.00618   0.00617   2.64450
   R17        2.64183  -0.00171   0.00000  -0.00171  -0.00170   2.64013
   R18        2.06554  -0.00475   0.00000  -0.00567  -0.00567   2.05986
   R19        2.64238  -0.00365   0.00000  -0.00342  -0.00342   2.63895
   R20        2.06786  -0.00604   0.00000  -0.00724  -0.00724   2.06062
   R21        2.64009   0.00966   0.00000   0.00937   0.00938   2.64947
   R22        2.06662  -0.00418   0.00000  -0.00500  -0.00500   2.06162
   R23        2.63983   0.01116   0.00000   0.01087   0.01088   2.65071
   R24        2.06639  -0.01095   0.00000  -0.01310  -0.01310   2.05329
   R25        2.94985   0.00531   0.00000   0.00764   0.00764   2.95749
   R26        2.37803  -0.01963   0.00000  -0.01176  -0.01176   2.36628
   R27        2.91018  -0.02060   0.00000  -0.02828  -0.02828   2.88190
   R28        2.02201   0.01879   0.00000   0.02118   0.02118   2.04319
   R29        2.02201   0.01899   0.00000   0.02141   0.02141   2.04342
   R30        2.02201   0.01451   0.00000   0.01636   0.01636   2.03836
   R31        2.02201   0.01946   0.00000   0.02194   0.02194   2.04395
   R32        2.02201   0.01950   0.00000   0.02198   0.02198   2.04399
   R33        2.02201   0.01747   0.00000   0.01970   0.01970   2.04171
    A1        2.09366   0.00650   0.00000   0.01033   0.01034   2.10400
    A2        2.09504  -0.00301   0.00000  -0.00469  -0.00469   2.09035
    A3        2.09447  -0.00349   0.00000  -0.00564  -0.00564   2.08883
    A4        2.09099   0.00058   0.00000   0.00047   0.00045   2.09144
    A5        2.09389   0.00118   0.00000   0.00274   0.00274   2.09663
    A6        2.09796  -0.00174   0.00000  -0.00312  -0.00311   2.09485
    A7        2.09733  -0.00186   0.00000  -0.00319  -0.00322   2.09412
    A8        2.03358   0.01072   0.00000   0.01635   0.01636   2.04995
    A9        2.15206  -0.00886   0.00000  -0.01313  -0.01312   2.13895
   A10        2.09293  -0.00058   0.00000  -0.00115  -0.00117   2.09176
   A11        2.09462  -0.00061   0.00000  -0.00119  -0.00118   2.09344
   A12        2.09507   0.00122   0.00000   0.00247   0.00247   2.09755
   A13        2.09517   0.00680   0.00000   0.01111   0.01112   2.10629
   A14        2.09387  -0.00374   0.00000  -0.00623  -0.00623   2.08764
   A15        2.09414  -0.00306   0.00000  -0.00488  -0.00488   2.08926
   A16        2.09442  -0.01135   0.00000  -0.01719  -0.01717   2.07725
   A17        2.09448   0.00324   0.00000   0.00492   0.00491   2.09939
   A18        2.09428   0.00812   0.00000   0.01227   0.01226   2.10654
   A19        2.09307   0.00057   0.00000   0.00132   0.00133   2.09439
   A20        2.09164   0.00105   0.00000   0.00205   0.00206   2.09370
   A21        2.09779  -0.00159   0.00000  -0.00326  -0.00329   2.09450
   A22        2.09144  -0.00262   0.00000  -0.00510  -0.00511   2.08633
   A23        2.09611   0.00002   0.00000  -0.00002  -0.00002   2.09609
   A24        2.09540   0.00261   0.00000   0.00517   0.00517   2.10057
   A25        2.09320   0.00462   0.00000   0.00714   0.00713   2.10033
   A26        2.09628  -0.00256   0.00000  -0.00407  -0.00406   2.09222
   A27        2.09347  -0.00204   0.00000  -0.00303  -0.00302   2.09045
   A28        2.09342   0.00948   0.00000   0.01543   0.01545   2.10887
   A29        2.09403  -0.00510   0.00000  -0.00842  -0.00843   2.08560
   A30        2.09573  -0.00439   0.00000  -0.00701  -0.00702   2.08872
   A31        2.09222   0.00106   0.00000   0.00197   0.00198   2.09420
   A32        2.09489  -0.00241   0.00000  -0.00475  -0.00475   2.09014
   A33        2.09607   0.00135   0.00000   0.00278   0.00277   2.09884
   A34        2.09766  -0.01092   0.00000  -0.01607  -0.01605   2.08161
   A35        2.11456  -0.01575   0.00000  -0.02389  -0.02390   2.09066
   A36        2.07064   0.02668   0.00000   0.04002   0.04001   2.11065
   A37        1.71792   0.13086   0.00000   0.19722   0.19724   1.91515
   A38        2.47068  -0.09222   0.00000  -0.13869  -0.13866   2.33202
   A39        2.09241  -0.03879   0.00000  -0.05833  -0.05830   2.03412
   A40        1.91063   0.00232   0.00000   0.00453   0.00452   1.91515
   A41        1.91063   0.00474   0.00000   0.00962   0.00963   1.92026
   A42        1.91063  -0.00954   0.00000  -0.01911  -0.01909   1.89155
   A43        1.91063  -0.00343   0.00000  -0.00679  -0.00681   1.90382
   A44        1.91063   0.00322   0.00000   0.00613   0.00614   1.91677
   A45        1.91063   0.00270   0.00000   0.00562   0.00566   1.91629
   A46        1.91063   0.00689   0.00000   0.01363   0.01352   1.92415
   A47        1.91063   0.00668   0.00000   0.01316   0.01306   1.92369
   A48        1.91063   0.00874   0.00000   0.01779   0.01766   1.92829
   A49        1.91063  -0.00778   0.00000  -0.01620  -0.01627   1.89436
   A50        1.91063  -0.00726   0.00000  -0.01414  -0.01428   1.89635
   A51        1.91063  -0.00727   0.00000  -0.01424  -0.01437   1.89626
   A52        3.17054  -0.00290   0.00000  -0.00989  -0.00989   3.16065
   A53        3.14159   0.00098   0.00000   0.00466   0.00466   3.14624
   A54        3.13228   0.00083   0.00000   0.00288   0.00287   3.13515
   A55        3.14159  -0.00001   0.00000   0.00010   0.00011   3.14170
    D1        0.02934  -0.00070   0.00000  -0.00300  -0.00301   0.02633
    D2       -3.14082   0.00022   0.00000   0.00076   0.00076  -3.14006
    D3       -3.10907  -0.00086   0.00000  -0.00361  -0.00361  -3.11268
    D4        0.00396   0.00005   0.00000   0.00015   0.00015   0.00411
    D5        0.00343   0.00000   0.00000  -0.00002  -0.00002   0.00341
    D6       -3.13978  -0.00001   0.00000  -0.00005  -0.00005  -3.13983
    D7       -3.14135   0.00017   0.00000   0.00058   0.00058  -3.14077
    D8       -0.00137   0.00016   0.00000   0.00056   0.00055  -0.00082
    D9       -0.06456   0.00158   0.00000   0.00648   0.00648  -0.05808
   D10        3.09824   0.00133   0.00000   0.00504   0.00504   3.10328
   D11        3.10566   0.00061   0.00000   0.00262   0.00262   3.10828
   D12       -0.01472   0.00037   0.00000   0.00118   0.00117  -0.01354
   D13        0.06660  -0.00168   0.00000  -0.00679  -0.00678   0.05982
   D14       -3.11087  -0.00063   0.00000  -0.00253  -0.00252  -3.11339
   D15       -3.09770  -0.00117   0.00000  -0.00487  -0.00488  -3.10259
   D16        0.00801  -0.00012   0.00000  -0.00060  -0.00062   0.00739
   D17       -0.42138   0.00096   0.00000   0.00407   0.00408  -0.41730
   D18        2.76189   0.00008   0.00000   0.00039   0.00040   2.76229
   D19        2.74721   0.00007   0.00000   0.00033   0.00032   2.74753
   D20       -0.35271  -0.00081   0.00000  -0.00335  -0.00336  -0.35607
   D21       -0.03360   0.00087   0.00000   0.00355   0.00356  -0.03004
   D22        3.10669   0.00093   0.00000   0.00381   0.00382   3.11050
   D23       -3.13930  -0.00014   0.00000  -0.00064  -0.00064  -3.13994
   D24        0.00098  -0.00008   0.00000  -0.00038  -0.00038   0.00060
   D25       -0.00147  -0.00005   0.00000  -0.00020  -0.00020  -0.00167
   D26       -3.14144  -0.00004   0.00000  -0.00017  -0.00017   3.14158
   D27        3.14144  -0.00011   0.00000  -0.00046  -0.00046   3.14098
   D28        0.00146  -0.00010   0.00000  -0.00043  -0.00043   0.00104
   D29        1.02782  -0.00063   0.00000  -0.00181  -0.00183   1.02599
   D30       -1.06657   0.00059   0.00000   0.00163   0.00165  -1.06492
   D31        3.12222   0.00005   0.00000   0.00011   0.00011   3.12233
   D32       -2.11539  -0.00066   0.00000  -0.00186  -0.00188  -2.11727
   D33        2.07340   0.00056   0.00000   0.00157   0.00159   2.07500
   D34       -0.02099   0.00002   0.00000   0.00006   0.00006  -0.02093
   D35       -3.13968   0.00021   0.00000   0.00054   0.00052  -3.13916
   D36        0.02538  -0.00045   0.00000  -0.00193  -0.00193   0.02346
   D37       -0.03799   0.00090   0.00000   0.00346   0.00344  -0.03455
   D38        3.12707   0.00024   0.00000   0.00099   0.00099   3.12806
   D39        3.14019  -0.00002   0.00000  -0.00018  -0.00019   3.13999
   D40       -0.02477   0.00045   0.00000   0.00192   0.00192  -0.02285
   D41        0.03847  -0.00069   0.00000  -0.00309  -0.00310   0.03537
   D42       -3.12649  -0.00022   0.00000  -0.00098  -0.00098  -3.12747
   D43        0.02003  -0.00050   0.00000  -0.00202  -0.00202   0.01801
   D44       -3.12378  -0.00060   0.00000  -0.00221  -0.00220  -3.12597
   D45        3.13816   0.00013   0.00000   0.00037   0.00037   3.13852
   D46       -0.00565   0.00002   0.00000   0.00019   0.00019  -0.00546
   D47       -0.02094   0.00039   0.00000   0.00174   0.00175  -0.01919
   D48        3.12361   0.00038   0.00000   0.00186   0.00188   3.12550
   D49       -3.13921  -0.00007   0.00000  -0.00035  -0.00035  -3.13956
   D50        0.00535  -0.00009   0.00000  -0.00022  -0.00022   0.00513
   D51       -0.00265   0.00019   0.00000   0.00069   0.00069  -0.00196
   D52       -3.11651  -0.00082   0.00000  -0.00245  -0.00241  -3.11892
   D53        3.14116   0.00030   0.00000   0.00088   0.00087  -3.14116
   D54        0.02729  -0.00072   0.00000  -0.00226  -0.00223   0.02506
   D55        0.00308  -0.00016   0.00000  -0.00061  -0.00060   0.00248
   D56        3.11764   0.00018   0.00000   0.00148   0.00151   3.11915
   D57       -3.14147  -0.00015   0.00000  -0.00074  -0.00075   3.14097
   D58       -0.02692   0.00019   0.00000   0.00134   0.00137  -0.02555
   D59        3.11401   0.00002   0.00000  -0.00322  -0.00303   3.11098
   D60       -0.10586   0.00027   0.00000   0.00485   0.00467  -0.10119
   D61       -0.00027  -0.00041   0.00000  -0.00546  -0.00528  -0.00556
   D62        3.06304  -0.00015   0.00000   0.00260   0.00241   3.06545
   D63       -1.02242  -0.00222   0.00000  -0.00805  -0.00817  -1.03059
   D64        1.07198  -0.00210   0.00000  -0.00770  -0.00779   1.06419
   D65       -3.11681  -0.00174   0.00000  -0.00663  -0.00676  -3.12357
   D66        2.02984   0.00180   0.00000   0.00678   0.00689   2.03673
   D67       -2.15895   0.00192   0.00000   0.00713   0.00727  -2.15168
   D68       -0.06456   0.00228   0.00000   0.00820   0.00830  -0.05626
         Item               Value     Threshold  Converged?
 Maximum Force            0.130859     0.000450     NO 
 RMS     Force            0.016997     0.000300     NO 
 Maximum Displacement     0.512218     0.001800     NO 
 RMS     Displacement     0.106015     0.001200     NO 
 Predicted change in Energy=-5.087170D-02
 GradGradGradGradGradGradGradGradGradGradGradGradGradGradGradGradGradGrad

                          Input orientation:                          
 ---------------------------------------------------------------------
 Center     Atomic      Atomic             Coordinates (Angstroms)
 Number     Number       Type             X           Y           Z
 ---------------------------------------------------------------------
      1          6           0       -5.235047   -0.946884    1.158383
      2          6           0       -3.840687   -0.977422    1.097182
      3          6           0       -3.181152   -0.500161   -0.046819
      4          6           0       -3.919248   -0.062398   -1.144216
      5          6           0       -5.316183   -0.032163   -1.076461
      6          6           0       -5.986035   -0.472125    0.073164
      7          1           0       -5.745502   -1.292828    2.058552
      8          1           0       -3.263372   -1.349446    1.944844
      9          1           0       -3.406690    0.283158   -2.041646
     10          1           0       -5.889171    0.338743   -1.927284
     11          6           0       -1.681621   -0.511269   -0.035496
     12          6           0       -0.474709   -0.516908   -0.049989
     13          6           0        1.023835   -0.524097   -0.061018
     14          6           0        1.731438   -0.505689    1.143665
     15          6           0        1.713853   -0.504437   -1.278322
     16          6           0        3.128362   -0.509637    1.122072
     17          1           0        1.195195   -0.508208    2.092669
     18          6           0        3.110182   -0.509033   -1.297818
     19          1           0        1.159202   -0.505512   -2.217152
     20          6           0        3.828186   -0.510145   -0.092820
     21          1           0        3.680125   -0.510086    2.063218
     22          1           0        3.636232   -0.508819   -2.248540
     23          6           0        5.392819   -0.545391   -0.088726
     24          8           0        5.818037   -0.576277   -1.266091
     25          6           0        6.443852   -0.471281    1.013802
     26          1           0        6.336105    0.456132    1.559061
     27          1           0        6.321866   -1.299774    1.697904
     28          1           0        7.419880   -0.515610    0.556742
     29          6           0       -7.450097   -0.440559    0.144527
     30          1           0       -7.771155    0.170712    0.977086
     31          1           0       -7.839326   -1.440364    0.281716
     32          1           0       -7.864206   -0.030432   -0.765213
 ---------------------------------------------------------------------
                    Distance matrix (angstroms):
                    1          2          3          4          5
     1  C    0.000000
     2  C    1.396036   0.000000
     3  C    2.422923   1.404102   0.000000
     4  C    2.795640   2.422251   1.393091   0.000000
     5  C    2.416159   2.792011   2.416100   1.398903   0.000000
     6  C    1.402526   2.430320   2.807588   2.433413   1.401395
     7  H    1.091121   2.156857   3.411275   3.886757   3.406156
     8  H    2.160574   1.090974   2.166740   3.410125   3.882982
     9  H    3.885367   3.410227   2.154945   1.089727   2.162676
    10  H    3.406179   3.882778   3.401951   2.157476   1.090773
    11  C    3.773850   2.482302   1.499615   2.537267   3.810930
    12  C    4.930097   3.585789   2.706497   3.642631   4.972775
    13  C    6.390563   5.021006   4.205079   5.081393   6.439639
[...]
 586,0.00000552,-0.00000333,0.00000184,0.00000565,0.00000063,-0.0000012
 1,-0.00000050,0.00000003,-0.00000018,-0.00000036,-0.00000152,0.0000003
 9,0.00000271,-0.00000107,-0.00000043,-0.00000142,0.00000063,-0.0000000
 8,0.00000041,0.00007382,0.00002071,0.00000376,-0.00011428,-0.00010290,
 0.00002021,0.00007457,-0.00000524,-0.00024662,0.00002903,0.00034255,0.
 00016888,-0.00030082,0.00015504,0.00034636,-0.00099785,0.00022719,-0.0
 0033025,0.00000031,-0.00000603,0.00000180,0.00059270,-0.00041440,0.000
 26682,0.00000968,0.00004357,0.00001402,-0.00150980,-0.00168704,-0.0002
 9864,-0.00159615,0.00049623,0.00020371,0.00007735,-0.00003189,0.000048
 94,0.00663711,0.01824274,-0.00267679,-0.00032906,-0.00153835,-0.002726
 64,-0.06063852,-0.04709459,0.02029475,0.00071645,0.00633470,-0.0028379
 3,0.06074492,-0.00000175,0.00000015,-0.00000231,-0.00000664,0.00000072
 ,0.00000276,0.00002073,-0.00000031,0.00000335,-0.00000694,-0.00000064,
 0.00000306,-0.00000149,0.00000070,0.00000069,0.00000092,0.00000097,-0.
 00000068,-0.00000083,-0.00000056,0.00000100,0.00000187,0.00000006,-0.0
 0000236,0.00000190,-0.00000081,0.00000051,-0.00000233,0.00000005,-0.00
 000148,-0.00003402,-0.00000111,-0.00000184,0.00002755,-0.00001730,-0.0
 0005278,-0.00008698,-0.00001604,-0.00011135,0.00009021,0.00025194,-0.0
 0033718,-0.00013213,-0.00003039,-0.00000571,-0.00036042,0.00028892,0.0
 0101797,0.00002369,0.00000164,0.00000954,0.00030456,0.00009690,-0.0000
 3445,0.00001908,-0.00000437,-0.00000709,0.00024122,0.00004882,0.000488
 43,0.00025522,-0.00026030,-0.00072062,-0.00009560,0.00003295,-0.000063
 10,-0.00194695,-0.00175839,0.00023557,0.00113552,-0.00029397,-0.000037
 34,-0.04809657,-0.25291923,0.09785188,-0.00511088,-0.02056581,0.010222
 87,0.05386766,0.27447976,-0.00000602,0.00000191,-0.00000370,0.00000546
 ,-0.00000387,-0.00000575,-0.00001855,-0.00000065,-0.00000108,0.0000044
 6,-0.00000347,0.00000600,-0.00000463,-0.00000027,0.00000338,0.00000235
 ,-0.00000023,-0.00000020,-0.00000010,0.00000038,0.00000050,0.00000027,
 0.00000080,0.00000028,0.00000038,0.00000081,-0.00000044,-0.00000073,0.
 00000050,-0.00000054,0.00004518,0.00002135,0.00000478,-0.00007836,-0.0
 0002146,-0.00000827,0.00004921,-0.00012463,0.00024079,-0.00040950,0.00
 015029,-0.00009132,0.00019174,0.00019230,0.00001875,0.00027362,-0.0003
 3755,0.00033477,-0.00000090,-0.00000263,0.00000344,-0.00020193,-0.0003
 8153,-0.00026724,-0.00000576,0.00005039,-0.00000287,-0.00038219,-0.001
 82401,-0.00005300,0.00022546,-0.00011579,0.00025490,0.00013191,-0.0000
 2728,0.00004544,0.01018966,0.02547487,-0.00981619,-0.00339476,-0.00281
 202,-0.00576025,0.02166717,0.10188791,-0.08848830,-0.00475831,-0.02095
 001,0.01093741,-0.02417895,-0.10734775,0.09604951,-0.00001492,0.000003
 10,-0.00001854,-0.00001046,0.00000306,-0.00001887,0.00002435,0.0000004
 0,-0.00000272,-0.00000762,-0.00000333,0.00001979,-0.00001364,-0.000003
 38,0.00002006,0.00000641,0.00000129,-0.00000444,-0.00000585,-0.0000008
 7,0.00000533,0.00000545,0.00000051,-0.00000290,0.00000562,-0.00000048,
 0.00000301,-0.00000637,0.00000083,-0.00000486,0.00002592,0.,0.00000026
 ,-0.00007162,-0.00000113,0.00000676,0.00011742,0.00001170,-0.00007125,
 0.00005445,-0.00000406,0.00002633,-0.00015694,0.00005249,-0.00031665,0
 .00060029,0.00006177,-0.00037340,-0.00003922,-0.00000207,0.00001263,-0
 .00076525,-0.00009785,0.00059076,-0.00011175,-0.00000011,0.00000086,-0
 .00032764,0.00054788,-0.00329351,0.00014594,0.00000677,-0.00004335,0.0
 0000789,0.00001032,-0.00006178,-0.02070715,-0.00096566,0.00590289,0.00
 398561,-0.00026590,0.00157742,-0.30916573,-0.01036793,0.06367636,-0.00
 341076,-0.00010560,0.00064961,-0.00344540,-0.00010330,0.00065664,0.333
 29978,0.00000033,-0.00000087,0.00000010,0.00000003,0.00000092,0.000000
 88,0.00000023,-0.00000732,-0.00000079,-0.00000011,0.00000131,-0.000000
 05,0.00000011,-0.00000110,-0.00000068,0.00000018,0.00000415,0.00000081
 ,0.00000008,0.00000018,0.,0.00000006,0.00000050,-0.00000009,-0.0000000
 7,0.00000045,0.00000006,0.00000005,0.00000040,0.00000009,-0.00000202,-
 0.00000414,-0.00000046,0.00000188,0.00000345,-0.00000805,-0.00001747,-
 0.00002275,0.00001227,-0.00000835,0.00018677,-0.00003261,0.00002982,-0
 .00019814,0.00003041,-0.00006919,0.00011109,0.00020364,0.00000639,0.00
 000753,0.00000098,0.00022589,0.00036287,-0.00003706,0.00002245,-0.0000
 3791,-0.00000708,0.00019695,0.00127890,0.00106499,-0.00003337,-0.00039
 178,-0.00016097,-0.00000075,0.00007213,0.00000819,0.00525751,-0.000751
 44,-0.00114246,-0.00021379,-0.00097971,-0.00053928,-0.01123905,-0.0499
 6748,0.00234712,0.02347106,0.00175280,-0.00441289,-0.02885189,0.000666
 24,0.00617177,0.01122275,0.04791408,-0.00000188,0.00000010,-0.00000136
 ,-0.00000018,0.00000083,-0.00000407,-0.00000132,-0.00000077,-0.0000027
 4,0.00000065,-0.00000005,0.00000147,-0.00000058,-0.00000065,0.00000277
 ,-0.00000114,0.00000082,-0.00000054,-0.00000045,0.,0.00000017,-0.00000
 038,-0.00000009,0.00000105,0.00000042,0.00000006,0.00000011,-0.0000002
 8,0.00000008,-0.00000008,0.00001157,-0.00000042,-0.00000152,-0.0000102
 8,-0.00000804,0.00005042,0.00010367,0.00001196,-0.00009354,0.00005068,
 -0.00003211,0.00037660,-0.00017828,0.00003062,-0.00037683,0.00041189,0
 .00020252,-0.00107769,-0.00003837,0.00000098,0.00000177,-0.00136130,-0
 .00003662,0.00057645,-0.00013510,-0.00000697,0.00000355,-0.00118255,0.
 00106385,-0.00495220,0.00020033,-0.00016072,0.00054920,0.00000437,0.00
 000820,0.00002400,-0.03165201,-0.00110950,0.00590089,0.00127421,-0.000
 54371,0.00218850,0.06891652,0.00234239,-0.06396808,0.02060431,0.002848
 39,-0.00452939,0.01192803,-0.00111229,-0.00340123,-0.06894095,-0.00349
 857,0.06873188,-0.02479429,0.00074009,-0.00459128,0.00441947,0.0003949
 1,-0.00218792,-0.00198745,-0.00024444,0.00153079,0.00147561,-0.0000348
 8,0.00040762,-0.01962846,-0.00072032,0.00419653,-0.21180736,-0.0010732
 7,0.00560832,0.00084867,-0.00023364,0.00120683,-0.00007407,-0.00003539
 ,0.00016297,-0.00003032,0.00002272,-0.00018734,0.00123838,0.00025880,-
 0.00174470,0.00117676,-0.00000845,-0.00004042,-0.00069376,0.00000254,-
 0.00000147,0.00026911,0.00000109,-0.00000366,-0.00007345,0.00001062,-0
 .00006349,-0.00006643,-0.00001119,0.00006708,0.00005012,0.00000357,-0.
 00002202,-0.00000227,0.00000045,-0.00000263,0.00005024,-0.00000343,0.0
 0002016,-0.00000260,-0.00000033,0.00000209,-0.00005463,0.00000020,0.00
 000026,0.00000121,0.00000005,-0.00000041,0.00000074,-0.00000004,0.0000
 0019,0.00003045,0.00000243,-0.00001505,-0.00000911,-0.00000318,0.00001
 914,0.00000153,0.00000022,-0.00000143,-0.00000110,-0.00000032,-0.00000
 110,-0.00000109,0.00000066,-0.00000094,0.00000017,0.00000007,-0.000000
 38,0.48727286,0.00480014,0.00359998,-0.00029882,0.00062261,0.00477270,
 0.00169074,-0.00031333,-0.00107550,-0.00005604,0.00001070,0.00749960,0
 .00191675,-0.00478224,0.00608063,0.00072312,0.00032179,-0.07215108,0.0
 0290952,0.00008866,-0.00218969,-0.00057869,0.00026023,0.00004070,-0.00
 000633,-0.00019605,-0.00004476,-0.00001219,-0.00028710,-0.00410537,-0.
 00069996,0.00016354,-0.00054598,-0.00013152,-0.00013806,-0.00009053,-0
 .00001887,0.00009608,0.00008893,0.00001451,-0.00003757,0.00002252,-0.0
 0000599,-0.00003671,-0.00001142,0.00001027,0.00002371,-0.00002147,-0.0
 0000534,0.00000087,-0.00000063,-0.00000037,0.00002516,-0.00001984,-0.0
 0000132,0.00000198,0.00000252,-0.00000050,-0.00006744,-0.00000824,-0.0
 0000758,-0.00000232,0.00000442,-0.00000171,-0.00000098,0.00000453,0.00
 000126,0.00007655,0.00000409,-0.00001130,-0.00003505,-0.00000277,0.000
 02599,-0.00000578,0.00000668,-0.00000455,0.00000041,0.00000007,-0.0000
 0025,-0.00000073,-0.00000082,-0.00000031,-0.00000235,-0.00000116,-0.00
 000039,-0.00281040,0.54067650,-0.02874599,-0.00036690,0.00515243,-0.00
 312604,0.00159280,-0.00497499,0.00139753,-0.00007111,-0.00067620,0.000
 41168,0.00202799,-0.00386417,0.02886016,0.00080637,0.00199359,-0.00112
 000,0.00291680,-0.08915152,-0.00062153,-0.00048885,0.00096884,-0.00149
 505,0.00000148,0.00007846,0.00124307,-0.00001775,0.00002297,0.00161366
 ,-0.00079503,0.00018777,-0.00069823,-0.00012894,0.00021318,0.00058781,
 -0.00002057,0.00002692,-0.00039765,0.00001570,-0.00000093,0.00015494,-
 0.00000292,0.00003932,0.00015001,0.00000686,-0.00005319,-0.00009739,-0
 .00000432,0.00000810,-0.00000212,-0.00000056,0.00000213,-0.00010489,-0
 .00000224,-0.00000790,-0.00000887,-0.00000026,0.00000450,0.00027663,-0
 .00000635,0.00002442,0.00000989,-0.00000094,0.00000976,0.00000384,0.00
 000115,-0.00000191,-0.00031172,-0.00000738,0.00004836,0.00014337,0.000
 01784,-0.00010587,0.00002333,-0.00000277,0.00002255,0.00000094,-0.0000
 0190,0.00000060,0.00000072,0.00000145,0.00000117,0.00000937,-0.0000003
 5,0.00000079,0.01205365,-0.00721936,0.58302064,0.00077151,-0.00080885,
 0.00100072,-0.00005131,-0.00101322,0.00008063,-0.00005677,0.00021669,0
 .00016021,-0.00054219,-0.00153729,0.00028692,-0.00304894,0.00063469,-0
 .00164326,-0.01418821,0.02256069,0.02198596,0.00011066,0.00071302,-0.0
 0064617,-0.00000043,0.00006032,-0.00002408,-0.00030381,-0.00002732,0.0
 0001875,0.00002326,0.00048821,0.00020017,0.00002617,0.00013979,-0.0000
 3128,-0.00016061,-0.00002242,-0.00000529,0.00020150,-0.00000694,-0.000
 00216,-0.00009240,0.00000324,-0.00000214,-0.00009206,0.00000045,0.0000
 0825,0.00005198,-0.00000603,-0.00000110,0.00000654,0.00000288,0.000001
 70,0.00005323,-0.00000435,0.00000126,0.00000763,0.00000252,-0.00000362
 ,-0.00018879,0.00000813,-0.00001752,-0.00000841,0.00000175,-0.00000743
 ,-0.00000396,0.00000021,0.00000158,0.00023054,0.00000460,-0.00002854,-
 0.00010656,-0.00001267,0.00007103,-0.00001998,0.00000339,-0.00001662,0
 .00000007,0.00000163,-0.00000029,-0.00000010,-0.00000158,-0.00000063,-
 0.00000779,0.00000015,-0.00000054,-0.07511968,0.06322123,0.05325031,0.
 08434253,0.00011872,0.00098661,-0.00034618,0.00024019,0.00012208,0.000
 12804,-0.00008018,-0.00007013,0.00017254,-0.00024703,-0.00030738,0.000
 00650,-0.00038542,-0.00047345,0.00042005,-0.00102853,0.00282703,0.0023
 8782,0.00020110,-0.00033718,0.00026774,0.00003489,-0.00000459,-0.00000
 163,-0.00001714,0.00004048,0.00001985,-0.00005408,0.00015470,0.0000306
 7,0.00001222,-0.00001991,0.00001330,0.00003230,0.00000470,0.00000557,-
 0.00006279,0.00000168,-0.00000157,0.00003044,-0.00000192,-0.00000051,0
 .00002780,0.00000243,-0.00000214,-0.00001733,-0.00000194,0.00000046,-0
 .00000285,0.00000038,-0.00000085,-0.00001695,0.00000062,-0.00000048,-0
 .00000249,-0.00000094,0.00000202,0.00006556,0.00000047,0.00000650,0.00
 000326,-0.00000053,0.00000285,0.00000061,-0.00000025,-0.00000057,-0.00
 008518,-0.00000174,0.00000736,0.00003982,0.00000411,-0.00002347,0.0000
 0825,-0.00000129,0.00000699,-0.00000020,-0.00000039,-0.00000004,-0.000
 00004,0.00000047,0.00000004,0.00000305,-0.00000002,0.,0.06224636,-0.17
 547368,-0.11530591,-0.06723095,0.18875818,-0.00226191,0.00043213,-0.00
 011211,0.00145281,0.00037555,-0.00028098,-0.00050867,-0.00010070,0.000
 80172,-0.00023372,0.00045328,-0.00027383,0.00111440,-0.00006865,0.0000
 8508,0.00198552,0.00127203,0.00006850,0.00004538,-0.00042706,-0.000119
 62,0.00004508,-0.00000910,-0.00000501,0.00006936,-0.00004354,-0.000022
 31,-0.00005050,-0.00045704,0.00025410,0.00030550,-0.00015767,-0.000000
 88,-0.00016629,0.00001099,-0.00000494,0.00006632,0.00000541,-0.0000025
 8,-0.00001865,0.00000715,-0.00001412,-0.00001570,-0.00000068,0.0000165
 0,0.00001449,-0.00000332,-0.00000409,-0.00000192,-0.00000011,-0.000002
 02,0.00001499,-0.00000133,0.00000210,-0.00000196,-0.00000190,0.0000015
 9,-0.00001756,0.00000452,0.00000062,0.00000048,-0.00000062,0.00000023,
 0.00000018,-0.00000081,-0.00000009,0.00000612,-0.00000115,-0.00000375,
 -0.00000054,0.00000041,0.00000469,0.00000078,-0.00000016,-0.00000029,-
 0.00000065,-0.00000032,0.,-0.00000055,0.00000059,-0.00000032,0.0000003
 0,-0.00000013,-0.00000025,0.05211895,-0.11508134,-0.15012080,-0.059738
 38,0.12734459,0.15960279,0.00072690,0.00044799,0.00118732,-0.00006622,
 0.00098585,0.00042296,-0.00006124,-0.00026258,0.00009334,-0.00056708,0
 .00140428,0.00069394,-0.00278504,-0.00001162,-0.00172785,-0.01433075,-
 0.02903435,0.01211202,0.00012059,-0.00047442,-0.00081124,-0.00000560,-
 0.00005142,-0.00004375,-0.00028678,0.00001495,0.00002753,0.00002224,-0
 .00054895,0.00003869,0.00002033,-0.00012765,-0.00007094,-0.00016338,0.
 00002310,0.00000196,0.00020722,0.00000748,-0.00000022,-0.00009542,-0.0
 0000232,-0.00000303,-0.00009515,-0.00000298,0.00000731,0.00005361,0.00
 000610,0.00000108,0.00000684,-0.00000338,0.00000081,0.00005488,0.00000
 377,0.00000275,0.00000784,-0.00000131,-0.00000428,-0.00019540,-0.00000
 183,-0.00001981,-0.00000867,0.00000077,-0.00000787,-0.00000413,-0.0000
 0075,0.00000148,0.00023872,0.00000488,-0.00002961,-0.00011040,-0.00001
 131,0.00007394,-0.00002071,0.00000223,-0.00001739,-0.00000010,0.000001
 78,-0.00000008,0.00000010,-0.00000152,-0.00000084,-0.00000807,0.000000
 05,-0.00000057,-0.07462054,-0.07809509,0.02640839,0.00373473,0.0095629
 1,-0.00444699,0.08382343,0.00064546,0.00089064,0.00071662,-0.00073462,
 0.00023076,0.00006041,0.00028434,0.00003848,-0.00041610,0.00022753,-0.
 00015210,0.00002927,0.00001320,-0.00030238,-0.00057941,0.00002541,0.00
 372959,-0.00096818,-0.00019054,-0.00037503,-0.00032572,-0.00004864,-0.
 00000468,0.00000089,-0.00001098,0.00003006,-0.00000146,0.00006118,0.00
 001552,-0.00012178,-0.00013992,-0.00006559,-0.00003351,0.00004207,0.00
 000897,-0.00000106,0.00002770,0.00000245,0.00000339,-0.00001924,-0.000
 00116,0.00000654,-0.00001790,0.00000324,-0.00000428,0.00000943,-0.0000
 0301,0.00000034,0.00000327,-0.00000028,0.00000151,0.00000884,0.0000003
 0,-0.00000056,0.00000295,-0.00000070,-0.00000278,-0.00005106,0.0000036
 8,-0.00000499,-0.00000309,0.00000015,-0.00000270,-0.00000061,-0.000000
 68,0.00000034,0.00007315,-0.00000020,-0.00000529,-0.00003513,-0.000002
 50,0.00001910,-0.00000765,0.00000079,-0.00000619,0.00000024,0.00000058
 ,0.00000030,0.00000043,-0.00000046,-0.00000011,-0.00000283,-0.00000009
 ,0.00000007,-0.07640481,-0.25054086,0.07560281,-0.00721175,-0.02131190
 ,0.00816287,0.08403569,0.27164427,-0.00217050,-0.00002326,-0.00004432,
 0.00132468,-0.00013576,-0.00042340,-0.00043417,-0.00016461,0.00074203,
 -0.00021294,-0.00044232,-0.00044994,0.00124174,-0.00014836,-0.00014817
 ,0.00215570,0.00012388,-0.00066487,-0.00001862,0.00030684,-0.00012497,
 0.00002795,0.00000306,-0.00000376,0.00006806,0.00006570,-0.00000826,-0
 .00001688,0.00040750,0.00034490,0.00027609,0.00012715,0.00003754,-0.00
 016419,-0.00000470,-0.00001043,0.00008259,-0.00000330,-0.00000262,-0.0
 0002805,-0.00000306,-0.00001438,-0.00002388,-0.00000350,0.00001561,0.0
 0001940,0.00000341,-0.00000320,-0.00000069,0.00000072,-0.00000141,0.00
 001952,0.00000074,0.00000245,-0.00000089,0.00000109,0.00000106,-0.0000
 3878,-0.00000308,-0.00000272,-0.00000076,0.00000060,-0.00000063,0.,0.0
 0000056,0.00000033,0.00003515,0.00000223,-0.00000529,-0.00001431,-0.00
 000299,0.00001187,-0.00000222,0.00000059,-0.00000269,-0.00000050,-0.00
 000026,-0.00000040,-0.00000051,0.00000016,0.00000008,-0.00000079,0.000
 00018,-0.00000018,0.02561397,0.07540868,-0.07479830,-0.00760882,-0.019
 55044,0.00758850,-0.03081388,-0.08311589,0.07654339,-0.00672562,-0.000
 32225,0.00208118,0.00007673,0.00026881,-0.00184272,0.00012234,-0.00004
 284,0.00030261,-0.00007189,-0.00002352,0.00004256,0.00132502,0.0003090
 9,-0.00205650,-0.01277040,0.00593825,-0.03176183,0.00006735,0.00001143
 ,0.00000168,-0.00052025,-0.00000511,0.00002071,0.00003906,-0.00000085,
 0.00000845,-0.00034585,-0.00023680,0.00157019,0.00010006,-0.00001662,0
 .00010848,-0.00009525,-0.00000274,0.00001421,0.00009913,0.00000228,-0.
 00001261,-0.00003994,0.00000148,-0.00001018,-0.00004385,-0.00000025,0.
 00000240,0.00002400,0.00000009,0.00000034,0.00000445,-0.00000048,0.000
 00298,0.00002428,-0.00000091,0.00000436,0.00000264,0.00000012,-0.00000
 029,-0.00007675,0.00000099,-0.00000691,-0.00000279,0.00000048,-0.00000
 287,-0.00000254,-0.00000008,0.00000056,0.00009350,0.00000254,-0.000014
 82,-0.00004367,-0.00000536,0.00003223,-0.00000746,0.00000100,-0.000006
 15,0.00000013,0.00000097,-0.00000012,0.00000012,-0.00000088,-0.0000004
 2,-0.00000311,0.00000002,-0.00000011,-0.08786872,0.01709756,-0.0898698
 2,0.00443162,-0.00339632,0.01022331,0.00440725,-0.00058210,0.01068651,
 0.09780043,-0.00000753,0.00124382,0.00011595,-0.00013086,0.00052372,0.
 00010053,0.00001306,-0.00000394,-0.00006486,0.00005876,-0.00013554,-0.
 00007298,-0.00033170,-0.00018767,-0.00012117,-0.00043340,-0.00110662,-
 0.00069268,-0.00003962,-0.00028004,-0.00008968,0.00000182,-0.00017053,
 -0.00003066,0.00001133,-0.00003679,-0.00000712,0.00001144,0.00033309,-
 0.00003593,-0.00002549,-0.00001037,-0.00001317,0.00002878,0.00000898,0
 .00000189,-0.00002538,0.00000683,0.00000269,0.00001060,-0.00000526,0.0
 0000179,0.00001096,-0.00000246,-0.00000218,-0.00000621,-0.00000124,0.0
 0000030,-0.00000096,0.00000103,-0.00000058,-0.00000624,0.00000161,-0.0
 0000098,-0.00000094,0.00000136,0.00000069,0.00002031,-0.00000299,0.000
 00133,0.00000062,0.00000038,0.00000089,0.00000048,0.00000053,-0.000000
 07,-0.00002564,0.00000057,0.00000446,0.00001230,0.00000050,-0.00000907
 ,0.00000210,-0.00000004,0.00000177,-0.00000008,-0.00000032,-0.00000013
 ,-0.00000011,0.00000023,0.00000025,0.00000091,0.00000016,0.00000002,0.
 01789929,-0.05652004,0.04145316,-0.01018021,0.00510327,-0.02171389,0.0
 1212965,-0.00383790,0.02714843,-0.01899802,0.05507566,0.00007713,0.000
 15195,0.00058210,0.00043266,0.00009993,0.00000005,0.00000590,-0.000037
 39,0.00019294,-0.00029174,-0.00010581,0.00028017,0.00195113,-0.0001566
 9,0.00059639,0.00166026,-0.00067517,0.00202696,0.00023184,-0.00010558,
 0.00031405,-0.00002753,-0.00003172,0.00000498,-0.00006418,-0.00000507,
 0.00000663,0.00005769,0.00000956,0.00042904,0.00008297,-0.00000538,0.0
 0006607,-0.00011800,0.00000149,-0.00000277,0.00011170,0.00000181,-0.00
 000739,-0.00004807,0.00000091,-0.00001093,-0.00004998,-0.00000122,0.00
 000628,0.00002731,-0.00000006,-0.00000231,0.00000506,-0.00000043,0.000
 00410,0.00002724,-0.00000074,0.00000591,0.00000487,0.00000066,-0.00000
 247,-0.00009317,0.00000103,-0.00000827,-0.00000299,0.00000076,-0.00000
 382,-0.00000234,-0.00000002,0.00000074,0.00012009,0.00000348,-0.000019
 78,-0.00005813,-0.00000711,0.00004157,-0.00001004,0.00000141,-0.000008
 08,0.00000056,0.00000157,-0.00000006,0.00000056,-0.00000149,-0.0000005
 0,-0.00000436,0.00000003,0.00000007,-0.09414431,0.04144188,-0.26807076
 ,-0.00728962,0.00441088,-0.01745843,-0.00307515,0.00098554,-0.00857781
 ,0.10048259,-0.04597901,0.28961535||0.00000484,-0.00000095,0.00000008,
 -0.00000919,-0.00000165,0.00000112,0.00000539,0.00000175,-0.00000177,-
 0.00000652,-0.00000073,0.00000133,0.00000217,0.00000141,0.00000187,-0.
 00001611,0.00000016,-0.00000217,-0.00000022,-0.00000029,0.00000120,0.0
 0000055,-0.00000008,0.00000111,-0.00000016,-0.00000027,-0.00000104,-0.
 00000076,-0.00000024,-0.00000155,-0.00000064,0.00000145,-0.00000113,-0
 .00000088,0.00000145,0.00000354,-0.00000157,-0.00000459,-0.00001149,0.
 00001062,-0.00000005,0.00000124,-0.00000318,0.00000253,0.00000388,-0.0
 0000375,0.00000494,-0.00000048,-0.00000115,0.00000035,0.00000022,0.000
 00204,0.00000109,-0.00000007,-0.00000167,-0.00000089,-0.00000082,-0.00
 000423,-0.00000576,0.00000398,0.00000010,-0.00000106,0.00000062,0.0000
 0123,-0.00000033,-0.00000022,0.00001504,0.00000466,0.00000172,-0.00001
 106,0.00000279,-0.00000411,-0.00000203,-0.00002306,-0.00000762,-0.0000
 0040,0.00000599,0.00000205,0.00000182,0.00000851,0.00000296,0.00000172
 ,0.00000262,0.00000600,0.00002104,-0.00000179,-0.00000145,-0.00000092,
 0.00000182,0.00000011,-0.00000156,0.00000064,0.00000167,-0.00000055,-0
 .00000040,-0.00000077|||@


 GETTING A SIMPLE ANSWER FROM A PROFESSOR IS LIKE
 GETTING A THIMBLE OF WATER FROM A FIRE HYDRANT.
     -- PROF. LEN SHAPIRO, NDSU
 Job cpu time:       0 days  0 hours 36 minutes 13.0 seconds.
 File lengths (MBytes):  RWF=    458 Int=      0 D2E=      0 Chk=     12 Scr=      1
 Normal termination of Gaussian 09 at Thu Aug 24 21:04:54 2023.
