 Entering Gaussian System, Link 0=C:\G09W\g09.exe
 Input=D:\machine learning\molecule_17.gjf
 Output=D:\machine learning\molecule_17.log
 Initial command:
 C:/G09W\l1.exe ".\Gau-4544.inp" "D:\machine learning\molecule_17.log" /scrdir=".\"
 Entering Link 1 = C:/G09W\l1.exe PID=      4944.
  
 Copyright (c) 1988,1990,1992,1993,1995,1998,2003,2009,2013,
            Gaussian, Inc.  All Rights Reserved.
  
 This is part of the Gaussian(R) 09 program.  It is based on
 the Gaussian(R) 03 system (copyright 2003, Gaussian, Inc.),
 the Gaussian(R) 98 system (copyright 1998, Gaussian, Inc.),
 the Gaussian(R) 94 system (copyright 1995, Gaussian, Inc.),
 the Gaussian 92(TM) system (copyright 1992, Gaussian, Inc.),
 the Gaussian 90(TM) system (copyright 1990, Gaussian, Inc.),
 the Gaussian 88(TM) system (copyright 1988, Gaussian, Inc.),
 the Gaussian 86(TM) system (copyright 1986, Carnegie Mellon
 University), and the Gaussian 82(TM) system (copyright 1983,
 Carnegie Mellon University). Gaussian is a federally registered
 trademark of Gaussian, Inc.
  
 This software contains proprietary and confidential information,
 including trade secrets, belonging to Gaussian, Inc.
  
 This software is provided under written license and may be
 used, copied, transmitted, or stored only in accord with that
 written license.
  
 The following legend is applicable only to US Government
 contracts under FAR:
  
                    RESTRICTED RIGHTS LEGEND
  
 Use, reproduction and disclosure by the US Government is
 subject to restrictions as set forth in subparagraphs (a)
 and (c) of the Commercial Computer Software - Restricted
 Rights clause in FAR 52.227-19.
  
 Gaussian, Inc.
 340 Quinnipiac St., Bldg. 40, Wallingford CT 06492
  
  
 ---------------------------------------------------------------
 Warning -- This program may not be used in any manner that
 competes with the business of Gaussian, Inc. or will provide
 assistance to any competitor of Gaussian, Inc.  The licensee
 of this program is prohibited from giving any competitor of
 Gaussian, Inc. access to this program.  By using this program,
 the user acknowledges that Gaussian, Inc. is engaged in the
 business of creating and licensing software in the field of
 computational chemistry and represents and warrants to the
 licensee that it is not a competitor of Gaussian, Inc. and that
 it will not use this program in any manner prohibited above.
 ---------------------------------------------------------------
  

 Cite this work as:
 Gaussian 09, Revision D.01,
 M. J. Frisch, G. W. Trucks, H. B. Schlegel, G. E. Scuseria, 
 M. A. Robb, J. R. Cheeseman, G. Scalmani, V. Barone, B. Mennucci, 
 G. A. Petersson, H. Nakatsuji, M. Caricato, X. Li, H. P. Hratchian, 
 A. F. Izmaylov, J. Bloino, G. Zheng, J. L. Sonnenberg, M. Hada, 
 M. Ehara, K. Toyota, R. Fukuda, J. Hasegawa, M. Ishida, T. Nakajima, 
 Y. Honda, O. Kitao, H. Nakai, T. Vreven, J. A. Montgomery, Jr., 
 J. E. Peralta, F. Ogliaro, M. Bearpark, J. J. Heyd, E. Brothers, 
 K. N. Kudin, V. N. Staroverov, T. Keith, R. Kobayashi, J. Normand, 
 K. Raghavachari, A. Rendell, J. C. Burant, S. S. Iyengar, J. Tomasi, 
 M. Cossi, N. Rega, J. M. Millam, M. Klene, J. E. Knox, J. B. Cross, 
 V. Bakken, C. Adamo, J. Jaramillo, R. Gomperts, R. E. Stratmann, 
 O. Yazyev, A. J. Austin, R. Cammi, C. Pomelli, J. W. Ochterski, 
 R. L. Martin, K. Morokuma, V. G. Zakrzewski, G. A. Voth, 
 P. Salvador, J. J. Dannenberg, S. Dapprich, A. D. Daniels, 
 O. Farkas, J. B. Foresman, J. V. Ortiz, J. Cioslowski, 
 and D. J. Fox, Gaussian, Inc., Wallingford CT, 2013.
 
 ******************************************
 Gaussian 09:  EM64W-G09RevD.01 13-Apr-2013
                24-Aug-2023 
 ******************************************
 %nprocshared=6
 Will use up to    6 processors via shared memory.
 %mem=8GB
 %chk=molecule_17.chk
 --------------------------------------------------
 # opt freq b3lyp/6-31+g(d) empiricaldispersion=gd3
 --------------------------------------------------
 1/14=-1,18=20,19=15,26=3,38=1/1,3;
 2/9=110,12=2,17=6,18=5,40=1/2;
 3/5=1,6=6,7=11,11=2,16=1,25=1,30=1,71=1,74=-5,124=31/1,2,3;
 4//1;
 5/5=2,38=5/2;
 6/7=2,8=2,9=2,10=2,28=1/1;
 7//1,2,3,16;
 1/14=-1,18=20,19=15,26=3/3(2);
 2/9=110/2;
 99//99;
 2/9=110/2;
 3/5=1,6=6,7=11,11=2,16=1,25=1,30=1,71=1,74=-5,124=31/1,2,3;
 4/5=5,16=3,69=1/1;
 5/5=2,38=5/2;
 7//1,2,3,16;
 1/14=-1,18=20,19=15,26=3/3(-5);
 2/9=110/2;
 6/7=2,8=2,9=2,10=2,19=2,28=1/1;
 99/9=1/99;
 -------------------
 Title Card Required
 -------------------
 Symbolic Z-matrix:
 Charge =  0 Multiplicity = 1
 C                    -5.33565  -1.71      0.0012 
 C                    -3.94049  -1.71      0.0012 
 C                    -3.24296  -0.50225   0.0012 
 C                    -3.94061   0.70626   0. 
 C                    -5.33543   0.70618  -0.00048 
 C                    -6.03304  -0.50202   0.00052 
 H                    -5.88541  -2.66232   0.00165 
 H                    -3.39099  -2.66251   0.00251 
 H                    -3.39041   1.6584   -0.00006 
 H                    -5.88556   1.65846  -0.00143 
 H                    -7.13264  -0.50184   0.00034 
 C                    -1.70296  -0.50214   0.00209 
 C                    -0.50176  -0.50205   0.00278 
 C                     1.03824  -0.50194   0.00367 
 C                     1.73486  -0.5016    1.21277 
 C                     1.73688  -0.50282  -1.20358 
 C                     3.12957  -0.50142   1.21389 
 H                     1.18404  -0.50116   2.16456 
 C                     3.13201  -0.50364  -1.20229 
 H                     1.18815  -0.50308  -2.15667 
 C                     3.82831  -0.50278   0.00632 
 H                     3.67881  -0.50152   2.16656 
 H                     3.68257  -0.50453  -2.15414 
 C                     5.36831  -0.50322   0.00786 
 O                     6.02306   0.53486   0.0069 
 H                     5.84696  -1.50521   0.00995 
 

 GradGradGradGradGradGradGradGradGradGradGradGradGradGradGradGradGradGrad
 Berny optimization.
 Initialization pass.
                           ----------------------------
                           !    Initial Parameters    !
                           ! (Angstroms and Degrees)  !
 --------------------------                            --------------------------
 ! Name  Definition              Value          Derivative Info.                !
 --------------------------------------------------------------------------------
 ! R1    R(1,2)                  1.3952         estimate D2E/DX2                !
 ! R2    R(1,6)                  1.3948         estimate D2E/DX2                !
 ! R3    R(1,7)                  1.0996         estimate D2E/DX2                !
 ! R4    R(2,3)                  1.3947         estimate D2E/DX2                !
 ! R5    R(2,8)                  1.0997         estimate D2E/DX2                !
 ! R6    R(3,4)                  1.3954         estimate D2E/DX2                !
 ! R7    R(3,12)                 1.54           estimate D2E/DX2                !
 ! R8    R(4,5)                  1.3948         estimate D2E/DX2                !
 ! R9    R(4,9)                  1.0997         estimate D2E/DX2                !
 ! R10   R(5,6)                  1.3951         estimate D2E/DX2                !
 ! R11   R(5,10)                 1.0998         estimate D2E/DX2                !
 ! R12   R(6,11)                 1.0996         estimate D2E/DX2                !
 ! R13   R(12,13)                1.2012         estimate D2E/DX2                !
 ! R14   R(13,14)                1.54           estimate D2E/DX2                !
 ! R15   R(14,15)                1.3954         estimate D2E/DX2                !
 ! R16   R(14,16)                1.3948         estimate D2E/DX2                !
 ! R17   R(15,17)                1.3947         estimate D2E/DX2                !
 ! R18   R(15,18)                1.0997         estimate D2E/DX2                !
 ! R19   R(16,19)                1.3951         estimate D2E/DX2                !
 ! R20   R(16,20)                1.0998         estimate D2E/DX2                !
 ! R21   R(17,21)                1.3952         estimate D2E/DX2                !
 ! R22   R(17,22)                1.0997         estimate D2E/DX2                !
 ! R23   R(19,21)                1.3948         estimate D2E/DX2                !
 ! R24   R(19,23)                1.0996         estimate D2E/DX2                !
 ! R25   R(21,24)                1.54           estimate D2E/DX2                !
 ! R26   R(24,25)                1.2273         estimate D2E/DX2                !
 ! R27   R(24,26)                1.1105         estimate D2E/DX2                !
 ! A1    A(2,1,6)              119.9985         estimate D2E/DX2                !
 ! A2    A(2,1,7)              119.9972         estimate D2E/DX2                !
 ! A3    A(6,1,7)              120.0043         estimate D2E/DX2                !
 ! A4    A(1,2,3)              120.0086         estimate D2E/DX2                !
 ! A5    A(1,2,8)              119.9808         estimate D2E/DX2                !
 ! A6    A(3,2,8)              120.0106         estimate D2E/DX2                !
 ! A7    A(2,3,4)              119.9942         estimate D2E/DX2                !
 ! A8    A(2,3,12)             120.0128         estimate D2E/DX2                !
 ! A9    A(4,3,12)             119.993          estimate D2E/DX2                !
 ! A10   A(3,4,5)              119.994          estimate D2E/DX2                !
 ! A11   A(3,4,9)              119.9811         estimate D2E/DX2                !
 ! A12   A(5,4,9)              120.0249         estimate D2E/DX2                !
 ! A13   A(4,5,6)              120.0047         estimate D2E/DX2                !
 ! A14   A(4,5,10)             120.0113         estimate D2E/DX2                !
 ! A15   A(6,5,10)             119.984          estimate D2E/DX2                !
 ! A16   A(1,6,5)              120.0            estimate D2E/DX2                !
 ! A17   A(1,6,11)             120.008          estimate D2E/DX2                !
 ! A18   A(5,6,11)             119.992          estimate D2E/DX2                !
 ! A19   A(13,14,15)           119.9811         estimate D2E/DX2                !
 ! A20   A(13,14,16)           120.0249         estimate D2E/DX2                !
 ! A21   A(15,14,16)           119.994          estimate D2E/DX2                !
 ! A22   A(14,15,17)           119.9942         estimate D2E/DX2                !
 ! A23   A(14,15,18)           119.993          estimate D2E/DX2                !
 ! A24   A(17,15,18)           120.0128         estimate D2E/DX2                !
 ! A25   A(14,16,19)           120.0047         estimate D2E/DX2                !
 ! A26   A(14,16,20)           120.0113         estimate D2E/DX2                !
 ! A27   A(19,16,20)           119.984          estimate D2E/DX2                !
 ! A28   A(15,17,21)           120.0086         estimate D2E/DX2                !
 ! A29   A(15,17,22)           120.0106         estimate D2E/DX2                !
 ! A30   A(21,17,22)           119.9808         estimate D2E/DX2                !
 ! A31   A(16,19,21)           120.0            estimate D2E/DX2                !
 ! A32   A(16,19,23)           119.992          estimate D2E/DX2                !
 ! A33   A(21,19,23)           120.008          estimate D2E/DX2                !
 ! A34   A(17,21,19)           119.9985         estimate D2E/DX2                !
 ! A35   A(17,21,24)           119.9972         estimate D2E/DX2                !
 ! A36   A(19,21,24)           120.0043         estimate D2E/DX2                !
 ! A37   A(21,24,25)           122.2249         estimate D2E/DX2                !
 ! A38   A(21,24,26)           115.5502         estimate D2E/DX2                !
 ! A39   A(25,24,26)           122.2249         estimate D2E/DX2                !
 ! A40   L(3,12,13,9,-1)       180.0            estimate D2E/DX2                !
 ! A41   L(12,13,14,18,-1)     180.0            estimate D2E/DX2                !
 ! A42   L(3,12,13,9,-2)       180.0            estimate D2E/DX2                !
 ! A43   L(12,13,14,18,-2)     180.0            estimate D2E/DX2                !
 ! D1    D(6,1,2,3)              0.0323         estimate D2E/DX2                !
 ! D2    D(6,1,2,8)            179.9532         estimate D2E/DX2                !
 ! D3    D(7,1,2,3)           -179.9729         estimate D2E/DX2                !
 ! D4    D(7,1,2,8)             -0.052          estimate D2E/DX2                !
 ! D5    D(2,1,6,5)              0.0149         estimate D2E/DX2                !
 ! D6    D(2,1,6,11)           179.9892         estimate D2E/DX2                !
 ! D7    D(7,1,6,5)           -179.9798         estimate D2E/DX2                !
 ! D8    D(7,1,6,11)            -0.0056         estimate D2E/DX2                !
 ! D9    D(1,2,3,4)             -0.0568         estimate D2E/DX2                !
 ! D10   D(1,2,3,12)           179.9619         estimate D2E/DX2                !
 ! D11   D(8,2,3,4)           -179.9777         estimate D2E/DX2                !
 ! D12   D(8,2,3,12)             0.041          estimate D2E/DX2                !
 ! D13   D(2,3,4,5)              0.0341         estimate D2E/DX2                !
 ! D14   D(2,3,4,9)           -179.9964         estimate D2E/DX2                !
 ! D15   D(12,3,4,5)          -179.9846         estimate D2E/DX2                !
 ! D16   D(12,3,4,9)            -0.0151         estimate D2E/DX2                !
 ! D17   D(2,3,14,15)          -89.9946         estimate D2E/DX2                !
 ! D18   D(2,3,14,16)           89.9748         estimate D2E/DX2                !
 ! D19   D(4,3,14,15)           90.0241         estimate D2E/DX2                !
 ! D20   D(4,3,14,16)          -90.0065         estimate D2E/DX2                !
 ! D21   D(3,4,5,6)              0.0131         estimate D2E/DX2                !
 ! D22   D(3,4,5,10)          -179.9995         estimate D2E/DX2                !
 ! D23   D(9,4,5,6)           -179.9563         estimate D2E/DX2                !
 ! D24   D(9,4,5,10)             0.0311         estimate D2E/DX2                !
 ! D25   D(4,5,6,1)             -0.0376         estimate D2E/DX2                !
 ! D26   D(4,5,6,11)           179.9881         estimate D2E/DX2                !
 ! D27   D(10,5,6,1)           179.975          estimate D2E/DX2                !
 ! D28   D(10,5,6,11)            0.0007         estimate D2E/DX2                !
 ! D29   D(13,14,15,17)       -179.9964         estimate D2E/DX2                !
 ! D30   D(13,14,15,18)         -0.0151         estimate D2E/DX2                !
 ! D31   D(16,14,15,17)          0.0341         estimate D2E/DX2                !
 ! D32   D(16,14,15,18)       -179.9846         estimate D2E/DX2                !
 ! D33   D(13,14,16,19)       -179.9563         estimate D2E/DX2                !
 ! D34   D(13,14,16,20)          0.031          estimate D2E/DX2                !
 ! D35   D(15,14,16,19)          0.0131         estimate D2E/DX2                !
 ! D36   D(15,14,16,20)       -179.9995         estimate D2E/DX2                !
 ! D37   D(14,15,17,21)         -0.0568         estimate D2E/DX2                !
 ! D38   D(14,15,17,22)       -179.9777         estimate D2E/DX2                !
 ! D39   D(18,15,17,21)        179.9619         estimate D2E/DX2                !
 ! D40   D(18,15,17,22)          0.041          estimate D2E/DX2                !
 ! D41   D(14,16,19,21)         -0.0376         estimate D2E/DX2                !
 ! D42   D(14,16,19,23)        179.9881         estimate D2E/DX2                !
 ! D43   D(20,16,19,21)        179.975          estimate D2E/DX2                !
 ! D44   D(20,16,19,23)          0.0007         estimate D2E/DX2                !
 ! D45   D(15,17,21,19)          0.0323         estimate D2E/DX2                !
 ! D46   D(15,17,21,24)       -179.9729         estimate D2E/DX2                !
 ! D47   D(22,17,21,19)        179.9532         estimate D2E/DX2                !
 ! D48   D(22,17,21,24)         -0.052          estimate D2E/DX2                !
 ! D49   D(16,19,21,17)          0.0149         estimate D2E/DX2                !
 ! D50   D(16,19,21,24)       -179.9798         estimate D2E/DX2                !
 ! D51   D(23,19,21,17)        179.9892         estimate D2E/DX2                !
 ! D52   D(23,19,21,24)         -0.0056         estimate D2E/DX2                !
 ! D53   D(17,21,24,25)        -90.0344         estimate D2E/DX2                !
 ! D54   D(17,21,24,26)         89.9634         estimate D2E/DX2                !
 ! D55   D(19,21,24,25)         89.9603         estimate D2E/DX2                !
 ! D56   D(19,21,24,26)        -90.0419         estimate D2E/DX2                !
 --------------------------------------------------------------------------------
 Trust Radius=3.00D-01 FncErr=1.00D-07 GrdErr=1.00D-06
 Number of steps in this run=    136 maximum allowed number of steps=    156.
 GradGradGradGradGradGradGradGradGradGradGradGradGradGradGradGradGradGrad

                          Input orientation:                          
 ---------------------------------------------------------------------
 Center     Atomic      Atomic             Coordinates (Angstroms)
 Number     Number       Type             X           Y           Z
 ---------------------------------------------------------------------
      1          6           0       -5.335654   -1.710000    0.001199
      2          6           0       -3.940494   -1.710000    0.001199
      3          6           0       -3.242956   -0.502249    0.001199
      4          6           0       -3.940610    0.706260    0.000000
      5          6           0       -5.335435    0.706182   -0.000479
      6          6           0       -6.033036   -0.502024    0.000517
      7          1           0       -5.885413   -2.662317    0.001649
      8          1           0       -3.390986   -2.662513    0.002514
      9          1           0       -3.390410    1.658403   -0.000059
     10          1           0       -5.885557    1.658463   -0.001432
     11          1           0       -7.132640   -0.501841    0.000337
     12          6           0       -1.702956   -0.502137    0.002087
     13          6           0       -0.501756   -0.502050    0.002779
     14          6           0        1.038243   -0.501937    0.003667
     15          6           0        1.734862   -0.501598    1.212774
     16          6           0        1.736876   -0.502820   -1.203581
     17          6           0        3.129574   -0.501421    1.213895
     18          1           0        1.184044   -0.501158    2.164559
     19          6           0        3.132013   -0.503639   -1.202285
     20          1           0        1.188147   -0.503080   -2.156666
     21          6           0        3.828307   -0.502783    0.006318
     22          1           0        3.678811   -0.501523    2.166565
     23          1           0        3.682566   -0.504532   -2.154136
     24          6           0        5.368306   -0.503217    0.007863
     25          8           0        6.023060    0.534859    0.006896
     26          1           0        5.846963   -1.505215    0.009950
 ---------------------------------------------------------------------
                    Distance matrix (angstroms):
                    1          2          3          4          5
     1  C    0.000000
     2  C    1.395160   0.000000
     3  C    2.416205   1.394712   0.000000
     4  C    2.790065   2.416260   1.395427   0.000000
     5  C    2.416183   2.789946   2.416356   1.394825   0.000000
     6  C    1.394829   2.416183   2.790080   2.416236   1.395138
     7  H    1.099610   2.165553   3.412986   3.889675   3.413102
     8  H    2.165414   1.099655   2.165330   3.413316   3.889601
     9  H    3.889745   3.413024   2.165678   1.099680   2.165606
    10  H    3.413055   3.889707   3.413506   2.165528   1.099761
    11  H    2.165365   3.413128   3.889684   3.412999   2.165471
    12  C    3.828241   2.542737   1.540000   2.543093   3.828178
    13  C    4.982541   3.644731   2.741200   3.644960   4.982397
    14  C    6.487371   5.123207   4.281200   5.123352   6.487168
    15  C    7.274637   5.927716   5.123142   5.927961   7.274601
    16  C    7.275264   5.928011   5.123497   5.928265   7.275075
    17  C    8.636630   7.274418   6.486892   7.274581   8.636514
    18  H    6.974804   5.692303   4.927318   5.692561   6.974860
    19  C    8.637423   7.274891   6.487573   7.275393   8.637458
    20  H    6.976605   5.693505   4.928596   5.693668   6.976287
    21  C    9.243137   7.862039   7.071265   7.862435   9.243149
    22  H    9.349321   8.012680   7.252563   8.013009   9.349399
    23  H    9.350236   8.013093   7.253160   8.013684   9.350316
    24  C   10.771774   9.386699   8.611264   9.387162  10.771851
    25  O   11.578420  10.213316   9.323877   9.965147  11.359789
    26  H   11.184495   9.789603   9.145088  10.034306  11.398965
                    6          7          8          9         10
     6  C    0.000000
     7  H    2.165331   0.000000
     8  H    3.412938   2.494427   0.000000
     9  H    3.413344   4.989355   4.320917   0.000000
    10  H    2.165516   4.320781   4.989362   2.495147   0.000000
    11  H    1.099604   2.494641   4.320704   4.320988   2.494420
    12  C    4.330080   4.707369   2.741654   2.741430   4.707691
    13  C    5.531280   5.800906   3.607665   3.607199   5.801133
    14  C    7.071280   7.252879   4.928099   4.927480   7.253025
    15  C    7.861921   8.012748   5.692855   5.692537   8.013173
    16  C    7.862658   8.013445   5.693321   5.692839   8.013600
    17  C    9.242603   9.349278   6.975347   6.974863   9.349583
    18  H    7.534542   7.702338   5.502435   5.502264   7.702905
    19  C    9.243639   9.350044   6.975801   6.975799   9.350578
    20  H    7.536506   7.704277   5.503968   5.503285   7.704193
    21  C    9.861344   9.950877   7.535425   7.535293   9.951391
    22  H    9.950464  10.041428   7.702923   7.702819  10.042056
    23  H    9.951656  10.042393   7.703451   7.703591  10.042990
    24  C   11.401344  11.458968   9.021518   9.021517  11.459598
    25  O   12.100604  12.330194   9.942206   9.480286  11.961510
    26  H   11.922284  11.789300   9.310161   9.764099  12.151584
                   11         12         13         14         15
    11  H    0.000000
    12  C    5.429684   0.000000
    13  C    6.630884   1.201200   0.000000
    14  C    8.170884   2.741200   1.540000   0.000000
    15  C    8.950005   3.644771   2.542941   1.395427   0.000000
    16  C    8.950851   3.645008   2.542987   1.394825   2.416356
    17  C   10.333719   4.982151   3.827971   2.416260   1.394712
    18  H    8.593666   3.607085   2.741390   2.165806   1.099680
    19  C   10.334864   4.982715   3.828376   2.416236   2.790080
    20  H    8.595822   3.608142   2.742076   2.165528   3.413506
    21  C   10.960948   5.531265   4.330065   2.790065   2.416205
    22  H   11.026333   5.800723   4.707347   3.413316   2.165330
    23  H   11.027712   5.801133   4.707530   3.412999   3.889684
    24  C   12.500948   7.071265   5.870065   4.330065   3.828019
    25  O   13.196486   7.795301   6.606696   5.091498   4.573513
    26  H   13.018331   7.616266   6.427490   4.912269   4.400387
                   16         17         18         19         20
    16  C    0.000000
    17  C    2.789946   0.000000
    18  H    3.413209   2.165375   0.000000
    19  C    1.395138   2.416183   3.889760   0.000000
    20  H    1.099761   3.889707   4.321228   2.165516   0.000000
    21  C    2.416183   1.395160   3.413229   1.394829   3.413055
    22  H    3.889601   1.099655   2.494768   3.412938   4.989362
    23  H    2.165471   3.413128   4.989364   1.099604   2.494420
    24  C    3.828169   2.542919   4.707376   2.542728   4.707326
    25  O    4.573118   3.301967   5.398603   3.301326   5.397657
    26  H    4.401166   3.137083   5.233859   3.137454   5.234793
                   21         22         23         24         25
    21  C    0.000000
    22  H    2.165414   0.000000
    23  H    2.165365   4.320704   0.000000
    24  C    1.540000   2.741238   2.741526   0.000000
    25  O    2.427683   3.351680   3.350867   1.227317   0.000000
    26  H    2.253853   3.218581   3.220132   1.110457   2.047663
                   26
    26  H    0.000000
 Stoichiometry    C15H10O
 Framework group  C1[X(C15H10O)]
 Deg. of freedom    72
 Full point group                 C1      NOp   1
 Largest Abelian subgroup         C1      NOp   1
 Largest concise Abelian subgroup C1      NOp   1
                         Standard orientation:                         
 ---------------------------------------------------------------------
 Center     Atomic      Atomic             Coordinates (Angstroms)
 Number     Number       Type             X           Y           Z
 ---------------------------------------------------------------------
      1          6           0        5.161732   -1.136027   -0.000397
      2          6           0        3.767083   -1.173785    0.000510
      3          6           0        3.037115    0.014646    0.000302
      4          6           0        3.701807    1.241594    0.000386
      5          6           0        5.096123    1.279264   -0.000042
      6          6           0        5.826166    0.090380   -0.000830
      7          1           0        5.737062   -2.073117   -0.000683
      8          1           0        3.243554   -2.140821    0.000074
      9          1           0        3.126041    2.178498    0.000281
     10          1           0        5.620272    2.246085    0.000032
     11          1           0        6.925363    0.120322   -0.001365
     12          6           0        1.497676   -0.026919    0.000416
     13          6           0        0.296913   -0.059341    0.000504
     14          6           0       -1.242526   -0.100907    0.000617
     15          6           0       -1.939666   -0.120103   -1.208036
     16          6           0       -1.940112   -0.120014    1.208320
     17          6           0       -3.333872   -0.157672   -1.208250
     18          1           0       -1.389666   -0.105294   -2.160180
     19          6           0       -3.334716   -0.158590    1.207932
     20          1           0       -1.390971   -0.104885    2.161048
     21          6           0       -4.031545   -0.177261   -0.000219
     22          1           0       -3.883511   -0.173177   -2.160563
     23          1           0       -3.884438   -0.173845    2.160141
     24          6           0       -5.570969   -0.219373   -0.000763
     25          8           0       -6.253577    0.800604    0.000062
     26          1           0       -6.022335   -1.233959   -0.001989
 ---------------------------------------------------------------------
 Rotational constants (GHZ):      2.6340109      0.1497867      0.1491628
 Standard basis: 6-31+G(d) (6D, 7F)
 There are   324 symmetry adapted cartesian basis functions of A   symmetry.
 There are   324 symmetry adapted basis functions of A   symmetry.
   324 basis functions,   552 primitive gaussians,   324 cartesian basis functions
    54 alpha electrons       54 beta electrons
       nuclear repulsion energy       840.5827767436 Hartrees.
 NAtoms=   26 NActive=   26 NUniq=   26 SFac= 1.00D+00 NAtFMM=   60 NAOKFM=F Big=F
 Integral buffers will be    131072 words long.
 Raffenetti 2 integral format.
 Two-electron integral symmetry is turned on.
 Nuclear repulsion after empirical dispersion term =      840.5659598051 Hartrees.
 One-electron integrals computed using PRISM.
 NBasis=   324 RedAO= T EigKep=  1.50D-06  NBF=   324
 NBsUse=   321 1.00D-06 EigRej=  7.10D-07 NBFU=   321
 ExpMin= 4.38D-02 ExpMax= 5.48D+03 ExpMxC= 8.25D+02 IAcc=2 IRadAn=         4 AccDes= 0.00D+00
 Harris functional with IExCor=  402 and IRadAn=       4 diagonalized for initial guess.
 HarFok:  IExCor=  402 AccDes= 0.00D+00 IRadAn=         4 IDoV= 1 UseB2=F ITyADJ=14
 ICtDFT=  3500011 ScaDFX=  1.000000  1.000000  1.000000  1.000000
 FoFCou: FMM=F IPFlag=           0 FMFlag=      100000 FMFlg1=           0
         NFxFlg=           0 DoJE=T BraDBF=F KetDBF=T FulRan=T
         wScrn=  0.000000 ICntrl=     500 IOpCl=  0 I1Cent=   200000004 NGrid=           0
         NMat0=    1 NMatS0=      1 NMatT0=    0 NMatD0=    1 NMtDS0=    0 NMtDT0=    0
 Petite list used in FoFCou.
 Requested convergence on RMS density matrix=1.00D-08 within 128 cycles.
 Requested convergence on MAX density matrix=1.00D-06.
 Requested convergence on             energy=1.00D-06.
 No special actions if energy rises.
 SCF Done:  E(RB3LYP) =  -652.797686179     A.U. after   15 cycles
            NFock= 15  Conv=0.86D-08     -V/T= 2.0105

 **********************************************************************

            Population analysis using the SCF density.

 **********************************************************************

 Orbital symmetries:
       Occupied  (A) (A) (A) (A) (A) (A) (A) (A) (A) (A) (A) (A)
                 (A) (A) (A) (A) (A) (A) (A) (A) (A) (A) (A) (A)
                 (A) (A) (A) (A) (A) (A) (A) (A) (A) (A) (A) (A)
                 (A) (A) (A) (A) (A) (A) (A) (A) (A) (A) (A) (A)
                 (A) (A) (A) (A) (A) (A)
       Virtual   (A) (A) (A) (A) (A) (A) (A) (A) (A) (A) (A) (A)
                 (A) (A) (A) (A) (A) (A) (A) (A) (A) (A) (A) (A)
                 (A) (A) (A) (A) (A) (A) (A) (A) (A) (A) (A) (A)
                 (A) (A) (A) (A) (A) (A) (A) (A) (A) (A) (A) (A)
                 (A) (A) (A) (A) (A) (A) (A) (A) (A) (A) (A) (A)
                 (A) (A) (A) (A) (A) (A) (A) (A) (A) (A) (A) (A)
                 (A) (A) (A) (A) (A) (A) (A) (A) (A) (A) (A) (A)
                 (A) (A) (A) (A) (A) (A) (A) (A) (A) (A) (A) (A)
                 (A) (A) (A) (A) (A) (A) (A) (A) (A) (A) (A) (A)
                 (A) (A) (A) (A) (A) (A) (A) (A) (A) (A) (A) (A)
                 (A) (A) (A) (A) (A) (A) (A) (A) (A) (A) (A) (A)
                 (A) (A) (A) (A) (A) (A) (A) (A) (A) (A) (A) (A)
                 (A) (A) (A) (A) (A) (A) (A) (A) (A) (A) (A) (A)
                 (A) (A) (A) (A) (A) (A) (A) (A) (A) (A) (A) (A)
                 (A) (A) (A) (A) (A) (A) (A) (A) (A) (A) (A) (A)
                 (A) (A) (A) (A) (A) (A) (A) (A) (A) (A) (A) (A)
                 (A) (A) (A) (A) (A) (A) (A) (A) (A) (A) (A) (A)
                 (A) (A) (A) (A) (A) (A) (A) (A) (A) (A) (A) (A)
                 (A) (A) (A) (A) (A) (A) (A) (A) (A) (A) (A) (A)
                 (A) (A) (A) (A) (A) (A) (A) (A) (A) (A) (A) (A)
                 (A) (A) (A) (A) (A) (A) (A) (A) (A) (A) (A) (A)
                 (A) (A) (A) (A) (A) (A) (A) (A) (A) (A) (A) (A)
                 (A) (A) (A)
 The electronic state is 1-A.
 Alpha  occ. eigenvalues --  -19.18209 -10.30628 -10.24485 -10.23831 -10.22631
 Alpha  occ. eigenvalues --  -10.22079 -10.22077 -10.21897 -10.21896 -10.21109
 Alpha  occ. eigenvalues --  -10.21099 -10.20961 -10.20930 -10.20880 -10.20766
 Alpha  occ. eigenvalues --  -10.20508  -1.06382  -0.88633  -0.87486  -0.80085
 Alpha  occ. eigenvalues --   -0.77936  -0.77179  -0.76192  -0.73788  -0.66717
 Alpha  occ. eigenvalues --   -0.63281  -0.62296  -0.62001  -0.59619  -0.55396
 Alpha  occ. eigenvalues --   -0.53716  -0.50348  -0.48555  -0.48171  -0.46797
 Alpha  occ. eigenvalues --   -0.46754  -0.45635  -0.44505  -0.44476  -0.43586
 Alpha  occ. eigenvalues --   -0.40071  -0.39683  -0.39535  -0.38957  -0.36969
 Alpha  occ. eigenvalues --   -0.36761  -0.36224  -0.31660  -0.31314  -0.27792
 Alpha  occ. eigenvalues --   -0.27751  -0.26863  -0.25476  -0.25063
 Alpha virt. eigenvalues --   -0.06209  -0.04593  -0.03815  -0.03111  -0.02382
 Alpha virt. eigenvalues --   -0.00281   0.00428   0.01780   0.01969   0.02165
 Alpha virt. eigenvalues --    0.02730   0.03858   0.04384   0.04563   0.04919
 Alpha virt. eigenvalues --    0.05584   0.05695   0.06197   0.06785   0.07073
 Alpha virt. eigenvalues --    0.07255   0.07828   0.08117   0.08286   0.08928
 Alpha virt. eigenvalues --    0.09082   0.10526   0.10684   0.10812   0.11637
 Alpha virt. eigenvalues --    0.12343   0.12527   0.13665   0.13936   0.14074
 Alpha virt. eigenvalues --    0.14197   0.14547   0.14893   0.15215   0.15434
 Alpha virt. eigenvalues --    0.15608   0.15719   0.16058   0.16718   0.17871
 Alpha virt. eigenvalues --    0.18399   0.18488   0.18890   0.19353   0.19869
 Alpha virt. eigenvalues --    0.20662   0.20907   0.21062   0.21084   0.21196
 Alpha virt. eigenvalues --    0.21584   0.22409   0.22768   0.23048   0.23576
 Alpha virt. eigenvalues --    0.23670   0.24700   0.25427   0.25675   0.25860
 Alpha virt. eigenvalues --    0.26298   0.26897   0.26997   0.27678   0.28124
 Alpha virt. eigenvalues --    0.28187   0.28446   0.28535   0.29109   0.29979
 Alpha virt. eigenvalues --    0.30535   0.31620   0.32304   0.33065   0.33116
 Alpha virt. eigenvalues --    0.33339   0.33667   0.34459   0.35243   0.36202
 Alpha virt. eigenvalues --    0.36833   0.39062   0.40633   0.41528   0.42661
 Alpha virt. eigenvalues --    0.45293   0.47598   0.55434   0.56433   0.59720
 Alpha virt. eigenvalues --    0.59842   0.64213   0.67046   0.67189   0.67594
 Alpha virt. eigenvalues --    0.67619   0.69308   0.69555   0.69912   0.70786
 Alpha virt. eigenvalues --    0.72014   0.72054   0.72233   0.72499   0.72706
 Alpha virt. eigenvalues --    0.73349   0.73511   0.74745   0.75284   0.76595
 Alpha virt. eigenvalues --    0.77234   0.77294   0.77379   0.77856   0.78219
 Alpha virt. eigenvalues --    0.80309   0.81714   0.82073   0.82759   0.83053
 Alpha virt. eigenvalues --    0.84340   0.85257   0.85953   0.86316   0.90381
 Alpha virt. eigenvalues --    0.91773   0.92039   0.94065   0.94131   0.94201
 Alpha virt. eigenvalues --    0.96276   0.97577   0.97969   0.99438   0.99738
 Alpha virt. eigenvalues --    1.00949   1.01827   1.04372   1.07778   1.07894
 Alpha virt. eigenvalues --    1.09374   1.11596   1.13086   1.15328   1.16460
 Alpha virt. eigenvalues --    1.17279   1.18398   1.18676   1.19412   1.22212
 Alpha virt. eigenvalues --    1.23458   1.23653   1.24304   1.25743   1.27167
 Alpha virt. eigenvalues --    1.28321   1.28849   1.31253   1.34149   1.39037
 Alpha virt. eigenvalues --    1.40549   1.41500   1.41970   1.43571   1.43643
 Alpha virt. eigenvalues --    1.43956   1.44000   1.45836   1.47584   1.48295
 Alpha virt. eigenvalues --    1.49408   1.50879   1.51876   1.52556   1.54682
 Alpha virt. eigenvalues --    1.58218   1.58573   1.63841   1.69184   1.75951
 Alpha virt. eigenvalues --    1.76604   1.79609   1.80551   1.82388   1.84262
 Alpha virt. eigenvalues --    1.84992   1.86293   1.87711   1.89863   1.90247
 Alpha virt. eigenvalues --    1.92300   1.93616   1.94216   1.96514   1.96711
 Alpha virt. eigenvalues --    1.96982   1.99136   2.05863   2.07467   2.07840
 Alpha virt. eigenvalues --    2.09755   2.11335   2.13098   2.13303   2.14190
 Alpha virt. eigenvalues --    2.15729   2.16651   2.17404   2.18537   2.20392
 Alpha virt. eigenvalues --    2.25538   2.28152   2.28822   2.29248   2.29623
 Alpha virt. eigenvalues --    2.30251   2.32723   2.41168   2.47708   2.49440
 Alpha virt. eigenvalues --    2.54241   2.55425   2.58568   2.58895   2.60026
 Alpha virt. eigenvalues --    2.60612   2.63666   2.63882   2.64530   2.65220
 Alpha virt. eigenvalues --    2.72523   2.73387   2.73904   2.76118   2.79223
 Alpha virt. eigenvalues --    2.80310   2.86741   2.90009   2.92761   2.97368
 Alpha virt. eigenvalues --    3.04052   3.10542   3.11348   3.29631   3.39004
 Alpha virt. eigenvalues --    3.54375   4.19455   4.21077   4.22004   4.22277
 Alpha virt. eigenvalues --    4.23155   4.23418   4.24181   4.30675   4.34078
 Alpha virt. eigenvalues --    4.37660   4.38407   4.42930   4.55024   4.62011
 Alpha virt. eigenvalues --    4.74412   4.87766
          Condensed to atoms (all electrons):
               1          2          3          4          5          6
     1  C    8.342658  -5.417608   0.567100   3.477822  -1.493531   0.642605
     2  C   -5.417608  23.949166  -2.786197 -13.561568   3.403451  -0.345581
     3  C    0.567100  -2.786197  11.159142  -2.141998   0.368601  -0.135869
     4  C    3.477822 -13.561568  -2.141998  23.669992  -5.203757  -0.329433
     5  C   -1.493531   3.403451   0.368601  -5.203757   8.223661   0.639337
     6  C    0.642605  -0.345581  -0.135869  -0.329433   0.639337   5.605789
     7  H    0.283132  -0.014195  -0.004637  -0.001836   0.003796   0.033177
     8  H   -0.065195   0.306213  -0.000722   0.021079  -0.004925   0.003129
     9  H   -0.005307   0.023676   0.003717   0.298691  -0.062272   0.003176
    10  H    0.003642  -0.001421  -0.003917  -0.015305   0.283887   0.032843
    11  H    0.000715   0.009497   0.003404   0.006941   0.001865   0.269397
    12  C   -0.346917   0.876552  -1.350705   0.462833  -0.226264  -0.199041
    13  C    0.020862  -0.232547   0.634035  -0.272690   0.040583   0.029528
    14  C    0.013201   0.018798  -0.054852  -0.143266   0.041283  -0.019639
    15  C    0.000312   0.025535  -0.027444  -0.006188   0.004870   0.001220
    16  C    0.000389   0.024483  -0.028414  -0.005491   0.004964   0.001213
    17  C    0.001161  -0.004475   0.009482   0.017885  -0.001709   0.000440
    18  H   -0.000127  -0.000379   0.001231  -0.000465  -0.000085  -0.000001
    19  C    0.001163  -0.004775   0.009406   0.018109  -0.001696   0.000432
    20  H   -0.000127  -0.000379   0.001236  -0.000462  -0.000084  -0.000001
    21  C    0.001026   0.000976   0.001399  -0.007151   0.002264  -0.000456
    22  H   -0.000001  -0.000006  -0.000029   0.000005  -0.000001   0.000000
    23  H   -0.000001  -0.000006  -0.000029   0.000005  -0.000001   0.000000
    24  C    0.000123  -0.000316   0.001769  -0.000116   0.000098  -0.000026
    25  O    0.000000   0.000000   0.000002  -0.000002   0.000000   0.000000
    26  H    0.000000   0.000000  -0.000001   0.000000   0.000000   0.000000
               7          8          9         10         11         12
     1  C    0.283132  -0.065195  -0.005307   0.003642   0.000715  -0.346917
     2  C   -0.014195   0.306213   0.023676  -0.001421   0.009497   0.876552
     3  C   -0.004637  -0.000722   0.003717  -0.003917   0.003404  -1.350705
     4  C   -0.001836   0.021079   0.298691  -0.015305   0.006941   0.462833
     5  C    0.003796  -0.004925  -0.062272   0.283887   0.001865  -0.226264
     6  C    0.033177   0.003129   0.003176   0.032843   0.269397  -0.199041
     7  H    0.530213  -0.004524   0.000015  -0.000154  -0.004693  -0.005175
     8  H   -0.004524   0.522558  -0.000141   0.000015  -0.000138   0.025540
     9  H    0.000015  -0.000141   0.521337  -0.004507  -0.000138   0.023274
    10  H   -0.000154   0.000015  -0.004507   0.529798  -0.004690  -0.005434
    11  H   -0.004693  -0.000138  -0.000138  -0.004690   0.534564   0.000358
    12  C   -0.005175   0.025540   0.023274  -0.005434   0.000358   6.872369
    13  C   -0.000215   0.001296   0.001588  -0.000171   0.000280  -0.149644
    14  C   -0.000058   0.000595   0.000766  -0.000066  -0.000010   0.492531
    15  C   -0.000004  -0.000460  -0.000478  -0.000003   0.000001  -0.307387
    16  C   -0.000004  -0.000443  -0.000465  -0.000003   0.000001  -0.313714
    17  C   -0.000001  -0.000143  -0.000140  -0.000001   0.000000   0.081538
    18  H    0.000000   0.000000   0.000000   0.000000   0.000000  -0.000304
    19  C   -0.000001  -0.000142  -0.000139  -0.000001   0.000000   0.082214
    20  H    0.000000   0.000000   0.000000   0.000000   0.000000  -0.000289
    21  C    0.000000  -0.000039  -0.000029   0.000000   0.000000  -0.091422
    22  H    0.000000   0.000000   0.000000   0.000000   0.000000   0.000596
    23  H    0.000000   0.000000   0.000000   0.000000   0.000000   0.000591
    24  C    0.000000  -0.000001  -0.000001   0.000000   0.000000  -0.019852
    25  O    0.000000   0.000000   0.000000   0.000000   0.000000  -0.000393
    26  H    0.000000   0.000000   0.000000   0.000000   0.000000  -0.000090
              13         14         15         16         17         18
     1  C    0.020862   0.013201   0.000312   0.000389   0.001161  -0.000127
     2  C   -0.232547   0.018798   0.025535   0.024483  -0.004475  -0.000379
     3  C    0.634035  -0.054852  -0.027444  -0.028414   0.009482   0.001231
     4  C   -0.272690  -0.143266  -0.006188  -0.005491   0.017885  -0.000465
     5  C    0.040583   0.041283   0.004870   0.004964  -0.001709  -0.000085
     6  C    0.029528  -0.019639   0.001220   0.001213   0.000440  -0.000001
     7  H   -0.000215  -0.000058  -0.000004  -0.000004  -0.000001   0.000000
     8  H    0.001296   0.000595  -0.000460  -0.000443  -0.000143   0.000000
     9  H    0.001588   0.000766  -0.000478  -0.000465  -0.000140   0.000000
    10  H   -0.000171  -0.000066  -0.000003  -0.000003  -0.000001   0.000000
    11  H    0.000280  -0.000010   0.000001   0.000001   0.000000   0.000000
    12  C   -0.149644   0.492531  -0.307387  -0.313714   0.081538  -0.000304
    13  C    6.400659  -0.929473   0.379233   0.373203  -0.177419   0.021709
    14  C   -0.929473  11.612120  -2.258946  -2.291532   0.489977   0.007053
    15  C    0.379233  -2.258946  21.718029 -11.407059  -5.503705   0.318574
    16  C    0.373203  -2.291532 -11.407059  21.748534   2.958001   0.024091
    17  C   -0.177419   0.489977  -5.503705   2.958001  10.421215  -0.075838
    18  H    0.021709   0.007053   0.318574   0.024091  -0.075838   0.512114
    19  C   -0.176153   0.499096   2.953168  -5.501656  -2.309274  -0.009036
    20  H    0.021770   0.007264   0.024139   0.318494  -0.009095  -0.000142
    21  C   -0.105754  -0.940998   0.286397   0.289700   0.032167   0.000660
    22  H   -0.002944  -0.006869  -0.033921  -0.027305   0.216815  -0.004018
    23  H   -0.002956  -0.006890  -0.027257  -0.033710   0.060351   0.000016
    24  C    0.024233  -0.287329   0.007559   0.009183  -0.032303   0.001334
    25  O    0.000664  -0.017997   0.003464   0.003460  -0.085550  -0.000001
    26  H    0.000132  -0.007927   0.025122   0.025009  -0.016430   0.000004
              19         20         21         22         23         24
     1  C    0.001163  -0.000127   0.001026  -0.000001  -0.000001   0.000123
     2  C   -0.004775  -0.000379   0.000976  -0.000006  -0.000006  -0.000316
     3  C    0.009406   0.001236   0.001399  -0.000029  -0.000029   0.001769
     4  C    0.018109  -0.000462  -0.007151   0.000005   0.000005  -0.000116
     5  C   -0.001696  -0.000084   0.002264  -0.000001  -0.000001   0.000098
     6  C    0.000432  -0.000001  -0.000456   0.000000   0.000000  -0.000026
     7  H   -0.000001   0.000000   0.000000   0.000000   0.000000   0.000000
     8  H   -0.000142   0.000000  -0.000039   0.000000   0.000000  -0.000001
     9  H   -0.000139   0.000000  -0.000029   0.000000   0.000000  -0.000001
    10  H   -0.000001   0.000000   0.000000   0.000000   0.000000   0.000000
    11  H    0.000000   0.000000   0.000000   0.000000   0.000000   0.000000
    12  C    0.082214  -0.000289  -0.091422   0.000596   0.000591  -0.019852
    13  C   -0.176153   0.021770  -0.105754  -0.002944  -0.002956   0.024233
    14  C    0.499096   0.007264  -0.940998  -0.006869  -0.006890  -0.287329
    15  C    2.953168   0.024139   0.286397  -0.033921  -0.027257   0.007559
    16  C   -5.501656   0.318494   0.289700  -0.027305  -0.033710   0.009183
    17  C   -2.309274  -0.009095   0.032167   0.216815   0.060351  -0.032303
    18  H   -0.009036  -0.000142   0.000660  -0.004018   0.000016   0.001334
    19  C   10.417059  -0.076012   0.031597   0.060566   0.217056  -0.034042
    20  H   -0.076012   0.512127   0.000630   0.000016  -0.004019   0.001337
    21  C    0.031597   0.000630   7.090227   0.098794   0.098547  -0.689407
    22  H    0.060566   0.000016   0.098794   0.523124  -0.000148  -0.019501
    23  H    0.217056  -0.004019   0.098547  -0.000148   0.523050  -0.019478
    24  C   -0.034042   0.001337  -0.689407  -0.019501  -0.019478   6.167777
    25  O   -0.085339  -0.000001   0.058033   0.000288   0.000294   0.518665
    26  H   -0.016102   0.000004  -0.123511   0.000588   0.000586   0.386269
              25         26
     1  C    0.000000   0.000000
     2  C    0.000000   0.000000
     3  C    0.000002  -0.000001
     4  C   -0.000002   0.000000
     5  C    0.000000   0.000000
     6  C    0.000000   0.000000
     7  H    0.000000   0.000000
     8  H    0.000000   0.000000
     9  H    0.000000   0.000000
    10  H    0.000000   0.000000
    11  H    0.000000   0.000000
    12  C   -0.000393  -0.000090
    13  C    0.000664   0.000132
    14  C   -0.017997  -0.007927
    15  C    0.003464   0.025122
    16  C    0.003460   0.025009
    17  C   -0.085550  -0.016430
    18  H   -0.000001   0.000004
    19  C   -0.085339  -0.016102
    20  H   -0.000001   0.000004
    21  C    0.058033  -0.123511
    22  H    0.000288   0.000588
    23  H    0.000294   0.000586
    24  C    0.518665   0.386269
    25  O    7.963907  -0.063834
    26  H   -0.063834   0.612712
 Mulliken charges:
               1
     1  C   -0.027098
     2  C   -0.268893
     3  C   -0.225711
     4  C   -0.283635
     5  C   -0.024337
     6  C   -0.232239
     7  H    0.185163
     8  H    0.196447
     9  H    0.197376
    10  H    0.185487
    11  H    0.182647
    12  C    0.098238
    13  C    0.100192
    14  C   -0.216831
    15  C   -0.174771
    16  C   -0.170928
    17  C   -0.072950
    18  H    0.203611
    19  C   -0.075497
    20  H    0.203595
    21  C   -0.033650
    22  H    0.193950
    23  H    0.193997
    24  C   -0.015975
    25  O   -0.295659
    26  H    0.177471
 Sum of Mulliken charges =   0.00000
 Mulliken charges with hydrogens summed into heavy atoms:
               1
     1  C    0.158065
     2  C   -0.072445
     3  C   -0.225711
     4  C   -0.086259
     5  C    0.161150
     6  C   -0.049593
    12  C    0.098238
    13  C    0.100192
    14  C   -0.216831
    15  C    0.028839
    16  C    0.032667
    17  C    0.121000
    19  C    0.118500
    21  C   -0.033650
    24  C    0.161496
    25  O   -0.295659
 Electronic spatial extent (au):  <R**2>=           6843.6212
 Charge=              0.0000 electrons
 Dipole moment (field-independent basis, Debye):
    X=              2.4464    Y=             -1.9533    Z=             -0.0022  Tot=              3.1305
 Quadrupole moment (field-independent basis, Debye-Ang):
   XX=            -95.0120   YY=            -91.6543   ZZ=            -89.9702
   XY=             13.1290   XZ=              0.0012   YZ=              0.0023
 Traceless Quadrupole moment (field-independent basis, Debye-Ang):
   XX=             -2.7998   YY=              0.5579   ZZ=              2.2420
   XY=             13.1290   XZ=              0.0012   YZ=              0.0023
 Octapole moment (field-independent basis, Debye-Ang**2):
  XXX=            203.4119  YYY=              3.1552  ZZZ=              0.0049  XYY=             25.8652
  XXY=            -79.5776  XXZ=             -0.0801  XZZ=            -44.9505  YZZ=              0.2884
  YYZ=             -0.0045  XYZ=              0.0049
 Hexadecapole moment (field-independent basis, Debye-Ang**3):
 XXXX=          -9162.6863 YYYY=           -380.3157 ZZZZ=           -339.1302 XXXY=            496.7291
 XXXZ=              0.0243 YYYX=             -4.2918 YYYZ=              0.0132 ZZZX=             -0.0211
 ZZZY=              0.0045 XXYY=          -1477.8522 XXZZ=          -1538.5014 YYZZ=           -143.1385
 XXYZ=              0.0439 YYXZ=              0.0024 ZZXY=             -5.1542
 N-N= 8.405659598051D+02 E-N=-3.193820349727D+03  KE= 6.459867145900D+02
 Calling FoFJK, ICntrl=      2127 FMM=F ISym2X=0 I1Cent= 0 IOpClX= 0 NMat=1 NMatS=1 NMatT=0.
 ***** Axes restored to original set *****
 -------------------------------------------------------------------
 Center     Atomic                   Forces (Hartrees/Bohr)
 Number     Number              X              Y              Z
 -------------------------------------------------------------------
      1        6          -0.003791664   -0.008301229   -0.000015272
      2        6           0.002629971   -0.016124352    0.000125105
      3        6           0.060610369    0.000421840   -0.000018443
      4        6           0.003060051    0.015769884    0.000028025
      5        6          -0.004044079    0.008253385    0.000012809
      6        6          -0.012319793    0.000112804   -0.000055929
      7        1           0.004748635    0.007016078    0.000001460
      8        1          -0.003736224    0.008274243   -0.000046903
      9        1          -0.003786615   -0.008280867   -0.000016808
     10        1           0.004823601   -0.007091928    0.000014802
     11        1           0.008187986   -0.000008421    0.000006779
     12        6          -0.081840952   -0.000047664   -0.000049941
     13        6           0.082469139   -0.000046969    0.000013585
     14        6          -0.061914771   -0.000012744    0.000304714
     15        6          -0.002328486    0.000171009    0.014517673
     16        6          -0.001967085    0.000079987   -0.014914281
     17        6           0.003226055   -0.000962238    0.009781307
     18        1           0.004189095    0.000158350   -0.008338058
     19        6           0.002909842   -0.000800766   -0.009839768
     20        1           0.004171297    0.000154571    0.008398707
     21        6           0.021310058   -0.000155975    0.000119958
     22        1          -0.004657285    0.000293514   -0.006833999
     23        1          -0.004628685    0.000260806    0.006819918
     24        6          -0.010026280    0.022562457   -0.000038543
     25        8          -0.010071663   -0.023913415    0.000021208
     26        1           0.002777484    0.002217639    0.000001893
 -------------------------------------------------------------------
 Cartesian Forces:  Max     0.082469139 RMS     0.017883298

 GradGradGradGradGradGradGradGradGradGradGradGradGradGradGradGradGradGrad
 Berny optimization.
 FormGI is forming the generalized inverse of G from B-inverse, IUseBI=4.
 Internal  Forces:  Max     0.057010411 RMS     0.008453518
 Search for a local minimum.
 Step number   1 out of a maximum of  136
 All quantities printed in internal units (Hartrees-Bohrs-Radians)
 Mixed Optimization -- RFO/linear search
 Second derivative matrix not updated -- first step.
 ITU=  0
     Eigenvalues ---    0.00230   0.00235   0.00236   0.00237   0.00237
     Eigenvalues ---    0.01545   0.01573   0.01675   0.02152   0.02152
     Eigenvalues ---    0.02153   0.02154   0.02154   0.02155   0.02155
     Eigenvalues ---    0.02155   0.02155   0.02155   0.02155   0.02156
     Eigenvalues ---    0.02156   0.02156   0.02157   0.04083   0.04387
     Eigenvalues ---    0.16000   0.16000   0.16000   0.16000   0.16000
     Eigenvalues ---    0.16000   0.16000   0.16000   0.16000   0.16000
     Eigenvalues ---    0.22000   0.22000   0.22000   0.22000   0.22982
     Eigenvalues ---    0.23486   0.24000   0.25000   0.25000   0.25000
     Eigenvalues ---    0.28519   0.28519   0.28519   0.32552   0.33709
     Eigenvalues ---    0.33709   0.33718   0.33718   0.33720   0.33720
     Eigenvalues ---    0.33725   0.33726   0.33726   0.42116   0.42121
     Eigenvalues ---    0.42305   0.42482   0.46412   0.46412   0.46453
     Eigenvalues ---    0.46453   0.46466   0.46466   0.46497   0.46497
     Eigenvalues ---    0.92213   1.04222
 RFO step:  Lambda=-2.56207219D-02 EMin= 2.30000000D-03
 Linear search not attempted -- first point.
 Iteration  1 RMS(Cart)=  0.07638456 RMS(Int)=  0.00004882
 Iteration  2 RMS(Cart)=  0.00005722 RMS(Int)=  0.00000303
 Iteration  3 RMS(Cart)=  0.00000000 RMS(Int)=  0.00000303
 Variable       Old X    -DE/DX   Delta X   Delta X   Delta X     New X
                                 (Linear)    (Quad)   (Total)
    R1        2.63647   0.00112   0.00000   0.00230   0.00230   2.63877
    R2        2.63584   0.00382   0.00000   0.00752   0.00753   2.64337
    R3        2.07796  -0.00845   0.00000  -0.02329  -0.02329   2.05468
    R4        2.63562   0.00625   0.00000   0.01300   0.01300   2.64863
    R5        2.07805  -0.00903   0.00000  -0.02490  -0.02490   2.05315
    R6        2.63697   0.00580   0.00000   0.01211   0.01211   2.64909
    R7        2.91018  -0.05638   0.00000  -0.18140  -0.18140   2.72877
    R8        2.63584   0.00127   0.00000   0.00258   0.00258   2.63842
    R9        2.07809  -0.00906   0.00000  -0.02499  -0.02499   2.05311
   R10        2.63643   0.00371   0.00000   0.00731   0.00731   2.64374
   R11        2.07825  -0.00855   0.00000  -0.02358  -0.02358   2.05466
   R12        2.07795  -0.00819   0.00000  -0.02256  -0.02256   2.05539
   R13        2.26994   0.02546   0.00000   0.02384   0.02384   2.29378
   R14        2.91018  -0.05701   0.00000  -0.18343  -0.18343   2.72675
   R15        2.63697   0.00565   0.00000   0.01168   0.01168   2.64865
   R16        2.63584   0.00598   0.00000   0.01233   0.01233   2.64817
   R17        2.63562   0.00052   0.00000   0.00106   0.00106   2.63669
   R18        2.07809  -0.00931   0.00000  -0.02568  -0.02568   2.05242
   R19        2.63643   0.00032   0.00000   0.00065   0.00065   2.63708
   R20        2.07825  -0.00936   0.00000  -0.02581  -0.02581   2.05244
   R21        2.63647   0.00443   0.00000   0.00889   0.00889   2.64536
   R22        2.07805  -0.00825   0.00000  -0.02273  -0.02273   2.05532
   R23        2.63584   0.00456   0.00000   0.00915   0.00915   2.64500
   R24        2.07795  -0.00822   0.00000  -0.02266  -0.02266   2.05529
   R25        2.91018  -0.01732   0.00000  -0.05573  -0.05573   2.85445
   R26        2.31929  -0.02560   0.00000  -0.02701  -0.02701   2.29228
   R27        2.09846  -0.00080   0.00000  -0.00229  -0.00229   2.09617
    A1        2.09437   0.00088   0.00000   0.00317   0.00317   2.09754
    A2        2.09435  -0.00107   0.00000  -0.00497  -0.00497   2.08937
    A3        2.09447   0.00019   0.00000   0.00180   0.00180   2.09627
    A4        2.09455  -0.00146   0.00000  -0.00527  -0.00527   2.08928
    A5        2.09406   0.00166   0.00000   0.00766   0.00766   2.10172
    A6        2.09458  -0.00021   0.00000  -0.00240  -0.00240   2.09218
    A7        2.09429   0.00098   0.00000   0.00461   0.00461   2.09890
    A8        2.09462  -0.00049   0.00000  -0.00230  -0.00230   2.09232
    A9        2.09427  -0.00049   0.00000  -0.00230  -0.00230   2.09197
   A10        2.09429  -0.00145   0.00000  -0.00529  -0.00529   2.08900
   A11        2.09407  -0.00017   0.00000  -0.00219  -0.00219   2.09187
   A12        2.09483   0.00162   0.00000   0.00749   0.00749   2.10232
   A13        2.09448   0.00093   0.00000   0.00332   0.00332   2.09780
   A14        2.09459  -0.00112   0.00000  -0.00518  -0.00518   2.08941
   A15        2.09411   0.00019   0.00000   0.00186   0.00186   2.09598
   A16        2.09440   0.00011   0.00000  -0.00054  -0.00054   2.09385
   A17        2.09453  -0.00006   0.00000   0.00023   0.00023   2.09476
   A18        2.09426  -0.00005   0.00000   0.00031   0.00031   2.09457
   A19        2.09407  -0.00023   0.00000  -0.00114  -0.00114   2.09293
   A20        2.09483  -0.00032   0.00000  -0.00147  -0.00147   2.09336
   A21        2.09429   0.00056   0.00000   0.00261   0.00261   2.09690
   A22        2.09429  -0.00074   0.00000  -0.00264  -0.00264   2.09165
   A23        2.09427  -0.00020   0.00000  -0.00176  -0.00176   2.09251
   A24        2.09462   0.00094   0.00000   0.00440   0.00440   2.09902
   A25        2.09448  -0.00077   0.00000  -0.00277  -0.00277   2.09171
   A26        2.09459  -0.00021   0.00000  -0.00184  -0.00184   2.09275
   A27        2.09411   0.00098   0.00000   0.00461   0.00461   2.09872
   A28        2.09455   0.00028   0.00000   0.00089   0.00089   2.09544
   A29        2.09458  -0.00078   0.00000  -0.00392  -0.00393   2.09065
   A30        2.09406   0.00051   0.00000   0.00304   0.00303   2.09709
   A31        2.09440   0.00030   0.00000   0.00100   0.00100   2.09539
   A32        2.09426  -0.00076   0.00000  -0.00381  -0.00382   2.09044
   A33        2.09453   0.00047   0.00000   0.00281   0.00281   2.09734
   A34        2.09437   0.00038   0.00000   0.00091   0.00091   2.09528
   A35        2.09435  -0.00019   0.00000  -0.00046  -0.00047   2.09388
   A36        2.09447  -0.00019   0.00000  -0.00045  -0.00045   2.09402
   A37        2.13323   0.00413   0.00000   0.01682   0.01682   2.15005
   A38        2.01673   0.00157   0.00000   0.01116   0.01116   2.02789
   A39        2.13323  -0.00570   0.00000  -0.02798  -0.02798   2.10525
   A40        3.14159  -0.00007   0.00000  -0.00110  -0.00110   3.14050
   A41        3.14159   0.00000   0.00000  -0.00020  -0.00020   3.14139
   A42        3.14159   0.00000   0.00000  -0.00003  -0.00003   3.14156
   A43        3.14159   0.00003   0.00000   0.00132   0.00132   3.14291
    D1        0.00056  -0.00002   0.00000  -0.00032  -0.00032   0.00025
    D2        3.14078   0.00002   0.00000   0.00042   0.00042   3.14120
    D3       -3.14112  -0.00001   0.00000  -0.00031  -0.00031  -3.14143
    D4       -0.00091   0.00002   0.00000   0.00043   0.00043  -0.00048
    D5        0.00026  -0.00001   0.00000  -0.00017  -0.00017   0.00009
    D6        3.14140   0.00001   0.00000   0.00012   0.00012   3.14153
    D7       -3.14124  -0.00001   0.00000  -0.00018  -0.00017  -3.14142
    D8       -0.00010   0.00001   0.00000   0.00011   0.00011   0.00002
    D9       -0.00099   0.00003   0.00000   0.00056   0.00056  -0.00043
   D10        3.14093   0.00002   0.00000   0.00042   0.00041   3.14134
   D11       -3.14120  -0.00001   0.00000  -0.00019  -0.00018  -3.14139
   D12        0.00072  -0.00002   0.00000  -0.00033  -0.00033   0.00039
   D13        0.00060  -0.00001   0.00000  -0.00032  -0.00032   0.00028
   D14       -3.14153   0.00000   0.00000  -0.00005  -0.00005  -3.14159
   D15       -3.14132  -0.00001   0.00000  -0.00017  -0.00017  -3.14150
   D16       -0.00026   0.00000   0.00000   0.00009   0.00009  -0.00017
   D17       -1.57070  -0.00003   0.00000  -0.00084  -0.00084  -1.57155
   D18        1.57036   0.00004   0.00000   0.00109   0.00109   1.57145
   D19        1.57122  -0.00004   0.00000  -0.00109  -0.00109   1.57013
   D20       -1.57091   0.00003   0.00000   0.00085   0.00085  -1.57006
   D21        0.00023  -0.00001   0.00000  -0.00016  -0.00016   0.00006
   D22       -3.14158   0.00000   0.00000   0.00004   0.00004  -3.14154
   D23       -3.14083  -0.00002   0.00000  -0.00042  -0.00043  -3.14126
   D24        0.00054  -0.00001   0.00000  -0.00022  -0.00022   0.00032
   D25       -0.00066   0.00002   0.00000   0.00041   0.00041  -0.00025
   D26        3.14138   0.00001   0.00000   0.00012   0.00012   3.14150
   D27        3.14116   0.00001   0.00000   0.00020   0.00020   3.14135
   D28        0.00001   0.00000   0.00000  -0.00009  -0.00009  -0.00008
   D29       -3.14153  -0.00001   0.00000  -0.00009  -0.00009   3.14157
   D30       -0.00026  -0.00008   0.00000  -0.00159  -0.00159  -0.00186
   D31        0.00060  -0.00003   0.00000  -0.00080  -0.00079  -0.00020
   D32       -3.14132  -0.00011   0.00000  -0.00230  -0.00230   3.13956
   D33       -3.14083  -0.00002   0.00000  -0.00043  -0.00042  -3.14125
   D34        0.00054   0.00008   0.00000   0.00149   0.00149   0.00203
   D35        0.00023   0.00001   0.00000   0.00028   0.00028   0.00051
   D36       -3.14158   0.00010   0.00000   0.00220   0.00220  -3.13939
   D37       -0.00099   0.00014   0.00000   0.00293   0.00293   0.00194
   D38       -3.14120  -0.00017   0.00000  -0.00365  -0.00364   3.13834
   D39        3.14093   0.00021   0.00000   0.00444   0.00444  -3.13782
   D40        0.00072  -0.00010   0.00000  -0.00214  -0.00213  -0.00142
   D41       -0.00066  -0.00009   0.00000  -0.00191  -0.00191  -0.00256
   D42        3.14138   0.00017   0.00000   0.00364   0.00363  -3.13817
   D43        3.14116  -0.00018   0.00000  -0.00383  -0.00383   3.13733
   D44        0.00001   0.00008   0.00000   0.00172   0.00172   0.00173
   D45        0.00056  -0.00021   0.00000  -0.00455  -0.00456  -0.00399
   D46       -3.14112  -0.00016   0.00000  -0.00324  -0.00324   3.13882
   D47        3.14078   0.00010   0.00000   0.00203   0.00204  -3.14037
   D48       -0.00091   0.00015   0.00000   0.00334   0.00335   0.00244
   D49        0.00026   0.00019   0.00000   0.00404   0.00405   0.00431
   D50       -3.14124   0.00013   0.00000   0.00273   0.00273  -3.13851
   D51        3.14140  -0.00007   0.00000  -0.00151  -0.00152   3.13989
   D52       -0.00010  -0.00013   0.00000  -0.00283  -0.00283  -0.00293
   D53       -1.57140  -0.00003   0.00000  -0.00088  -0.00088  -1.57227
   D54        1.57016  -0.00003   0.00000  -0.00075  -0.00075   1.56941
   D55        1.57010   0.00002   0.00000   0.00044   0.00044   1.57054
   D56       -1.57153   0.00003   0.00000   0.00057   0.00057  -1.57096
         Item               Value     Threshold  Converged?
 Maximum Force            0.057010     0.000450     NO 
 RMS     Force            0.008454     0.000300     NO 
 Maximum Displacement     0.204704     0.001800     NO 
 RMS     Displacement     0.076401     0.001200     NO 
 Predicted change in Energy=-1.382048D-02
 GradGradGradGradGradGradGradGradGradGradGradGradGradGradGradGradGradGrad

                          Input orientation:                          
 ---------------------------------------------------------------------
 Center     Atomic      Atomic             Coordinates (Angstroms)
 Number     Number       Type             X           Y           Z
 ---------------------------------------------------------------------
      1          6           0       -5.240541   -1.712290    0.001260
      2          6           0       -3.844176   -1.718426    0.001635
      3          6           0       -3.144256   -0.504104    0.001384
      4          6           0       -3.840577    0.712565    0.000235
      5          6           0       -5.236767    0.710309   -0.000323
      6          6           0       -5.938435   -0.500013    0.000339
      7          1           0       -5.783594   -2.654250    0.001609
      8          1           0       -3.298178   -2.657746    0.002721
      9          1           0       -3.291427    1.650022    0.000040
     10          1           0       -5.777232    1.653747   -0.001263
     11          1           0       -7.026097   -0.498255   -0.000015
     12          6           0       -1.700253   -0.506062    0.002086
     13          6           0       -0.486437   -0.506379    0.002704
     14          6           0        0.956498   -0.505229    0.003722
     15          6           0        1.654658   -0.503858    1.219070
     16          6           0        1.656778   -0.505277   -1.210110
     17          6           0        3.049931   -0.502781    1.218277
     18          1           0        1.107798   -0.501917    2.157440
     19          6           0        3.052256   -0.504574   -1.206813
     20          1           0        1.111878   -0.504266   -2.149635
     21          6           0        3.750434   -0.500719    0.006289
     22          1           0        3.590747   -0.498644    2.161905
     23          1           0        3.594557   -0.501377   -2.149578
     24          6           0        5.260936   -0.495931    0.007779
     25          8           0        5.921723    0.521314    0.006803
     26          1           0        5.753644   -1.489742    0.009770
 ---------------------------------------------------------------------
                    Distance matrix (angstroms):
                    1          2          3          4          5
     1  C    0.000000
     2  C    1.396379   0.000000
     3  C    2.419530   1.401594   0.000000
     4  C    2.799968   2.430994   1.401837   0.000000
     5  C    2.422602   2.799655   2.419380   1.396192   0.000000
     6  C    1.398811   2.422902   2.794182   2.423087   1.399006
     7  H    1.087287   2.153395   3.404296   3.887255   3.408706
     8  H    2.160246   1.086479   2.159136   3.413678   3.886120
     9  H    3.886411   3.413499   2.159148   1.086458   2.160418
    10  H    3.408556   3.886935   3.404246   2.153244   1.087281
    11  H    2.159188   3.407850   3.881846   3.407876   2.159243
    12  C    3.740138   2.462972   1.444005   2.462934   3.739853
    13  C    4.904665   3.569800   2.657821   3.568766   4.903670
    14  C    6.313501   4.951598   4.100755   4.949239   6.311424
    15  C    7.105431   5.761466   4.950994   5.758720   7.103018
    16  C    7.106146   5.761991   4.951530   5.759252   7.103674
    17  C    8.466167   7.105401   6.312590   7.102098   8.463211
    18  H    6.812894   5.536193   4.767446   5.533075   6.810208
    19  C    8.466906   7.105952   6.313201   7.102784   8.464010
    20  H    6.814609   5.537564   4.768811   5.534386   6.811756
    21  C    9.072241   7.691614   6.894692   7.687362   9.068429
    22  H    9.172403   7.837902   7.073058   7.833545   9.168522
    23  H    9.173406   7.838601   7.073772   7.834320   9.169501
    24  C   10.571688   9.186816   8.405198   9.181397  10.566780
    25  O   11.383548  10.019443   9.123787   9.764176  11.160093
    26  H   10.996441   9.600547   8.952328   9.843746  11.208455
                    6          7          8          9         10
     6  C    0.000000
     7  H    2.159795   0.000000
     8  H    3.409806   2.485418   0.000000
     9  H    3.410176   4.973696   4.307774   0.000000
    10  H    2.159785   4.308003   4.973399   2.485808   0.000000
    11  H    1.087664   2.488399   4.308223   4.308463   2.488127
    12  C    4.238187   4.613934   2.680133   2.679653   4.613735
    13  C    5.452002   5.716050   3.540377   3.538085   5.714777
    14  C    6.894936   7.074400   4.768186   4.763401   7.071374
    15  C    7.690278   7.837984   5.536184   5.530732   7.834378
    16  C    7.691064   7.838717   5.536756   5.531230   7.834999
    17  C    9.070507   9.172800   6.813219   6.806724   9.168245
    18  H    7.369022   7.534682   5.357522   5.351485   7.530639
    19  C    9.071370   9.173529   6.813746   6.807429   9.169055
    20  H    7.370842   7.536432   5.358984   5.352677   7.532089
    21  C    9.688870   9.774221   7.371276   7.362984   9.768224
    22  H    9.771268   9.858590   7.535323   7.526935   9.852468
    23  H    9.772414   9.859624   7.536055   7.527692   9.853439
    24  C   11.199374  11.253444   8.827905   8.817487  11.245548
    25  O   11.904054  12.128424   9.752590   9.282035  11.753639
    26  H   11.733898  11.595862   9.126871   9.574525  11.951684
                   11         12         13         14         15
    11  H    0.000000
    12  C    5.325851   0.000000
    13  C    6.539666   1.213816   0.000000
    14  C    7.982599   2.656751   1.442936   0.000000
    15  C    8.765940   3.568821   2.462486   1.401606   0.000000
    16  C    8.766795   3.569184   2.462577   1.401349   2.429181
    17  C   10.149414   4.903405   3.739456   2.420250   1.395274
    18  H    8.415157   3.539875   2.680390   2.159028   1.086093
    19  C   10.150350   4.903853   3.739690   2.420247   2.799677
    20  H    8.417098   3.540902   2.680891   2.158956   3.412152
    21  C   10.776533   5.450691   4.236876   2.793940   2.421389
    22  H   10.834726   5.714854   4.613636   3.405446   2.153464
    23  H   10.836001   5.715303   4.613768   3.405301   3.887288
    24  C   12.287035   6.961198   5.747384   4.304449   3.804277
    25  O   12.987903   7.690906   6.490045   5.070233   4.552847
    26  H   12.818148   7.518528   6.317093   4.897133   4.385893
                   16         17         18         19         20
    16  C    0.000000
    17  C    2.799633   0.000000
    18  H    3.412006   2.157293   0.000000
    19  C    1.395482   2.425091   3.885759   0.000000
    20  H    1.086105   3.885728   4.307078   2.157309   0.000000
    21  C    2.421372   1.399865   3.407489   1.399673   3.407345
    22  H    3.887257   1.087628   2.482956   3.411491   4.973349
    23  H    2.153510   3.411607   4.973367   1.087615   2.482681
    24  C    3.804378   2.520693   4.676498   2.520629   4.676450
    25  O    4.552419   3.280796   5.370858   3.280114   5.369977
    26  H    4.386524   3.121641   5.212694   3.122199   5.213462
                   21         22         23         24         25
    21  C    0.000000
    22  H    2.161524   0.000000
    23  H    2.161495   4.311486   0.000000
    24  C    1.510510   2.725765   2.725993   0.000000
    25  O    2.399802   3.334401   3.333403   1.213024   0.000000
    26  H    2.234061   3.208128   3.209565   1.109246   2.018069
                   26
    26  H    0.000000
 Stoichiometry    C15H10O
 Framework group  C1[X(C15H10O)]
 Deg. of freedom    72
 Full point group                 C1      NOp   1
 Largest Abelian subgroup         C1      NOp   1
 Largest concise Abelian subgroup C1      NOp   1
                         Standard orientation:                         
 ---------------------------------------------------------------------
 Center     Atomic      Atomic             Coordinates (Angstroms)
 Number     Number       Type             X           Y           Z
 ---------------------------------------------------------------------
      1          6           0        5.061412   -1.137009   -0.000082
      2          6           0        3.665748   -1.181686    0.000456
      3          6           0        2.932577    0.012854    0.000212
      4          6           0        3.595049    1.248280   -0.000044
      5          6           0        4.990769    1.284563   -0.000392
      6          6           0        5.725578    0.094070   -0.000563
      7          1           0        5.630258   -2.063620   -0.000047
      8          1           0        3.145886   -2.135720    0.000461
      9          1           0        3.020232    2.170222   -0.000225
     10          1           0        5.504988    2.242561   -0.000542
     11          1           0        6.812777    0.125850   -0.000919
     12          6           0        1.489177   -0.028962    0.000451
     13          6           0        0.275832   -0.062784    0.000623
     14          6           0       -1.166585   -0.101464    0.000542
     15          6           0       -1.865280   -0.120337   -1.214352
     16          6           0       -1.865833   -0.119869    1.214829
     17          6           0       -3.260051   -0.157772   -1.212651
     18          1           0       -1.319272   -0.104052   -2.153079
     19          6           0       -3.260801   -0.157688    1.212440
     20          1           0       -1.320578   -0.103066    2.153999
     21          6           0       -3.959581   -0.174076   -0.000210
     22          1           0       -3.801368   -0.169320   -2.155931
     23          1           0       -3.802390   -0.168706    2.155555
     24          6           0       -5.469640   -0.210985   -0.000721
     25          8           0       -6.158254    0.787633   -0.000111
     26          1           0       -5.934730   -1.218018   -0.001614
 ---------------------------------------------------------------------
 Rotational constants (GHZ):      2.6256003      0.1559231      0.1552684
 Standard basis: 6-31+G(d) (6D, 7F)
 There are   324 symmetry adapted cartesian basis functions of A   symmetry.
 There are   324 symmetry adapted basis functions of A   symmetry.
   324 basis functions,   552 primitive gaussians,   324 cartesian basis functions
    54 alpha electrons       54 beta electrons
       nuclear repulsion energy       850.0212726092 Hartrees.
 NAtoms=   26 NActive=   26 NUniq=   26 SFac= 1.00D+00 NAtFMM=   60 NAOKFM=F Big=F
 Integral buffers will be    131072 words long.
 Raffenetti 2 integral format.
 Two-electron integral symmetry is turned on.
 Nuclear repulsion after empirical dispersion term =      850.0041846357 Hartrees.
 One-electron integrals computed using PRISM.
 NBasis=   324 RedAO= T EigKep=  1.36D-06  NBF=   324
 NBsUse=   321 1.00D-06 EigRej=  3.77D-07 NBFU=   321
 Initial guess from the checkpoint file:  "molecule_17.chk"
 B after Tr=     0.000000    0.000000    0.000000
         Rot=    1.000000    0.000120    0.000000   -0.000215 Ang=   0.03 deg.
 ExpMin= 4.38D-02 ExpMax= 5.48D+03 ExpMxC= 8.25D+02 IAcc=2 IRadAn=         4 AccDes= 0.00D+00
 Harris functional with IExCor=  402 and IRadAn=       4 diagonalized for initial guess.
 HarFok:  IExCor=  402 AccDes= 0.00D+00 IRadAn=         4 IDoV= 1 UseB2=F ITyADJ=14
 ICtDFT=  3500011 ScaDFX=  1.000000  1.000000  1.000000  1.000000
 FoFCou: FMM=F IPFlag=           0 FMFlag=      100000 FMFlg1=           0
         NFxFlg=           0 DoJE=T BraDBF=F KetDBF=T FulRan=T
         wScrn=  0.000000 ICntrl=     500 IOpCl=  0 I1Cent=   200000004 NGrid=           0
         NMat0=    1 NMatS0=      1 NMatT0=    0 NMatD0=    1 NMtDS0=    0 NMtDT0=    0
 Petite list used in FoFCou.
 Requested convergence on RMS density matrix=1.00D-08 within 128 cycles.
 Requested convergence on MAX density matrix=1.00D-06.
 Requested convergence on             energy=1.00D-06.
 No special actions if energy rises.
 SCF Done:  E(RB3LYP) =  -652.813018175     A.U. after   14 cycles
            NFock= 14  Conv=0.66D-08     -V/T= 2.0099
 Calling FoFJK, ICntrl=      2127 FMM=F ISym2X=0 I1Cent= 0 IOpClX= 0 NMat=1 NMatS=1 NMatT=0.
 ***** Axes restored to original set *****
 -------------------------------------------------------------------
 Center     Atomic                   Forces (Hartrees/Bohr)
 Number     Number              X              Y              Z
 -------------------------------------------------------------------
      1        6           0.000675468   -0.000442049   -0.000010178
      2        6          -0.006322616   -0.003072789    0.000050461
      3        6           0.018778034    0.000054994   -0.000020060
      4        6          -0.006127614    0.002973253    0.000014058
      5        6           0.000516530    0.000369480    0.000003026
      6        6          -0.001058431    0.000082999   -0.000021044
      7        1           0.000050152    0.000231538    0.000004058
      8        1           0.000303557    0.000744679   -0.000018767
      9        1           0.000280079   -0.000726154   -0.000009070
     10        1           0.000061886   -0.000227476    0.000006535
     11        1           0.000491336   -0.000003703    0.000001006
     12        6          -0.011772435    0.000004209   -0.000004097
     13        6           0.011544652    0.000031468   -0.000007941
     14        6          -0.019022848   -0.000085806    0.000114702
     15        6           0.006399540    0.000060042    0.002549899
     16        6           0.006560877    0.000029635   -0.002678574
     17        6          -0.001348639   -0.000475343    0.000936830
     18        1          -0.000243127    0.000080812   -0.000616537
     19        6          -0.001512257   -0.000394033   -0.000999251
     20        1          -0.000259609    0.000074318    0.000631937
     21        6           0.005623211   -0.000132914    0.000076927
     22        1          -0.000018397    0.000136833   -0.000365082
     23        1           0.000000822    0.000119656    0.000370318
     24        6          -0.005886531    0.002472414   -0.000020221
     25        8           0.001095890   -0.000810318   -0.000001481
     26        1           0.001190469   -0.001095742    0.000012547
 -------------------------------------------------------------------
 Cartesian Forces:  Max     0.019022848 RMS     0.004032121

 GradGradGradGradGradGradGradGradGradGradGradGradGradGradGradGradGradGrad
 Berny optimization.
 Using GEDIIS/GDIIS optimizer.
 FormGI is forming the generalized inverse of G from B-inverse, IUseBI=4.
 GSVD:  received Info=                   1 from GESDD.
 Internal  Forces:  Max     0.007648398 RMS     0.001633176
 Search for a local minimum.
 Step number   2 out of a maximum of  136
 All quantities printed in internal units (Hartrees-Bohrs-Radians)
 Mixed Optimization -- RFO/linear search
 Update second derivatives using D2CorX and points    1    2
 DE= -1.53D-02 DEPred=-1.38D-02 R= 1.11D+00
 TightC=F SS=  1.41D+00  RLast= 2.81D-01 DXNew= 5.0454D-01 8.4242D-01
 Trust test= 1.11D+00 RLast= 2.81D-01 DXMaxT set to 5.05D-01
 ITU=  1  0
 Use linear search instead of GDIIS.
     Eigenvalues ---    0.00230   0.00235   0.00236   0.00237   0.00237
     Eigenvalues ---    0.01547   0.01569   0.01682   0.02152   0.02152
     Eigenvalues ---    0.02153   0.02154   0.02154   0.02155   0.02155
     Eigenvalues ---    0.02155   0.02155   0.02155   0.02155   0.02156
     Eigenvalues ---    0.02156   0.02157   0.02157   0.04051   0.04403
     Eigenvalues ---    0.15941   0.16000   0.16000   0.16000   0.16000
     Eigenvalues ---    0.16000   0.16000   0.16000   0.16000   0.16021
     Eigenvalues ---    0.21711   0.22000   0.22000   0.22002   0.22510
     Eigenvalues ---    0.23115   0.23783   0.25000   0.25000   0.25000
     Eigenvalues ---    0.27908   0.28519   0.28728   0.32592   0.33708
     Eigenvalues ---    0.33711   0.33717   0.33719   0.33720   0.33723
     Eigenvalues ---    0.33725   0.33726   0.34046   0.42151   0.42157
     Eigenvalues ---    0.42389   0.42921   0.46140   0.46412   0.46446
     Eigenvalues ---    0.46454   0.46460   0.46469   0.46497   0.46504
     Eigenvalues ---    0.92554   1.03698
 RFO step:  Lambda=-7.10733528D-04 EMin= 2.30000000D-03
 Quartic linear search produced a step of  0.12093.
 Iteration  1 RMS(Cart)=  0.01009879 RMS(Int)=  0.00005323
 Iteration  2 RMS(Cart)=  0.00011301 RMS(Int)=  0.00001334
 Iteration  3 RMS(Cart)=  0.00000001 RMS(Int)=  0.00001334
 Variable       Old X    -DE/DX   Delta X   Delta X   Delta X     New X
                                 (Linear)    (Quad)   (Total)
    R1        2.63877  -0.00042   0.00028  -0.00128  -0.00100   2.63777
    R2        2.64337   0.00005   0.00091  -0.00121  -0.00032   2.64305
    R3        2.05468  -0.00023  -0.00282   0.00223  -0.00059   2.05409
    R4        2.64863   0.00510   0.00157   0.01119   0.01278   2.66140
    R5        2.05315  -0.00049  -0.00301   0.00155  -0.00146   2.05169
    R6        2.64909   0.00499   0.00146   0.01106   0.01254   2.66163
    R7        2.72877  -0.00765  -0.02194  -0.00565  -0.02758   2.70119
    R8        2.63842  -0.00032   0.00031  -0.00108  -0.00077   2.63765
    R9        2.05311  -0.00049  -0.00302   0.00158  -0.00144   2.05167
   R10        2.64374  -0.00004   0.00088  -0.00141  -0.00055   2.64319
   R11        2.05466  -0.00023  -0.00285   0.00226  -0.00060   2.05407
   R12        2.05539  -0.00049  -0.00273   0.00125  -0.00148   2.05391
   R13        2.29378   0.00412   0.00288   0.00196   0.00484   2.29862
   R14        2.72675  -0.00742  -0.02218  -0.00448  -0.02666   2.70009
   R15        2.64865   0.00497   0.00141   0.01100   0.01243   2.66108
   R16        2.64817   0.00509   0.00149   0.01119   0.01270   2.66087
   R17        2.63669  -0.00038   0.00013  -0.00104  -0.00091   2.63577
   R18        2.05242  -0.00041  -0.00310   0.00192  -0.00119   2.05123
   R19        2.63708  -0.00048   0.00008  -0.00123  -0.00115   2.63593
   R20        2.05244  -0.00042  -0.00312   0.00191  -0.00121   2.05124
   R21        2.64536   0.00058   0.00108  -0.00006   0.00100   2.64636
   R22        2.05532  -0.00033  -0.00275   0.00182  -0.00092   2.05439
   R23        2.64500   0.00066   0.00111   0.00011   0.00120   2.64619
   R24        2.05529  -0.00032  -0.00274   0.00183  -0.00091   2.05439
   R25        2.85445  -0.00360  -0.00674  -0.00663  -0.01337   2.84108
[...]
 .00017256,0.00003068,0.00000729,-0.00009402,-0.00000988,0.00003126,-0.
 00000005,0.00000973,0.00004900,0.00001195,-0.00000227,-0.00005257,-0.0
 0002988,-0.00000296,-0.00005267,0.00002998,0.00000083,0.00004929,-0.00
 001249,-0.00000360,0.00002888,0.00000005,-0.00000268,-0.00305165,0.000
 04317,-0.00073371,0.00784783,-0.00015799,0.00249816,-0.03130146,-0.004
 51409,0.07085958,-0.04662740,0.00145816,-0.02392365,-0.35846709,0.0016
 9243,-0.03192276,0.05855582,0.00124930,-0.01883868,-0.00054274,0.00004
 962,-0.00077458,0.71211072,0.00000897,-0.00001110,0.00008941,-0.000055
 08,0.00001407,-0.00009406,0.00000232,-0.00044757,-0.00004495,0.0000502
 5,-0.00000296,0.00009446,-0.00000530,-0.00000768,-0.00008941,-0.000006
 78,-0.00000521,-0.00000022,-0.00000293,0.00000064,0.00000289,-0.000001
 01,0.00000911,-0.00002845,0.00000115,0.00000684,0.00003059,0.00000245,
 0.00000140,-0.00000202,-0.00000072,0.00000136,0.,-0.00000597,-0.000243
 64,-0.00002173,-0.00028505,0.00686627,0.00074451,-0.00180265,0.0052821
 6,-0.00164001,0.00169621,-0.00481641,0.00061880,-0.00225085,-0.0614158
 7,0.00437364,-0.00115920,0.00640026,0.00382915,0.00004808,-0.00062156,
 -0.00005037,0.00333416,0.14085383,-0.00002466,-0.00005719,-0.00001020,
 0.00003481,-0.00004774,0.00000021,-0.00003763,-0.00004612,0.00024615,0
 .00004094,0.00005001,0.00001914,-0.00002611,0.00005940,-0.00001513,0.0
 0010876,0.00000109,0.00000160,0.00000753,0.00000710,-0.00000476,-0.000
 00349,0.00001139,-0.00000989,-0.00000364,-0.00000927,-0.00000662,0.000
 00879,-0.00000901,-0.00000582,0.00000941,-0.00000033,0.00000108,0.0000
 5280,-0.00002469,0.00009314,0.00451961,0.00074926,-0.00481489,0.027889
 41,-0.00168643,0.03237386,-0.02764695,0.00061224,-0.01500480,0.0305025
 1,0.00445367,-0.13088805,0.01923683,0.00386912,-0.05420436,-0.00076133
 ,-0.00005104,0.00016259,-0.04253219,-0.03578022,0.70396724,-0.00000771
 ,-0.00002379,-0.00000049,0.00002949,-0.00001712,0.00000002,-0.00012261
 ,0.00000188,-0.00002078,0.00002936,0.00001586,0.00000173,-0.00000744,0
 .00002320,0.00000250,0.00004029,-0.00000010,0.00000044,0.00000672,0.00
 000645,0.00000127,-0.00000500,-0.00000411,0.00000599,-0.00000487,0.000
 00339,0.00000615,0.00000692,-0.00000617,0.00000048,0.00000659,0.000000
 20,-0.00000061,-0.00001019,0.00001097,-0.00013946,0.00114437,-0.000055
 83,0.00095514,0.01054662,-0.00099718,0.01589655,-0.00157620,-0.0001948
 3,0.00296017,-0.13201984,0.00778991,-0.12499362,-0.00061206,-0.0000512
 9,0.00080942,0.00060963,-0.00005140,0.00081773,-0.01126041,0.00178069,
 -0.02845089,0.13813183,-0.00000329,-0.00001011,-0.00003279,0.00000348,
 0.00002229,0.00002486,-0.00000319,0.00017754,0.00001171,-0.00000483,0.
 00002674,-0.00002056,0.00000342,-0.00000955,0.00003052,0.00000243,0.00
 000483,0.00000066,-0.00000234,-0.00000120,0.00000071,-0.00000593,-0.00
 001582,0.00002315,0.00000527,-0.00001257,-0.00002318,0.00000318,-0.000
 00242,-0.00000058,0.00000025,-0.00000268,-0.00000017,-0.00004489,-0.00
 000952,-0.00001445,0.00006880,-0.00335792,-0.00024114,0.00097937,0.003
 17795,0.00142620,-0.00026601,0.00580002,0.00054140,0.00766167,-0.03819
 447,0.01454355,-0.00004987,-0.00052542,-0.00004798,0.00005167,0.000331
 58,0.00008318,-0.00015365,0.00369698,-0.00011812,-0.00820081,0.0264834
 5,0.00000053,0.00002796,0.00000705,0.00000835,0.00001024,-0.00000733,0
 .00003757,0.00001392,-0.00000869,0.00000762,-0.00000878,-0.00001279,0.
 00000198,-0.00003164,0.00000812,-0.00003259,0.00000015,-0.00000508,-0.
 00000396,-0.00000489,-0.00000237,0.00000490,0.00000393,-0.00001052,0.0
 0000570,-0.00000450,-0.00001428,-0.00000321,0.00000615,-0.00000183,-0.
 00000627,0.00000025,-0.00000012,0.00070681,-0.00000964,0.00022161,-0.0
 0099016,-0.00024700,0.00047152,-0.01533277,0.00138790,-0.01899784,0.00
 405584,0.00054411,-0.00268729,-0.12300705,0.01454879,-0.26966835,0.000
 78394,-0.00004746,0.00022989,-0.00081041,0.00008135,-0.00096133,0.0021
 8821,-0.00008522,0.00507950,0.13180078,-0.01618664,0.28393745,-0.00005
 308,-0.00011560,-0.00000638,-0.00067512,0.00053309,0.00003140,0.000884
 43,0.00000027,0.00000784,-0.00067548,-0.00053385,-0.00003282,-0.000052
 94,0.00011621,0.00000703,-0.00024541,0.00000073,-0.00000117,-0.0001672
 1,-0.00007002,-0.00000470,0.00015764,0.00009985,0.00000684,0.00015765,
 -0.00009982,-0.00000504,-0.00016639,0.00006846,0.00000381,-0.00010120,
 -0.00000011,0.00000016,0.00318673,0.00000066,0.00001251,-0.00703316,-0
 .00000088,-0.00004676,0.00669543,0.00005091,-0.00061619,-0.03153440,-0
 .00166969,0.02581209,-0.03320955,0.00155566,-0.02544446,-0.16468133,-0
 .00669447,0.10411977,-0.00537607,0.00002591,-0.00064817,-0.15968132,0.
 00614529,-0.09905350,-0.00542760,-0.00006096,0.00072949,0.62950975,0.0
 0001236,0.00002695,0.00001024,-0.00000265,0.00000637,-0.00000833,-0.00
 000583,0.00004102,0.00000089,0.00001967,0.00001036,0.00001020,-0.00001
 409,0.00002179,-0.00000571,-0.00000036,-0.00000064,-0.00000028,0.00000
 257,-0.00000945,-0.00000059,0.00000385,-0.00001089,-0.00000325,-0.0000
 0567,-0.00000853,0.00000107,-0.00000289,-0.00000592,-0.00000131,0.0000
 0210,-0.00000803,-0.00000048,-0.00000945,0.00019915,-0.00003266,0.0000
 3170,-0.00134518,-0.00000910,0.00002857,-0.00686878,0.00333564,-0.0043
 6082,0.00873222,-0.00121295,0.00428048,0.00781205,-0.00146925,-0.00361
 677,-0.06344281,0.01365640,0.00011846,0.00736043,0.00036480,0.00320708
 ,-0.06542034,0.01288614,-0.00012379,0.00792584,0.00040804,0.00081951,0
 .13718494,-0.00000889,-0.00001981,-0.00000604,-0.00010876,0.00007264,-
 0.00000612,0.00013919,0.00000089,0.00004917,-0.00010674,-0.00007204,-0
 .00001438,-0.00001027,0.00002235,-0.00000422,-0.00003202,-0.00000088,-
 0.00000219,-0.00002300,-0.00000817,0.00000204,0.00002282,0.00001425,0.
 00000574,0.00002239,-0.00001609,0.00000369,-0.00002397,0.00000859,0.00
 000284,-0.00001550,-0.00000035,0.00000086,0.00018843,-0.00003009,0.000
 70128,-0.00060595,-0.00001055,-0.00120066,-0.00022320,0.00333724,-0.05
 948946,0.06829607,-0.00116762,0.02838949,-0.06837610,-0.00151733,0.030
 50903,0.05530773,0.01359176,-0.27675493,-0.00209570,0.00036417,0.00157
 417,-0.05264894,0.01294861,-0.27042184,0.00173260,0.00040714,0.0015335
 0,-0.00359236,-0.03546201,0.69629725,-0.00000030,0.00001930,-0.0000002
 8,-0.00004809,0.00003376,0.00000422,0.00009990,-0.00000595,0.00008795,
 -0.00004813,-0.00003348,0.00000018,-0.00000038,-0.00001872,-0.00000268
 ,-0.00004882,0.00000016,0.00000074,-0.00001111,-0.00000762,-0.00000273
 ,0.00000786,0.00000229,-0.00000317,0.00000782,-0.00000184,-0.00000334,
 -0.00001101,0.00000738,-0.00000176,-0.00000683,-0.00000004,-0.00000077
 ,-0.00034670,-0.00000128,0.00000584,-0.00040371,0.00008074,-0.00128012
 ,-0.00498557,-0.00011432,0.00159396,-0.01119681,0.00182443,-0.02918833
 ,-0.00057854,-0.00004182,0.00066375,-0.12925833,0.00729749,-0.11735201
 ,0.00067648,-0.00001719,0.00035742,-0.00163840,-0.00019127,0.00288029,
 0.00005208,0.00000694,-0.00008740,0.01297641,-0.00075119,0.01209668,0.
 13427013,0.00000169,-0.00000446,0.00000549,-0.00000533,0.00000482,-0.0
 0002017,-0.00000106,0.00001249,0.00000106,0.00000632,0.00000508,0.0000
 2079,-0.00000088,-0.00000335,-0.00000615,0.00000075,0.00000298,0.00000
 017,-0.00000106,-0.00000050,0.00000094,-0.00000102,-0.00000251,-0.0000
 0277,0.00000037,-0.00000252,0.00000268,0.00000201,-0.00000117,-0.00000
 090,0.00000005,-0.00000029,-0.00000001,-0.00000592,-0.00015416,-0.0000
 0577,0.00000099,0.00015117,-0.00000029,-0.00008367,0.00730666,0.000353
 16,-0.00014298,0.00391155,-0.00006189,-0.00004563,-0.00069427,-0.00005
 535,0.00739318,-0.03801723,0.01427883,0.00002164,-0.00412294,-0.000312
 32,-0.00027683,0.00597685,0.00057766,0.00000809,-0.00104500,-0.0000662
 5,0.00092301,0.00299990,0.00145693,-0.00794199,0.02652633,-0.00000258,
 0.00000076,0.00000071,-0.00001772,0.00001830,0.00000069,0.00001810,0.0
 0000110,-0.00000661,-0.00001658,-0.00001750,0.00000123,-0.00000296,-0.
 00000141,-0.00000028,-0.00000827,-0.00000019,0.00000074,-0.00000432,-0
 .00000168,-0.00000033,0.00000433,0.00000347,-0.00000100,0.00000449,-0.
 00000359,-0.00000124,-0.00000460,0.00000207,-0.00000028,-0.00000415,-0
 .00000005,-0.00000031,0.00009364,-0.00000667,-0.00005918,-0.00003334,0
 .00000204,0.00012501,0.00110599,0.00035307,0.00176406,0.00200138,-0.00
 002541,0.00435397,0.00072041,-0.00005568,0.00019530,-0.11890062,0.0142
 7882,-0.26550066,-0.00025779,-0.00031337,0.00081204,0.00424183,0.00057
 879,-0.00307520,-0.00010961,-0.00006601,-0.00000603,-0.01447141,0.0014
 2695,-0.01976813,0.12788711,-0.01600330,0.28139362,-0.00000003,0.00001
 467,0.00000284,-0.00003431,0.00002557,-0.00000094,0.00006554,0.0000038
 0,-0.00008539,-0.00003413,-0.00002309,-0.00000298,-0.00000074,-0.00001
 374,0.00000060,-0.00003594,0.00000038,-0.00000084,-0.00000707,-0.00000
 522,0.00000156,0.00000416,-0.00000045,0.00000305,0.00000405,0.00000027
 ,0.00000328,-0.00000737,0.00000401,0.00000218,-0.00000381,-0.00000036,
 0.00000059,-0.00029628,-0.00000440,0.00001345,-0.00038901,-0.00006944,
 0.00112590,-0.00466297,0.00007453,-0.00137150,-0.00059775,0.00004721,-
 0.00075401,-0.01064075,-0.00175350,0.02747717,-0.00183679,0.00017708,-
 0.00293766,0.00005766,-0.00000397,0.00007995,-0.13311114,-0.00794331,0
 .12408427,0.00074146,0.00002514,-0.00030391,0.01402647,0.00084262,-0.0
 1317695,0.00038861,0.00006475,-0.00102403,0.13690903,0.00000154,-0.000
 00232,-0.00000926,-0.00000420,0.00000247,0.00002581,-0.00000039,0.0000
 2393,0.00000211,0.00000332,0.00000529,-0.00002506,-0.00000169,-0.00000
 329,0.00000879,0.00000024,0.00000326,0.00000018,-0.00000131,-0.0000009
 5,-0.00000124,-0.00000057,-0.00000258,0.00000338,0.00000062,-0.0000022
 4,-0.00000354,0.00000129,-0.00000114,0.00000115,-0.00000010,-0.0000003
 5,-0.00000003,0.00000748,-0.00016573,-0.00000770,-0.00000093,0.0000224
 0,-0.00001029,0.00007132,0.00783842,0.00040287,0.00003586,-0.00081705,
 -0.00006847,0.00014122,0.00449801,-0.00004085,0.00024934,0.00595695,0.
 00055199,-0.00000514,-0.00103873,-0.00006628,-0.00791612,-0.04055268,0
 .01463786,-0.00001253,-0.00444442,-0.00033048,-0.00087309,0.00373442,0
 .00149289,-0.00005317,0.00050538,0.00009252,0.00852104,0.02791735,0.00
 000294,0.00000117,-0.00000041,0.00000083,-0.00000854,0.00000090,0.0000
 1681,0.00000424,-0.00001473,0.00000090,0.00000658,-0.00000249,0.000003
 60,-0.00000267,0.00000108,-0.00000361,-0.00000004,0.00000036,0.0000004
 8,0.00000028,-0.00000008,-0.00000069,-0.00000110,-0.00000036,-0.000000
 52,0.00000063,-0.00000085,0.00000115,0.00000038,0.00000005,0.00000075,
 0.00000033,0.00000005,-0.00012640,-0.00000403,-0.00004083,0.00000785,-
 0.00001421,0.00020257,-0.00135160,0.00040191,0.00145472,-0.00055630,-0
 .00006785,0.00025537,-0.00251775,-0.00007520,0.00565966,-0.00407575,0.
 00055128,-0.00281171,0.00009978,-0.00006620,0.00000895,0.12371110,0.01
 463609,-0.26906359,0.00028965,-0.00032998,0.00075283,0.01390001,0.0015
 2989,-0.02012513,0.00083672,0.00009440,-0.00097008,-0.13290506,-0.0164
 1443,0.28435200,0.00004342,0.00004546,0.00000631,0.00076737,-0.0005138
 7,-0.00002872,-0.00122827,0.00000189,-0.00000086,0.00076558,0.00050985
 ,0.00003105,0.00004532,-0.00004768,0.00000259,0.00034396,0.00000045,0.
 00000063,0.00018111,0.00008990,0.00000374,-0.00018266,-0.00012381,-0.0
 0001212,-0.00018284,0.00012365,0.00000311,0.00018301,-0.00008897,-0.00
 000705,0.00013225,0.00000085,-0.00000112,-0.00146272,0.00001001,-0.000
 03081,0.00412830,-0.00000659,0.00008930,-0.00457262,-0.00002876,0.0003
 4591,0.00723216,-0.00020473,0.00322198,0.00771120,0.00030415,-0.004765
 08,-0.02565321,-0.00114021,0.01752106,0.00073158,0.00002747,-0.0004297
 6,-0.03077748,0.00111238,-0.01823632,0.00041209,-0.00002505,0.00039844
 ,-0.19760171,0.00094638,-0.01749206,-0.00000590,0.00023723,-0.00364440
 ,0.00018088,-0.00016980,0.00279858,0.64882151,-0.00000780,-0.00001200,
 0.00000174,0.00001713,-0.00000171,-0.00000297,-0.00000930,0.00007167,0
 .00000339,-0.00000180,0.00000713,0.00000364,0.00000727,-0.00001288,-0.
 00000130,0.00000280,0.00000053,0.00000016,-0.00000184,0.00000329,-0.00
 000019,-0.00000306,-0.00000065,-0.00000177,-0.00000021,0.00000143,-0.0
 0000003,0.00000471,0.00000226,-0.00000053,0.00000154,0.00000267,-0.000
 00014,-0.00005010,0.00004668,0.00000144,0.00011592,-0.00127070,-0.0000
 7827,-0.00015451,-0.00069196,0.00025869,-0.00022280,0.00784257,0.00087
 481,0.00050260,0.00687373,0.00074822,-0.00228904,0.00006095,0.00005008
 ,-0.00009620,0.00052603,0.00002219,0.00155440,0.00237427,-0.00071002,0
 .00012418,0.00022885,0.00001348,0.00279797,-0.07394503,0.00236151,-0.0
 0020458,-0.00430440,-0.00024372,0.00007054,-0.00357578,-0.00007204,0.0
 1066767,0.18812646,0.00000111,-0.00000686,-0.00001307,-0.00009246,0.00
 007984,-0.00000336,0.00010585,-0.00000336,0.00002478,-0.00009146,-0.00
 006943,-0.00000770,-0.00000139,0.00001064,-0.00001452,-0.00004125,0.00
 000031,-0.00000233,-0.00002084,-0.00001031,0.00000715,0.00002322,0.000
 01439,0.00001463,0.00002323,-0.00001510,0.00001319,-0.00002314,0.00000
 783,0.00000817,-0.00001883,-0.00000147,0.00000509,0.00076926,-0.000012
 87,0.00001648,-0.00173479,-0.00006998,-0.00002726,0.00236668,0.0002677
 8,-0.00475795,0.00354776,0.00087291,-0.00590431,-0.00795813,0.00074184
 ,-0.00501656,0.03575374,0.00007074,-0.00036476,0.00152928,0.00002388,0
 .00016327,-0.02522656,-0.00071694,0.01324274,-0.00196148,0.00001151,0.
 00002387,-0.04670215,0.00231080,-0.11151643,0.00335731,-0.00023207,-0.
 00053715,-0.00107669,-0.00007295,-0.00241779,-0.15999579,-0.04253995,0
 .85618401,-0.00001705,-0.00000385,-0.00000156,-0.00038478,0.00025480,0
 .00001188,0.00065868,-0.00000006,-0.00001563,-0.00038418,-0.00025241,-
 0.00001777,-0.00001790,0.00000520,-0.00000196,-0.00018949,0.00000020,-
 0.00000197,-0.00009209,-0.00004970,-0.00000094,0.00009337,0.00006355,0
 .00000935,0.00009339,-0.00006389,0.00000163,-0.00009268,0.00004852,0.0
 0000505,-0.00006945,-0.00000050,0.00000155,0.00055355,-0.00000566,0.00
 002530,-0.00182864,0.00000637,-0.00008411,0.00185304,-0.00009058,0.001
 48562,-0.00426645,-0.00004333,0.00063974,-0.00069514,-0.00013071,0.002
 04561,-0.00256377,0.00057822,-0.00926588,-0.00101230,-0.00000646,0.000
 08956,0.00351314,-0.00031520,0.00508152,-0.00014980,0.00001067,-0.0001
 7350,-0.04961467,-0.00317134,0.04894601,0.00052386,-0.00004789,0.00075
 930,-0.00092721,0.00000211,-0.00007354,-0.29395884,-0.01835482,0.28616
 294,0.32926702,-0.00000339,-0.00000137,-0.00000343,-0.00001570,0.00000
 503,0.00000641,0.00002453,-0.00001672,0.00000085,-0.00002041,-0.000018
 29,-0.00000829,0.00000254,0.00000243,0.00000213,-0.00000700,-0.0000012
 9,-0.00000027,-0.00000131,0.00000082,0.00000005,0.00000350,0.00000581,
 0.00000134,0.00000465,-0.00000008,0.00000102,-0.00000600,0.00000306,0.
 00000127,-0.00000349,0.00000046,0.00000032,0.00005907,-0.00002550,-0.0
 0000443,-0.00014712,0.00036512,0.00000750,0.00017556,-0.00015499,-0.00
 006143,-0.00011990,-0.00182942,-0.00023252,-0.00026381,-0.00068084,-0.
 00004698,0.00030302,0.00334337,-0.00020880,-0.00001866,-0.00033628,-0.
 00001529,0.00042860,-0.00046433,0.00054097,-0.00003304,0.00013634,0.00
 000124,-0.00300926,0.01794230,0.00102699,0.00008989,0.00077298,0.00000
 964,-0.00002464,-0.00013050,-0.00017500,-0.01790514,-0.06323412,0.0299
 5185,0.02213265,0.02554218,0.00001340,0.00001964,0.00000988,0.00026667
 ,-0.00019415,-0.00000361,-0.00039192,0.00000224,-0.00003133,0.00026532
 ,0.00019017,0.00001750,0.00001486,-0.00002156,0.00000864,0.00011968,0.
 ,0.00000459,0.00006407,0.00003112,-0.00000495,-0.00006472,-0.00004152,
 -0.00001766,-0.00006473,0.00004338,-0.00001237,0.00006497,-0.00002992,
 -0.00000851,0.00004691,0.00000075,-0.00000500,-0.00091633,-0.00000025,
 0.00004326,0.00228866,0.00000621,0.00024921,-0.00273695,-0.00006837,0.
 00084310,0.00185471,-0.00023022,0.00184389,0.00416664,-0.00004390,0.00
 010636,-0.00491515,-0.00020358,0.00645379,0.00027820,-0.00001516,-0.00
 008810,-0.00670730,0.00052544,-0.00889292,0.00051495,0.00000248,0.0001
 0503,0.04639424,0.00102351,0.00271564,-0.00142752,0.00000671,0.0006345
 3,0.00037725,-0.00017362,0.00259749,0.27902422,0.02994440,-0.53023176,
 -0.34460859,-0.03511223,0.57285724,-0.00000154,0.00000119,0.00000116,-
 0.00003072,0.00001775,0.00000211,0.00006477,0.00000150,-0.00000839,-0.
 00003082,-0.00001917,-0.00000073,-0.00000112,-0.00000196,0.00000124,-0
 .00001710,-0.00000026,0.00000093,-0.00000738,-0.00000373,-0.00000136,0
 .00000714,0.00000543,-0.00000280,0.00000722,-0.00000515,-0.00000357,-0
 .00000722,0.00000438,-0.00000089,-0.00000542,0.00000022,-0.00000071,-0
 .00005206,0.00000003,0.00003013,0.00007876,-0.00000558,0.00006734,0.00
 019114,-0.00001289,0.00018954,0.00000772,-0.00003803,0.00061842,0.0000
 2006,0.00012929,-0.00201708,0.00019729,0.00015126,-0.00235458,-0.00009
 604,-0.00000130,0.00002021,-0.00590777,-0.00015662,0.00231923,-0.00055
 371,-0.00000147,0.00002107,-0.01129787,0.00174948,-0.02821151,-0.00041
 452,-0.00010583,0.00166579,0.00020744,0.00000366,-0.00005991,-0.116053
 48,0.00552933,-0.08869544,0.01970840,-0.00164515,0.02607843,0.11398681
 ,0.00000057,-0.00000010,0.00000063,0.00000362,-0.00000068,-0.00000282,
 -0.00000543,0.00001078,0.00000017,0.00000233,0.00000528,0.00000327,0.0
 0000055,-0.00000052,-0.00000140,0.00000195,0.00000033,0.00000001,0.000
 00085,0.00000008,0.00000039,-0.00000117,-0.00000157,-0.00000033,-0.000
 00073,-0.00000039,0.00000090,0.00000128,-0.00000108,-0.00000010,0.0000
 0048,-0.00000036,0.00000006,-0.00000159,-0.00003797,-0.00000003,0.0000
 0790,0.00006119,-0.00000505,-0.00001391,0.00024208,0.00000149,0.000043
 85,-0.00046066,-0.00004517,-0.00000929,-0.00088982,-0.00005366,-0.0000
 4182,-0.00129573,-0.00012719,0.00000622,0.00004389,0.00000113,-0.00000
 059,0.00252532,0.00008428,0.00000717,-0.00038132,-0.00002501,-0.000009
 82,0.01706787,0.00119900,0.00002209,0.00017661,-0.00002896,-0.00002951
 ,0.00022990,0.00000412,0.00617725,-0.05911927,0.00938696,-0.00056586,0
 .01877384,0.00433844,-0.00559640,0.02305230,-0.00000559,-0.00000441,0.
 00000343,-0.00005929,0.00003808,0.00000487,0.00010123,0.00000435,0.000
 00044,-0.00005997,-0.00004317,-0.00000191,-0.00000392,0.00000153,0.000
 00477,-0.00002845,-0.00000064,0.00000044,-0.00001511,-0.00000653,-0.00
 000250,0.00001435,0.00001011,-0.00000400,0.00001461,-0.00001009,-0.000
 00556,-0.00001426,0.00000855,-0.00000168,-0.00001017,0.00000077,-0.000
 00149,0.00002106,0.00000721,-0.00002941,-0.00012644,-0.00000991,0.0001
 3246,0.00022227,-0.00000154,0.00021264,-0.00069354,-0.00004618,0.00028
 049,0.00017953,-0.00004946,-0.00007627,0.00069270,-0.00012327,0.000657
 25,-0.00010373,0.00000123,0.00002883,-0.00017122,0.00008125,0.00123080
 ,-0.00011864,-0.00002546,0.00001347,-0.00040009,0.00124136,-0.00247516
 ,-0.00042209,-0.00003156,0.00064459,0.00046784,0.00000466,0.00016203,-
 0.09880281,0.00936719,-0.20888842,0.00898039,0.00431707,-0.04919393,0.
 09034135,-0.01473114,0.25730382||-0.00000328,-0.00000053,-0.00000357,0
 .00000388,-0.00000141,-0.00000309,-0.00000480,0.00000082,0.00001139,0.
 00000123,0.00000084,-0.00000451,-0.00000159,0.00000232,0.00000037,0.00
 000114,-0.00000076,0.00000294,0.00000018,0.00000047,0.00000067,-0.0000
 0118,0.00000029,0.00000055,-0.00000110,-0.00000054,-0.00000072,-0.0000
 0015,-0.00000048,-0.00000056,0.00000050,0.00000040,-0.00000155,0.00000
 411,-0.00000178,-0.00000486,0.00002306,0.00000409,-0.00000352,-0.00001
 073,-0.00001368,0.00000458,0.00000938,-0.00000210,0.00000375,-0.000007
 19,0.00001005,0.00000168,-0.00001367,0.00000296,0.00000906,-0.00000322
 ,0.00000330,-0.00000115,0.00000249,-0.00000207,-0.00000491,-0.00000002
 ,-0.00000066,0.00000048,0.00000314,-0.00000240,-0.00001176,0.00000256,
 0.00000006,-0.00000193,0.00000386,0.00000027,0.00000391,-0.00000976,0.
 00000048,0.00001961,0.00000426,0.00000015,-0.00000968,-0.00000311,-0.0
 0000008,-0.00000717|||@


 THE ONLY TROUBLE WITH A SURE THING IS THE UNCERTAINTY.
     -- FROM A TEABAG (BELONGING TO W.H.?)
 Job cpu time:       0 days  0 hours 25 minutes  6.0 seconds.
 File lengths (MBytes):  RWF=    283 Int=      0 D2E=      0 Chk=      9 Scr=      1
 Normal termination of Gaussian 09 at Fri Aug 25 01:13:57 2023.
