 Entering Gaussian System, Link 0=C:\G09W\g09.exe
 Input=D:\machine learning\molecule_51.gjf
 Output=D:\machine learning\molecule_51.log
 Initial command:
 C:/G09W\l1.exe ".\Gau-4940.inp" "D:\machine learning\molecule_51.log" /scrdir=".\"
 Entering Link 1 = C:/G09W\l1.exe PID=       604.
  
 Copyright (c) 1988,1990,1992,1993,1995,1998,2003,2009,2013,
            Gaussian, Inc.  All Rights Reserved.
  
 This is part of the Gaussian(R) 09 program.  It is based on
 the Gaussian(R) 03 system (copyright 2003, Gaussian, Inc.),
 the Gaussian(R) 98 system (copyright 1998, Gaussian, Inc.),
 the Gaussian(R) 94 system (copyright 1995, Gaussian, Inc.),
 the Gaussian 92(TM) system (copyright 1992, Gaussian, Inc.),
 the Gaussian 90(TM) system (copyright 1990, Gaussian, Inc.),
 the Gaussian 88(TM) system (copyright 1988, Gaussian, Inc.),
 the Gaussian 86(TM) system (copyright 1986, Carnegie Mellon
 University), and the Gaussian 82(TM) system (copyright 1983,
 Carnegie Mellon University). Gaussian is a federally registered
 trademark of Gaussian, Inc.
  
 This software contains proprietary and confidential information,
 including trade secrets, belonging to Gaussian, Inc.
  
 This software is provided under written license and may be
 used, copied, transmitted, or stored only in accord with that
 written license.
  
 The following legend is applicable only to US Government
 contracts under FAR:
  
                    RESTRICTED RIGHTS LEGEND
  
 Use, reproduction and disclosure by the US Government is
 subject to restrictions as set forth in subparagraphs (a)
 and (c) of the Commercial Computer Software - Restricted
 Rights clause in FAR 52.227-19.
  
 Gaussian, Inc.
 340 Quinnipiac St., Bldg. 40, Wallingford CT 06492
  
  
 ---------------------------------------------------------------
 Warning -- This program may not be used in any manner that
 competes with the business of Gaussian, Inc. or will provide
 assistance to any competitor of Gaussian, Inc.  The licensee
 of this program is prohibited from giving any competitor of
 Gaussian, Inc. access to this program.  By using this program,
 the user acknowledges that Gaussian, Inc. is engaged in the
 business of creating and licensing software in the field of
 computational chemistry and represents and warrants to the
 licensee that it is not a competitor of Gaussian, Inc. and that
 it will not use this program in any manner prohibited above.
 ---------------------------------------------------------------
  

 Cite this work as:
 Gaussian 09, Revision D.01,
 M. J. Frisch, G. W. Trucks, H. B. Schlegel, G. E. Scuseria, 
 M. A. Robb, J. R. Cheeseman, G. Scalmani, V. Barone, B. Mennucci, 
 G. A. Petersson, H. Nakatsuji, M. Caricato, X. Li, H. P. Hratchian, 
 A. F. Izmaylov, J. Bloino, G. Zheng, J. L. Sonnenberg, M. Hada, 
 M. Ehara, K. Toyota, R. Fukuda, J. Hasegawa, M. Ishida, T. Nakajima, 
 Y. Honda, O. Kitao, H. Nakai, T. Vreven, J. A. Montgomery, Jr., 
 J. E. Peralta, F. Ogliaro, M. Bearpark, J. J. Heyd, E. Brothers, 
 K. N. Kudin, V. N. Staroverov, T. Keith, R. Kobayashi, J. Normand, 
 K. Raghavachari, A. Rendell, J. C. Burant, S. S. Iyengar, J. Tomasi, 
 M. Cossi, N. Rega, J. M. Millam, M. Klene, J. E. Knox, J. B. Cross, 
 V. Bakken, C. Adamo, J. Jaramillo, R. Gomperts, R. E. Stratmann, 
 O. Yazyev, A. J. Austin, R. Cammi, C. Pomelli, J. W. Ochterski, 
 R. L. Martin, K. Morokuma, V. G. Zakrzewski, G. A. Voth, 
 P. Salvador, J. J. Dannenberg, S. Dapprich, A. D. Daniels, 
 O. Farkas, J. B. Foresman, J. V. Ortiz, J. Cioslowski, 
 and D. J. Fox, Gaussian, Inc., Wallingford CT, 2013.
 
 ******************************************
 Gaussian 09:  EM64W-G09RevD.01 13-Apr-2013
                26-Aug-2023 
 ******************************************
 %nprocshared=6
 Will use up to    6 processors via shared memory.
 %mem=6GB
 %chk=D:\machine learning\molecule_51.chk
 --------------------------------------------------------------------
 # opt freq b3lyp/6-31+g(d) geom=connectivity empiricaldispersion=gd3
 --------------------------------------------------------------------
 1/14=-1,18=20,19=15,26=3,38=1,57=2/1,3;
 2/9=110,12=2,17=6,18=5,40=1/2;
 3/5=1,6=6,7=11,11=2,16=1,25=1,30=1,71=1,74=-5,124=31/1,2,3;
 4//1;
 5/5=2,38=5/2;
 6/7=2,8=2,9=2,10=2,28=1/1;
 7//1,2,3,16;
 1/14=-1,18=20,19=15,26=3/3(2);
 2/9=110/2;
 99//99;
 2/9=110/2;
 3/5=1,6=6,7=11,11=2,16=1,25=1,30=1,71=1,74=-5,124=31/1,2,3;
 4/5=5,16=3,69=1/1;
 5/5=2,38=5/2;
 7//1,2,3,16;
 1/14=-1,18=20,19=15,26=3/3(-5);
 2/9=110/2;
 6/7=2,8=2,9=2,10=2,19=2,28=1/1;
 99/9=1/99;
 -------------------
 Title Card Required
 -------------------
 Symbolic Z-matrix:
 Charge =  0 Multiplicity = 1
 C                    -4.0128   -1.05611   2.52118 
 C                    -2.73649   0.37254   1.03422 
 C                    -2.01862   0.87204   2.13087 
 C                    -2.31176   0.41818   3.42724 
 C                    -3.30209  -0.55218   3.6218 
 H                    -4.76554  -1.80037   2.66612 
 H                    -1.24549   1.59633   1.97836 
 H                    -1.77837   0.81274   4.26707 
 C                    -2.42229   0.8635   -0.39608 
 C                    -2.17307   1.2499   -1.50169 
 C                    -1.84944   1.75108  -2.93029 
 C                    -1.5968    2.1422   -4.04255 
 C                    -1.2769    2.63745  -5.44944 
 C                    -0.35252   3.67679  -5.61885 
 C                    -0.03251   4.12423  -6.90616 
 H                     0.1115    4.12633  -4.76299 
 C                    -1.58528   2.5241   -7.85334 
 C                    -0.64165   3.54799  -8.02405 
 H                     0.68246   4.90607  -7.0366 
 H                    -2.06144   2.09155  -8.70509 
 C                    -3.73913  -0.58249   1.2306 
 H                    -4.29628  -0.95123   0.3933 
 C                    -1.89964   2.06713  -6.56438 
 H                    -2.61488   1.28559  -6.43481 
 O                    -0.29942   4.00721  -9.33361 
 C                     0.75387   4.96869  -9.24405 
 H                     1.04218   5.27501  -10.2277 
 H                     0.41462   5.81903  -8.6905 
 H                     1.59486   4.53204  -8.74609 
 O                    -3.58618  -1.02733   4.94029 
 C                    -4.69975  -1.92334   4.89518 
 H                    -4.91656  -2.27285   5.88297 
 H                    -5.55352  -1.41172   4.50247 
 H                    -4.4624   -2.75588   4.26634 
 

 GradGradGradGradGradGradGradGradGradGradGradGradGradGradGradGradGradGrad
 Berny optimization.
 Initialization pass.
                           ----------------------------
                           !    Initial Parameters    !
                           ! (Angstroms and Degrees)  !
 --------------------------                            --------------------------
 ! Name  Definition              Value          Derivative Info.                !
 --------------------------------------------------------------------------------
 ! R1    R(1,5)                  1.4037         estimate D2E/DX2                !
 ! R2    R(1,6)                  1.0684         estimate D2E/DX2                !
 ! R3    R(1,21)                 1.4017         estimate D2E/DX2                !
 ! R4    R(2,3)                  1.4027         estimate D2E/DX2                !
 ! R5    R(2,9)                  1.5445         estimate D2E/DX2                !
 ! R6    R(2,21)                 1.3986         estimate D2E/DX2                !
 ! R7    R(3,4)                  1.4045         estimate D2E/DX2                !
 ! R8    R(3,7)                  1.0703         estimate D2E/DX2                !
 ! R9    R(4,5)                  1.4001         estimate D2E/DX2                !
 ! R10   R(4,8)                  1.0703         estimate D2E/DX2                !
 ! R11   R(5,30)                 1.43           estimate D2E/DX2                !
 ! R12   R(9,10)                 1.1974         estimate D2E/DX2                !
 ! R13   R(10,11)                1.5482         estimate D2E/DX2                !
 ! R14   R(11,12)                1.2058         estimate D2E/DX2                !
 ! R15   R(12,13)                1.5254         estimate D2E/DX2                !
 ! R16   R(13,14)                1.4012         estimate D2E/DX2                !
 ! R17   R(13,23)                1.3986         estimate D2E/DX2                !
 ! R18   R(14,15)                1.3999         estimate D2E/DX2                !
 ! R19   R(14,16)                1.0723         estimate D2E/DX2                !
 ! R20   R(15,18)                1.3974         estimate D2E/DX2                !
 ! R21   R(15,19)                1.0675         estimate D2E/DX2                !
 ! R22   R(17,18)                1.4028         estimate D2E/DX2                !
 ! R23   R(17,20)                1.0674         estimate D2E/DX2                !
 ! R24   R(17,23)                1.4032         estimate D2E/DX2                !
 ! R25   R(18,25)                1.4293         estimate D2E/DX2                !
 ! R26   R(21,22)                1.0712         estimate D2E/DX2                !
 ! R27   R(23,24)                1.0673         estimate D2E/DX2                !
 ! R28   R(25,26)                1.4289         estimate D2E/DX2                !
 ! R29   R(26,27)                1.0698         estimate D2E/DX2                !
 ! R30   R(26,28)                1.0699         estimate D2E/DX2                !
 ! R31   R(26,29)                1.0705         estimate D2E/DX2                !
 ! R32   R(30,31)                1.43           estimate D2E/DX2                !
 ! R33   R(31,32)                1.07           estimate D2E/DX2                !
 ! R34   R(31,33)                1.07           estimate D2E/DX2                !
 ! R35   R(31,34)                1.07           estimate D2E/DX2                !
 ! A1    A(5,1,6)              120.0271         estimate D2E/DX2                !
 ! A2    A(5,1,21)             120.1167         estimate D2E/DX2                !
 ! A3    A(6,1,21)             119.8561         estimate D2E/DX2                !
 ! A4    A(3,2,9)              120.4445         estimate D2E/DX2                !
 ! A5    A(3,2,21)             120.0202         estimate D2E/DX2                !
 ! A6    A(9,2,21)             119.5342         estimate D2E/DX2                !
 ! A7    A(2,3,4)              119.9843         estimate D2E/DX2                !
 ! A8    A(2,3,7)              119.9507         estimate D2E/DX2                !
 ! A9    A(4,3,7)              120.0647         estimate D2E/DX2                !
 ! A10   A(3,4,5)              119.9919         estimate D2E/DX2                !
 ! A11   A(3,4,8)              120.0758         estimate D2E/DX2                !
 ! A12   A(5,4,8)              119.9323         estimate D2E/DX2                !
 ! A13   A(1,5,4)              119.8669         estimate D2E/DX2                !
 ! A14   A(1,5,30)             120.2035         estimate D2E/DX2                !
 ! A15   A(4,5,30)             119.9297         estimate D2E/DX2                !
 ! A16   A(12,13,14)           119.3845         estimate D2E/DX2                !
 ! A17   A(12,13,23)           120.6276         estimate D2E/DX2                !
 ! A18   A(14,13,23)           119.9876         estimate D2E/DX2                !
 ! A19   A(13,14,15)           119.9374         estimate D2E/DX2                !
 ! A20   A(13,14,16)           119.995          estimate D2E/DX2                !
 ! A21   A(15,14,16)           120.0673         estimate D2E/DX2                !
 ! A22   A(14,15,18)           120.2768         estimate D2E/DX2                !
 ! A23   A(14,15,19)           119.9719         estimate D2E/DX2                !
 ! A24   A(18,15,19)           119.7508         estimate D2E/DX2                !
 ! A25   A(18,17,20)           119.9168         estimate D2E/DX2                !
 ! A26   A(18,17,23)           120.0105         estimate D2E/DX2                !
 ! A27   A(20,17,23)           120.0725         estimate D2E/DX2                !
 ! A28   A(15,18,17)           119.7908         estimate D2E/DX2                !
 ! A29   A(15,18,25)           119.7414         estimate D2E/DX2                !
 ! A30   A(17,18,25)           120.4678         estimate D2E/DX2                !
 ! A31   A(1,21,2)             119.9989         estimate D2E/DX2                !
 ! A32   A(1,21,22)            120.1208         estimate D2E/DX2                !
 ! A33   A(2,21,22)            119.8803         estimate D2E/DX2                !
 ! A34   A(13,23,17)           119.981          estimate D2E/DX2                !
 ! A35   A(13,23,24)           120.0126         estimate D2E/DX2                !
 ! A36   A(17,23,24)           120.0063         estimate D2E/DX2                !
 ! A37   A(18,25,26)           109.5875         estimate D2E/DX2                !
 ! A38   A(25,26,27)           109.492          estimate D2E/DX2                !
 ! A39   A(25,26,28)           109.4807         estimate D2E/DX2                !
 ! A40   A(25,26,29)           109.499          estimate D2E/DX2                !
 ! A41   A(27,26,28)           109.4876         estimate D2E/DX2                !
 ! A42   A(27,26,29)           109.4376         estimate D2E/DX2                !
 ! A43   A(28,26,29)           109.4303         estimate D2E/DX2                !
 ! A44   A(5,30,31)            109.5            estimate D2E/DX2                !
 ! A45   A(30,31,32)           109.4712         estimate D2E/DX2                !
 ! A46   A(30,31,33)           109.4712         estimate D2E/DX2                !
 ! A47   A(30,31,34)           109.4712         estimate D2E/DX2                !
 ! A48   A(32,31,33)           109.4713         estimate D2E/DX2                !
 ! A49   A(32,31,34)           109.4712         estimate D2E/DX2                !
 ! A50   A(33,31,34)           109.4712         estimate D2E/DX2                !
 ! A51   L(2,9,10,22,-1)       180.414          estimate D2E/DX2                !
 ! A52   L(9,10,11,7,-1)       179.9158         estimate D2E/DX2                !
 ! A53   L(10,11,12,16,-1)     179.9501         estimate D2E/DX2                !
 ! A54   L(11,12,13,16,-1)     179.9787         estimate D2E/DX2                !
 ! A55   L(2,9,10,22,-2)       179.9487         estimate D2E/DX2                !
 ! A56   L(9,10,11,7,-2)       180.0197         estimate D2E/DX2                !
 ! A57   L(10,11,12,16,-2)     180.0079         estimate D2E/DX2                !
 ! A58   L(11,12,13,16,-2)     180.0052         estimate D2E/DX2                !
 ! D1    D(6,1,5,4)            179.6809         estimate D2E/DX2                !
 ! D2    D(6,1,5,30)            -0.2906         estimate D2E/DX2                !
 ! D3    D(21,1,5,4)            -0.4619         estimate D2E/DX2                !
 ! D4    D(21,1,5,30)          179.5667         estimate D2E/DX2                !
 ! D5    D(5,1,21,2)             1.3931         estimate D2E/DX2                !
 ! D6    D(5,1,21,22)         -178.6511         estimate D2E/DX2                !
 ! D7    D(6,1,21,2)          -178.7494         estimate D2E/DX2                !
 ! D8    D(6,1,21,22)            1.2064         estimate D2E/DX2                !
 ! D9    D(9,2,3,4)           -179.957          estimate D2E/DX2                !
 ! D10   D(9,2,3,7)             -0.1716         estimate D2E/DX2                !
 ! D11   D(21,2,3,4)            -0.3401         estimate D2E/DX2                !
 ! D12   D(21,2,3,7)           179.4453         estimate D2E/DX2                !
 ! D13   D(3,2,13,14)           -5.833          estimate D2E/DX2                !
 ! D14   D(3,2,13,23)          174.3759         estimate D2E/DX2                !
 ! D15   D(21,2,13,14)         174.5006         estimate D2E/DX2                !
 ! D16   D(21,2,13,23)          -5.2905         estimate D2E/DX2                !
 ! D17   D(3,2,21,1)            -0.9897         estimate D2E/DX2                !
 ! D18   D(3,2,21,22)          179.0543         estimate D2E/DX2                !
 ! D19   D(9,2,21,1)           178.6307         estimate D2E/DX2                !
 ! D20   D(9,2,21,22)           -1.3253         estimate D2E/DX2                !
 ! D21   D(2,3,4,5)              1.2706         estimate D2E/DX2                !
 ! D22   D(2,3,4,8)           -178.7738         estimate D2E/DX2                !
 ! D23   D(7,3,4,5)           -178.5145         estimate D2E/DX2                !
 ! D24   D(7,3,4,8)              1.4411         estimate D2E/DX2                !
 ! D25   D(3,4,5,1)             -0.8683         estimate D2E/DX2                !
 ! D26   D(3,4,5,30)           179.1032         estimate D2E/DX2                !
 ! D27   D(8,4,5,1)            179.176          estimate D2E/DX2                !
 ! D28   D(8,4,5,30)            -0.8525         estimate D2E/DX2                !
 ! D29   D(1,5,30,31)           -4.7507         estimate D2E/DX2                !
 ! D30   D(4,5,30,31)          175.2779         estimate D2E/DX2                !
 ! D31   D(12,13,14,15)        178.8649         estimate D2E/DX2                !
 ! D32   D(12,13,14,16)         -0.9255         estimate D2E/DX2                !
 ! D33   D(23,13,14,15)         -1.3345         estimate D2E/DX2                !
 ! D34   D(23,13,14,16)        178.8751         estimate D2E/DX2                !
 ! D35   D(12,13,23,17)       -179.3623         estimate D2E/DX2                !
 ! D36   D(12,13,23,24)          0.7318         estimate D2E/DX2                !
 ! D37   D(14,13,23,17)          0.8396         estimate D2E/DX2                !
 ! D38   D(14,13,23,24)       -179.0663         estimate D2E/DX2                !
 ! D39   D(13,14,15,18)          0.6651         estimate D2E/DX2                !
 ! D40   D(13,14,15,19)       -179.0888         estimate D2E/DX2                !
 ! D41   D(16,14,15,18)       -179.5447         estimate D2E/DX2                !
 ! D42   D(16,14,15,19)          0.7015         estimate D2E/DX2                !
 ! D43   D(14,15,18,17)          0.4979         estimate D2E/DX2                !
 ! D44   D(14,15,18,25)       -179.5601         estimate D2E/DX2                !
 ! D45   D(19,15,18,17)       -179.7477         estimate D2E/DX2                !
 ! D46   D(19,15,18,25)          0.1943         estimate D2E/DX2                !
 ! D47   D(20,17,18,15)        179.1808         estimate D2E/DX2                !
 ! D48   D(20,17,18,25)         -0.7608         estimate D2E/DX2                !
 ! D49   D(23,17,18,15)         -0.9926         estimate D2E/DX2                !
 ! D50   D(23,17,18,25)        179.0658         estimate D2E/DX2                !
 ! D51   D(18,17,23,13)          0.3246         estimate D2E/DX2                !
 ! D52   D(18,17,23,24)       -179.7695         estimate D2E/DX2                !
 ! D53   D(20,17,23,13)       -179.849          estimate D2E/DX2                !
 ! D54   D(20,17,23,24)          0.0568         estimate D2E/DX2                !
 ! D55   D(15,18,25,26)          4.7507         estimate D2E/DX2                !
 ! D56   D(17,18,25,26)       -175.3077         estimate D2E/DX2                !
 ! D57   D(18,25,26,27)        177.1914         estimate D2E/DX2                !
 ! D58   D(18,25,26,28)        -62.7699         estimate D2E/DX2                !
 ! D59   D(18,25,26,29)         57.2028         estimate D2E/DX2                !
 ! D60   D(5,30,31,32)        -179.5777         estimate D2E/DX2                !
 ! D61   D(5,30,31,33)         -59.5777         estimate D2E/DX2                !
 ! D62   D(5,30,31,34)          60.4223         estimate D2E/DX2                !
 --------------------------------------------------------------------------------
 Trust Radius=3.00D-01 FncErr=1.00D-07 GrdErr=1.00D-06
 Number of steps in this run=    165 maximum allowed number of steps=    204.
 GradGradGradGradGradGradGradGradGradGradGradGradGradGradGradGradGradGrad

                          Input orientation:                          
 ---------------------------------------------------------------------
 Center     Atomic      Atomic             Coordinates (Angstroms)
 Number     Number       Type             X           Y           Z
 ---------------------------------------------------------------------
      1          6           0       -4.012799   -1.056112    2.521175
      2          6           0       -2.736491    0.372541    1.034223
      3          6           0       -2.018623    0.872041    2.130871
      4          6           0       -2.311758    0.418178    3.427240
      5          6           0       -3.302093   -0.552184    3.621796
      6          1           0       -4.765543   -1.800368    2.666121
      7          1           0       -1.245493    1.596328    1.978355
      8          1           0       -1.778373    0.812740    4.267073
      9          6           0       -2.422286    0.863504   -0.396081
     10          6           0       -2.173069    1.249905   -1.501694
     11          6           0       -1.849444    1.751081   -2.930290
     12          6           0       -1.596797    2.142196   -4.042547
     13          6           0       -1.276896    2.637449   -5.449440
     14          6           0       -0.352525    3.676790   -5.618848
     15          6           0       -0.032512    4.124231   -6.906158
     16          1           0        0.111496    4.126335   -4.762991
     17          6           0       -1.585283    2.524099   -7.853339
     18          6           0       -0.641645    3.547991   -8.024052
     19          1           0        0.682457    4.906072   -7.036599
     20          1           0       -2.061439    2.091550   -8.705093
     21          6           0       -3.739134   -0.582492    1.230599
     22          1           0       -4.296276   -0.951227    0.393302
     23          6           0       -1.899638    2.067134   -6.564379
     24          1           0       -2.614883    1.285592   -6.434809
     25          8           0       -0.299418    4.007215   -9.333608
     26          6           0        0.753871    4.968688   -9.244046
     27          1           0        1.042184    5.275010  -10.227704
     28          1           0        0.414615    5.819030   -8.690505
     29          1           0        1.594857    4.532039   -8.746093
     30          8           0       -3.586183   -1.027327    4.940293
     31          6           0       -4.699750   -1.923335    4.895178
     32          1           0       -4.916556   -2.272851    5.882971
     33          1           0       -5.553521   -1.411716    4.502467
     34          1           0       -4.462403   -2.755879    4.266340
 ---------------------------------------------------------------------
                    Distance matrix (angstroms):
                    1          2          3          4          5
     1  C    0.000000
     2  C    2.425085   0.000000
     3  C    2.801223   1.402667   0.000000
     4  C    2.426525   2.430846   1.404454   0.000000
     5  C    1.403714   2.805451   2.428697   1.400078   0.000000
     6  H    1.068433   3.391412   3.869604   3.394453   2.147781
     7  H    3.871444   2.147584   1.070319   2.150401   3.398030
     8  H    3.396090   3.400454   2.150487   1.070280   2.145023
     9  C    3.837323   1.544519   2.559005   3.850755   4.349893
    10  C    4.988567   2.741913   3.655429   5.000539   5.547285
    11  C    6.502224   4.290057   5.139717   6.512185   7.095425
    12  C    7.690819   5.495832   6.316829   7.699423   8.301197
    13  C    9.200993   7.021261   7.818436   9.208232   9.826622
    14  C   10.102374   7.801584   8.408368   9.812689  10.581762
    15  C   11.469666   9.188924   9.807613  11.211998  11.974841
    16  H    9.845133   7.470588   7.915376   9.311416  10.190475
    17  C   11.240164   9.216466  10.129242  11.498440  12.003736
    18  C   11.990173   9.824673  10.591470  11.988206  12.629932
    19  H   12.204266   9.868144  10.373608  11.772784  12.620245
    20  H   11.821365   9.912868  10.904455  12.249748  12.668099
    21  C    1.401711   1.398551   2.426173   2.804277   2.430997
    22  H    2.149234   2.143844   3.395756   3.875353   3.401589
    23  C    9.837043   7.830116   8.777800  10.135154  10.610649
    24  H    9.362019   7.525615   8.596361   9.904761  10.246218
    25  O   13.415006  11.253537  12.009133  13.407831  14.058687
    26  C   14.051328  11.787706  12.403951  13.808212  14.576034
    27  H   15.105294  12.850821  13.471788  14.875996  15.640895
    28  H   13.877008  11.582920  12.144773  13.544078  14.352667
    29  H   13.770424  11.476784  12.031674  13.430395  14.240580
    30  O    2.456615   4.235444   3.735999   2.450096   1.430000
    31  C    2.619135   4.902286   4.758568   3.652401   2.335595
    32  H    3.687668   5.938109   5.689166   4.478529   3.268041
    33  H    2.534915   4.811231   4.830685   3.874745   2.565795
    34  H    2.477287   4.817921   4.867658   3.924793   2.572552
                    6          7          8          9         10
     6  H    0.000000
     7  H    4.939769   0.000000
     8  H    4.279552   2.477136   0.000000
     9  C    4.686593   2.749513   4.707676   0.000000
    10  C    5.778907   3.618169   5.798756   1.197411   0.000000
    11  C    7.241287   4.948081   7.258621   2.745570   1.548159
    12  C    8.401844   6.055795   8.417257   3.951354   2.753944
    13  C    9.885707   7.500471   9.899074   5.476791   4.279381
    14  C   10.868059   7.927371  10.390730   6.282976   5.114207
    15  C   12.211919   9.316447  11.783679   7.663188   6.484748
    16  H   10.681902   7.327217   9.802733   6.011324   4.912143
    17  C   11.809916   9.881216  12.242158   7.685626   6.504803
    18  C   12.644812  10.208906  12.643002   8.280283   7.082910
    19  H   12.992298   9.794937  12.271270   8.371276   7.221964
    20  H   12.319241  10.726000  13.038120   8.407020   7.253260
    21  C    2.144169   3.394797   3.874459   2.543833   3.643579
    22  H    2.471226   4.278984   4.945455   2.725474   3.597777
    23  C   10.410241   8.580668  10.904520   6.306329   5.135505
    24  H    9.847610   8.529544  10.744935   6.056524   4.952989
    25  O   14.059438  11.604652  14.048862   9.709216   8.511886
    26  C   14.769433  11.887496  14.360868  10.258021   9.074158
    27  H   15.812697  12.951990  15.426146  11.319220  10.133241
    28  H   14.624029  11.593608  14.063106  10.069891   8.902360
    29  H   14.518702  11.476052  13.948275   9.965856   8.800624
    30  O    2.675881   4.597333   2.665942   5.779860   6.977239
    31  C    2.233416   5.729553   4.051552   6.399277   7.574533
    32  H    3.254868   6.610089   4.688303   7.448798   8.629589
    33  H    2.035712   5.829114   4.388093   6.243159   7.386584
    34  H    1.888278   5.875806   4.465318   6.245013   7.386310
                   11         12         13         14         15
    11  C    0.000000
    12  C    1.205785   0.000000
    13  C    2.731223   1.525438   0.000000
    14  C    3.630079   2.527433   1.401211   0.000000
    15  C    4.973993   3.817815   2.425085   1.399920   0.000000
    16  H    3.584119   2.715531   2.148400   1.072332   2.148000
    17  C    4.990366   3.829898   2.426249   2.800239   2.422534
    18  C    5.534805   4.329082   2.803793   2.425940   1.397420
    19  H    5.764223   4.668871   3.391871   2.142974   1.067460
    20  H    5.788714   4.685914   3.393050   3.867594   3.388879
    21  C    5.131227   6.310278   7.813678   8.747888  10.104410
    22  H    4.933124   6.044270   7.492188   8.550887   9.860125
    23  C    3.648152   2.541060   1.398627   2.424579   2.799039
    24  H    3.617213   2.737368   2.142120   3.391443   3.866352
    25  O    6.963850   5.758196   4.233023   3.729805   2.444882
    26  C    7.549422   6.369482   4.894663   4.004394   2.607150
    27  H    8.604176   7.418552   5.930149   5.073566   3.675859
    28  H    7.406365   6.258466   4.846459   3.822665   2.501232
    29  H    7.308933   6.166145   4.764909   3.781984   2.489980
    30  O    8.525367   9.731132  11.256550  12.003363  13.397966
    31  C    9.102941  10.297563  11.812189  12.680873  14.058012
    32  H   10.162321  11.359108  12.875624  13.730275  15.110868
    33  H    8.886470  10.064950  11.563983  12.465323  13.830580
    34  H    8.884353  10.061831  11.559923  12.489487  13.848630
                   16         17         18         19         20
    16  H    0.000000
    17  C    3.872527   0.000000
    18  C    3.396501   1.402836   0.000000
    19  H    2.470482   3.388732   2.138386   0.000000
    20  H    4.939854   1.067384   2.144960   4.270172   0.000000
    21  C    8.539528   9.839102  10.597353  10.863764  10.425121
    22  H    8.473337   9.350639  10.220133  10.691078   9.850572
    23  C    3.395580   1.403230   2.430253   3.866494   2.146959
    24  H    4.277608   2.146207   3.396735   4.933809   2.471853
    25  O    4.590597   2.458511   1.429316   2.654859   2.677597
    26  C    4.604570   3.658104   2.335430   2.209490   4.061326
    27  H    5.661159   4.484273   3.267103   3.232441   4.699494
    28  H    4.287477   3.944237   2.591808   1.908045   4.474949
    29  H    4.269667   3.865504   2.547869   1.973511   4.396154
    30  O   11.592531  13.427332  14.059803  14.031124  14.080084
    31  C   12.370401  13.856561  14.605140  14.764019  14.423847
    32  H   13.400276  14.926296  15.670429  15.805099  15.492297
    33  H   12.190616  13.561102  14.340114  14.558568  14.103444
    34  H   12.239863  13.529324  14.331458  14.592173  14.054190
                   21         22         23         24         25
    21  C    0.000000
    22  H    1.071186   0.000000
    23  C    8.435991   7.953848   0.000000
    24  H    7.969452   7.379264   1.067319   0.000000
    25  O   12.020796  11.626427   3.740755   4.601266   0.000000
    26  C   12.677575  12.386600   4.758229   5.727610   1.428940
    27  H   13.728221  13.419052   5.689002   6.608755   2.051002
    28  H   12.516446  12.269654   4.894171   5.900685   2.050878
    29  H   12.415486  12.177856   4.800743   5.796841   2.051558
    30  O    3.739398   4.602733  12.032356  11.648431  15.488501
    31  C    4.018679   4.623276  12.453350  11.958783  16.030992
    32  H    5.088044   5.680484  13.523083  13.026431  17.096826
    33  H    3.832065   4.321799  12.162579  11.641953  15.760945
    34  H    3.802953   4.276072  12.129868  11.587122  15.748920
                   26         27         28         29         30
    26  C    0.000000
    27  H    1.069832   0.000000
    28  H    1.069852   1.747222   0.000000
    29  H    1.070457   1.747176   1.747114   0.000000
    30  O   15.999492  17.064857  15.769515  15.654612   0.000000
    31  C   16.648112  17.705580  16.452104  16.351704   1.430000
    32  H   17.703680  18.762480  17.501032  17.398693   2.051796
    33  H   16.415218  17.469790  16.185080  16.184927   2.051796
    34  H   16.413683  17.460612  16.284784  16.097439   2.051796
                   31         32         33         34
    31  C    0.000000
    32  H    1.070000   0.000000
    33  H    1.070000   1.747303   0.000000
    34  H    1.070000   1.747303   1.747303   0.000000
 Stoichiometry    C18H14O2
 Framework group  C1[X(C18H14O2)]
 Deg. of freedom    96
 Full point group                 C1      NOp   1
 Largest Abelian subgroup         C1      NOp   1
 Largest concise Abelian subgroup C1      NOp   1
                         Standard orientation:                         
 ---------------------------------------------------------------------
 Center     Atomic      Atomic             Coordinates (Angstroms)
 Number     Number       Type             X           Y           Z
 ---------------------------------------------------------------------
      1          6           0        5.668383   -0.913169    0.000309
      2          6           0        3.504351    0.181366   -0.000518
      3          6           0        4.137403    1.432194   -0.046872
      4          6           0        5.539725    1.509380   -0.051914
      5          6           0        6.305227    0.337195   -0.037555
      6          1           0        6.249959   -1.809430    0.006192
      7          1           0        3.551010    2.326903   -0.081842
      8          1           0        6.024333    2.463537   -0.067442
      9          6           0        1.962908    0.084069    0.004475
     10          6           0        0.767367    0.017301    0.008837
     11          6           0       -0.778498   -0.066743    0.014708
     12          6           0       -1.982551   -0.131162    0.019457
     13          6           0       -3.505828   -0.212103    0.025617
     14          6           0       -4.256705    0.968023    0.108545
     15          6           0       -5.655267    0.908903    0.091111
     16          1           0       -3.759892    1.915490    0.181884
     17          6           0       -5.555942   -1.507290   -0.053161
     18          6           0       -6.307310   -0.324080    0.005235
     19          1           0       -6.227697    1.808596    0.139584
     20          1           0       -6.052061   -2.450914   -0.105579
     21          6           0        4.269121   -0.989068    0.033492
     22          1           0        3.783553   -1.942531    0.084185
     23          6           0       -4.153922   -1.449422   -0.046307
     24          1           0       -3.582315   -2.349487   -0.094451
     25          8           0       -7.735626   -0.370525   -0.021220
     26          6           0       -8.257515    0.959118   -0.060594
     27          1           0       -9.324463    0.921926   -0.129738
     28          1           0       -7.975540    1.479613    0.830562
     29          1           0       -7.862993    1.472722   -0.912909
     30          8           0        7.732788    0.416979   -0.062103
     31          6           0        8.286531   -0.894840    0.069805
     32          1           0        9.354734   -0.833839    0.058777
     33          1           0        7.963488   -1.327094    0.993764
     34          1           0        7.955711   -1.505158   -0.744425
 ---------------------------------------------------------------------
 Rotational constants (GHZ):      2.2207266      0.0638923      0.0621632
 Standard basis: 6-31+G(d) (6D, 7F)
 There are   408 symmetry adapted cartesian basis functions of A   symmetry.
 There are   408 symmetry adapted basis functions of A   symmetry.
   408 basis functions,   696 primitive gaussians,   408 cartesian basis functions
    69 alpha electrons       69 beta electrons
       nuclear repulsion energy      1175.7490402088 Hartrees.
 NAtoms=   34 NActive=   34 NUniq=   34 SFac= 1.00D+00 NAtFMM=   60 NAOKFM=F Big=F
 Integral buffers will be    131072 words long.
 Raffenetti 2 integral format.
 Two-electron integral symmetry is turned on.
 Nuclear repulsion after empirical dispersion term =     1175.7263486369 Hartrees.
 One-electron integrals computed using PRISM.
 NBasis=   408 RedAO= T EigKep=  1.60D-06  NBF=   408
 NBsUse=   402 1.00D-06 EigRej=  6.75D-07 NBFU=   402
 ExpMin= 4.38D-02 ExpMax= 5.48D+03 ExpMxC= 8.25D+02 IAcc=2 IRadAn=         4 AccDes= 0.00D+00
 Harris functional with IExCor=  402 and IRadAn=       4 diagonalized for initial guess.
 HarFok:  IExCor=  402 AccDes= 0.00D+00 IRadAn=         4 IDoV= 1 UseB2=F ITyADJ=14
 ICtDFT=  3500011 ScaDFX=  1.000000  1.000000  1.000000  1.000000
 FoFCou: FMM=F IPFlag=           0 FMFlag=      100000 FMFlg1=           0
         NFxFlg=           0 DoJE=T BraDBF=F KetDBF=T FulRan=T
         wScrn=  0.000000 ICntrl=     500 IOpCl=  0 I1Cent=   200000004 NGrid=           0
         NMat0=    1 NMatS0=      1 NMatT0=    0 NMatD0=    1 NMtDS0=    0 NMtDT0=    0
 Petite list used in FoFCou.
 Requested convergence on RMS density matrix=1.00D-08 within 128 cycles.
 Requested convergence on MAX density matrix=1.00D-06.
 Requested convergence on             energy=1.00D-06.
 No special actions if energy rises.
 SCF Done:  E(RB3LYP) =  -844.660175993     A.U. after   15 cycles
            NFock= 15  Conv=0.22D-08     -V/T= 2.0101

 **********************************************************************

            Population analysis using the SCF density.

 **********************************************************************

 Orbital symmetries:
       Occupied  (A) (A) (A) (A) (A) (A) (A) (A) (A) (A) (A) (A)
                 (A) (A) (A) (A) (A) (A) (A) (A) (A) (A) (A) (A)
                 (A) (A) (A) (A) (A) (A) (A) (A) (A) (A) (A) (A)
                 (A) (A) (A) (A) (A) (A) (A) (A) (A) (A) (A) (A)
                 (A) (A) (A) (A) (A) (A) (A) (A) (A) (A) (A) (A)
                 (A) (A) (A) (A) (A) (A) (A) (A) (A)
       Virtual   (A) (A) (A) (A) (A) (A) (A) (A) (A) (A) (A) (A)
                 (A) (A) (A) (A) (A) (A) (A) (A) (A) (A) (A) (A)
                 (A) (A) (A) (A) (A) (A) (A) (A) (A) (A) (A) (A)
                 (A) (A) (A) (A) (A) (A) (A) (A) (A) (A) (A) (A)
                 (A) (A) (A) (A) (A) (A) (A) (A) (A) (A) (A) (A)
                 (A) (A) (A) (A) (A) (A) (A) (A) (A) (A) (A) (A)
                 (A) (A) (A) (A) (A) (A) (A) (A) (A) (A) (A) (A)
                 (A) (A) (A) (A) (A) (A) (A) (A) (A) (A) (A) (A)
                 (A) (A) (A) (A) (A) (A) (A) (A) (A) (A) (A) (A)
                 (A) (A) (A) (A) (A) (A) (A) (A) (A) (A) (A) (A)
                 (A) (A) (A) (A) (A) (A) (A) (A) (A) (A) (A) (A)
                 (A) (A) (A) (A) (A) (A) (A) (A) (A) (A) (A) (A)
                 (A) (A) (A) (A) (A) (A) (A) (A) (A) (A) (A) (A)
                 (A) (A) (A) (A) (A) (A) (A) (A) (A) (A) (A) (A)
                 (A) (A) (A) (A) (A) (A) (A) (A) (A) (A) (A) (A)
                 (A) (A) (A) (A) (A) (A) (A) (A) (A) (A) (A) (A)
                 (A) (A) (A) (A) (A) (A) (A) (A) (A) (A) (A) (A)
                 (A) (A) (A) (A) (A) (A) (A) (A) (A) (A) (A) (A)
                 (A) (A) (A) (A) (A) (A) (A) (A) (A) (A) (A) (A)
                 (A) (A) (A) (A) (A) (A) (A) (A) (A) (A) (A) (A)
                 (A) (A) (A) (A) (A) (A) (A) (A) (A) (A) (A) (A)
                 (A) (A) (A) (A) (A) (A) (A) (A) (A) (A) (A) (A)
                 (A) (A) (A) (A) (A) (A) (A) (A) (A) (A) (A) (A)
                 (A) (A) (A) (A) (A) (A) (A) (A) (A) (A) (A) (A)
                 (A) (A) (A) (A) (A) (A) (A) (A) (A) (A) (A) (A)
                 (A) (A) (A) (A) (A) (A) (A) (A) (A) (A) (A) (A)
                 (A) (A) (A) (A) (A) (A) (A) (A) (A) (A) (A) (A)
                 (A) (A) (A) (A) (A) (A) (A) (A) (A)
 The electronic state is 1-A.
 Alpha  occ. eigenvalues --  -19.19668 -19.19666 -10.26789 -10.26738 -10.24074
 Alpha  occ. eigenvalues --  -10.24062 -10.23661 -10.23479 -10.22561 -10.22416
 Alpha  occ. eigenvalues --  -10.21369 -10.21324 -10.21310 -10.21288 -10.21279
 Alpha  occ. eigenvalues --  -10.21210 -10.20784 -10.20764 -10.20696 -10.20558
 Alpha  occ. eigenvalues --   -1.06346  -1.06288  -0.87356  -0.87263  -0.79423
 Alpha  occ. eigenvalues --   -0.78353  -0.76981  -0.76913  -0.75783  -0.73708
 Alpha  occ. eigenvalues --   -0.71451  -0.71060  -0.63415  -0.63256  -0.62015
 Alpha  occ. eigenvalues --   -0.61191  -0.57235  -0.55649  -0.54460  -0.50985
 Alpha  occ. eigenvalues --   -0.49937  -0.49581  -0.49425  -0.48216  -0.48186
 Alpha  occ. eigenvalues --   -0.47248  -0.47162  -0.44583  -0.44573  -0.42715
 Alpha  occ. eigenvalues --   -0.42676  -0.40023  -0.39764  -0.39477  -0.39339
 Alpha  occ. eigenvalues --   -0.38414  -0.38352  -0.35276  -0.34848  -0.34748
 Alpha  occ. eigenvalues --   -0.34087  -0.33002  -0.31898  -0.28457  -0.27028
 Alpha  occ. eigenvalues --   -0.26964  -0.26492  -0.24511  -0.22258
 Alpha virt. eigenvalues --   -0.04915  -0.02835  -0.02781  -0.01771  -0.00541
 Alpha virt. eigenvalues --   -0.00123   0.00019   0.01318   0.01884   0.02093
 Alpha virt. eigenvalues --    0.02224   0.03239   0.03502   0.03574   0.03867
 Alpha virt. eigenvalues --    0.04396   0.04984   0.05295   0.05450   0.05594
 Alpha virt. eigenvalues --    0.06410   0.07225   0.07314   0.07660   0.08553
 Alpha virt. eigenvalues --    0.08786   0.08850   0.09226   0.09858   0.10028
 Alpha virt. eigenvalues --    0.10237   0.10312   0.11063   0.11436   0.11788
 Alpha virt. eigenvalues --    0.12737   0.12929   0.13067   0.13100   0.13251
 Alpha virt. eigenvalues --    0.13343   0.13571   0.14291   0.14490   0.14552
 Alpha virt. eigenvalues --    0.14847   0.15264   0.15336   0.15595   0.15877
 Alpha virt. eigenvalues --    0.16030   0.17662   0.17823   0.18134   0.18348
 Alpha virt. eigenvalues --    0.18877   0.19031   0.19140   0.19820   0.19869
 Alpha virt. eigenvalues --    0.20592   0.20676   0.21270   0.21610   0.22114
 Alpha virt. eigenvalues --    0.22257   0.22309   0.22778   0.23151   0.23323
 Alpha virt. eigenvalues --    0.23344   0.23402   0.24234   0.24838   0.24958
 Alpha virt. eigenvalues --    0.25481   0.25741   0.26196   0.26273   0.26604
 Alpha virt. eigenvalues --    0.27380   0.27593   0.28285   0.28642   0.28805
 Alpha virt. eigenvalues --    0.29564   0.29881   0.30313   0.30878   0.30979
 Alpha virt. eigenvalues --    0.31643   0.32369   0.32529   0.32655   0.33284
 Alpha virt. eigenvalues --    0.34004   0.34188   0.35082   0.35810   0.36143
 Alpha virt. eigenvalues --    0.36781   0.36999   0.37325   0.37683   0.38667
 Alpha virt. eigenvalues --    0.40254   0.41755   0.42011   0.42243   0.44553
 Alpha virt. eigenvalues --    0.46158   0.49878   0.51486   0.56936   0.57394
 Alpha virt. eigenvalues --    0.60056   0.60294   0.64402   0.64570   0.65309
 Alpha virt. eigenvalues --    0.66549   0.67349   0.67597   0.67810   0.67973
 Alpha virt. eigenvalues --    0.68305   0.68353   0.68678   0.70583   0.71089
 Alpha virt. eigenvalues --    0.71159   0.71331   0.71714   0.72075   0.72771
 Alpha virt. eigenvalues --    0.73610   0.73830   0.74054   0.74914   0.75927
 Alpha virt. eigenvalues --    0.76889   0.77076   0.77365   0.78033   0.79205
 Alpha virt. eigenvalues --    0.79489   0.80708   0.82422   0.82700   0.83337
 Alpha virt. eigenvalues --    0.83856   0.85866   0.86460   0.89194   0.89487
 Alpha virt. eigenvalues --    0.91827   0.92639   0.92968   0.93488   0.93681
 Alpha virt. eigenvalues --    0.93818   0.94345   0.94589   0.95551   0.96923
 Alpha virt. eigenvalues --    0.97153   0.97921   0.98554   0.98933   1.03742
 Alpha virt. eigenvalues --    1.03838   1.04999   1.07741   1.08142   1.08572
 Alpha virt. eigenvalues --    1.09443   1.10686   1.13279   1.13737   1.15257
 Alpha virt. eigenvalues --    1.15997   1.16081   1.17559   1.17993   1.19239
 Alpha virt. eigenvalues --    1.19342   1.20150   1.20442   1.21224   1.22538
 Alpha virt. eigenvalues --    1.23081   1.23387   1.26332   1.26852   1.27861
 Alpha virt. eigenvalues --    1.28124   1.29495   1.30044   1.31456   1.31840
 Alpha virt. eigenvalues --    1.31888   1.36981   1.37085   1.38322   1.39590
 Alpha virt. eigenvalues --    1.42383   1.42812   1.43375   1.43761   1.44623
 Alpha virt. eigenvalues --    1.44789   1.46534   1.46589   1.48106   1.48378
 Alpha virt. eigenvalues --    1.48602   1.50369   1.52032   1.52304   1.52480
 Alpha virt. eigenvalues --    1.54602   1.56604   1.57271   1.59059   1.62103
 Alpha virt. eigenvalues --    1.63585   1.65652   1.70266   1.71298   1.78748
 Alpha virt. eigenvalues --    1.80699   1.82020   1.82750   1.83556   1.83745
 Alpha virt. eigenvalues --    1.84828   1.85549   1.86585   1.86895   1.87915
 Alpha virt. eigenvalues --    1.88044   1.91997   1.94316   1.95974   1.96138
 Alpha virt. eigenvalues --    1.97608   1.98927   1.99359   1.99818   2.00437
 Alpha virt. eigenvalues --    2.02063   2.03606   2.05615   2.07901   2.08390
 Alpha virt. eigenvalues --    2.09348   2.10647   2.12246   2.12343   2.12711
 Alpha virt. eigenvalues --    2.13524   2.16627   2.16796   2.17676   2.18010
 Alpha virt. eigenvalues --    2.19223   2.23335   2.23834   2.26892   2.27592
 Alpha virt. eigenvalues --    2.28271   2.28720   2.30257   2.30638   2.35833
 Alpha virt. eigenvalues --    2.36069   2.38178   2.41713   2.43193   2.46800
 Alpha virt. eigenvalues --    2.47303   2.47485   2.48939   2.52553   2.53175
 Alpha virt. eigenvalues --    2.57344   2.59474   2.61500   2.62880   2.63157
 Alpha virt. eigenvalues --    2.63865   2.66217   2.69649   2.71199   2.76371
 Alpha virt. eigenvalues --    2.76763   2.78697   2.79871   2.83131   2.85957
 Alpha virt. eigenvalues --    2.86461   2.92108   2.94322   2.95752   3.01267
 Alpha virt. eigenvalues --    3.03779   3.04088   3.12856   3.18155   3.22072
 Alpha virt. eigenvalues --    3.38406   3.44605   3.63742   4.07002   4.20576
 Alpha virt. eigenvalues --    4.21305   4.23320   4.23483   4.26396   4.26676
 Alpha virt. eigenvalues --    4.30485   4.31394   4.38372   4.39767   4.43582
 Alpha virt. eigenvalues --    4.43745   4.47563   4.47676   4.60738   4.64706
 Alpha virt. eigenvalues --    4.80323   4.83863   5.24100
          Condensed to atoms (all electrons):
               1          2          3          4          5          6
     1  C    9.908325  -1.320368   0.165936  -2.097524  -0.250353   0.253736
     2  C   -1.320368  10.108223  -2.391923   1.214782  -0.424324   0.014464
     3  C    0.165936  -2.391923  12.023751  -1.261605  -1.250546   0.004957
     4  C   -2.097524   1.214782  -1.261605  11.262617  -0.654121  -0.011447
     5  C   -0.250353  -0.424324  -1.250546  -0.654121   8.828130  -0.002815
     6  H    0.253736   0.014464   0.004957  -0.011447  -0.002815   0.549449
     7  H   -0.009397  -0.055283   0.407407  -0.126952   0.024375   0.000018
     8  H    0.033365   0.024642  -0.119447   0.360158   0.003748  -0.000163
     9  C    0.808704  -1.636802   1.813663  -0.633841  -0.581686  -0.010324
    10  C   -0.044600   0.229542   0.261904   0.009669  -0.156326   0.000080
    11  C    0.280803  -1.019450   0.395533  -0.098874  -0.034189  -0.000223
    12  C    0.005180  -0.346026   0.105870  -0.019769  -0.013771  -0.000003
    13  C    0.017774  -0.171061   0.032287  -0.005697  -0.001185  -0.000001
    14  C    0.001111  -0.055983   0.005312  -0.001059  -0.000249   0.000000
    15  C   -0.000194   0.018426  -0.001429   0.000283   0.000081   0.000000
    16  H    0.000000   0.000004   0.000004   0.000000   0.000000   0.000000
    17  C    0.000294  -0.006430   0.000692  -0.000099  -0.000022   0.000000
    18  C    0.000074  -0.001158   0.000174  -0.000019   0.000002   0.000000
    19  H    0.000000  -0.000001   0.000000   0.000000   0.000000   0.000000
    20  H    0.000000   0.000000   0.000000   0.000000   0.000000   0.000000
    21  C   -2.588891   1.826304  -3.684911  -1.138781   0.503328   0.047921
    22  H   -0.049861  -0.035528   0.012201  -0.009872   0.001274  -0.004948
    23  C   -0.001440   0.034698  -0.003419   0.000668   0.000182   0.000000
    24  H   -0.000001   0.000024  -0.000005   0.000000   0.000000   0.000000
    25  O    0.000000   0.000001   0.000000   0.000000   0.000000   0.000000
    26  C    0.000000   0.000010   0.000001   0.000000   0.000000   0.000000
    27  H    0.000000   0.000000   0.000000   0.000000   0.000000   0.000000
    28  H    0.000000   0.000000   0.000000   0.000000   0.000000   0.000000
    29  H    0.000000   0.000000   0.000000   0.000000   0.000000   0.000000
    30  O    0.103704  -0.041567   0.021072  -0.546071   0.437328  -0.017250
    31  C   -0.069036  -0.087533  -0.057963  -0.059792  -0.165270   0.002003
    32  H   -0.073269   0.001962   0.001607   0.043164   0.079834   0.000464
    33  H    0.058399   0.000210  -0.002671  -0.014064  -0.117429  -0.002123
    34  H    0.053549  -0.009548   0.004430  -0.058983  -0.085534  -0.001355
               7          8          9         10         11         12
     1  C   -0.009397   0.033365   0.808704  -0.044600   0.280803   0.005180
     2  C   -0.055283   0.024642  -1.636802   0.229542  -1.019450  -0.346026
     3  C    0.407407  -0.119447   1.813663   0.261904   0.395533   0.105870
     4  C   -0.126952   0.360158  -0.633841   0.009669  -0.098874  -0.019769
     5  C    0.024375   0.003748  -0.581686  -0.156326  -0.034189  -0.013771
     6  H    0.000018  -0.000163  -0.010324   0.000080  -0.000223  -0.000003
     7  H    0.515517  -0.004448   0.035013  -0.007706   0.002470   0.000390
     8  H   -0.004448   0.515662  -0.003680   0.001003  -0.000046   0.000003
     9  C    0.035013  -0.003680   9.493104   0.097374  -0.275413   0.110100
    10  C   -0.007706   0.001003   0.097374   8.203656  -1.792361  -0.246355
    11  C    0.002470  -0.000046  -0.275413  -1.792361   8.376179   0.073929
    12  C    0.000390   0.000003   0.110100  -0.246355   0.073929   9.230181
    13  C    0.000021   0.000000  -0.358702  -0.931687   0.198872  -1.463307
    14  C    0.000009   0.000000  -0.075506  -0.629958  -0.342554  -1.854001
    15  C   -0.000001   0.000000   0.004758   0.277967  -0.081285   0.770022
    16  H    0.000000   0.000000   0.000037   0.002242  -0.009155   0.038061
    17  C    0.000000   0.000000  -0.023132  -0.101351  -0.001472  -0.647343
    18  C    0.000000   0.000000  -0.013433  -0.030496  -0.149346  -0.536691
    19  H    0.000000   0.000000  -0.000005  -0.000241   0.000023  -0.010719
    20  H    0.000000   0.000000   0.000002  -0.000047   0.000948  -0.003814
    21  C    0.018002  -0.003718  -1.984950  -0.413287  -0.646762  -0.071973
    22  H   -0.000161   0.000015   0.037790  -0.009972   0.002059   0.000002
    23  C   -0.000004   0.000000   0.112814   0.380835   0.255208   1.715325
    24  H    0.000000   0.000000   0.000440   0.002341  -0.007469   0.033601
    25  O    0.000000   0.000000   0.000020   0.000132   0.000747   0.004885
    26  C    0.000000   0.000000  -0.000241   0.000841  -0.010017   0.007703
    27  H    0.000000   0.000000   0.000000   0.000000   0.000018   0.000112
    28  H    0.000000   0.000000   0.000000   0.000000  -0.000135  -0.000136
    29  H    0.000000   0.000000   0.000000  -0.000013  -0.000061  -0.000995
    30  O   -0.000446  -0.004282   0.005274   0.000728   0.000135   0.000019
    31  C    0.000400   0.000158   0.005506  -0.010092   0.000727  -0.000236
    32  H    0.000000  -0.000007   0.000111   0.000017   0.000000   0.000000
    33  H    0.000000   0.000003  -0.000703  -0.000062  -0.000010   0.000000
    34  H    0.000000   0.000009  -0.000348  -0.000132  -0.000002   0.000000
              13         14         15         16         17         18
     1  C    0.017774   0.001111  -0.000194   0.000000   0.000294   0.000074
     2  C   -0.171061  -0.055983   0.018426   0.000004  -0.006430  -0.001158
     3  C    0.032287   0.005312  -0.001429   0.000004   0.000692   0.000174
     4  C   -0.005697  -0.001059   0.000283   0.000000  -0.000099  -0.000019
     5  C   -0.001185  -0.000249   0.000081   0.000000  -0.000022   0.000002
     6  H   -0.000001   0.000000   0.000000   0.000000   0.000000   0.000000
     7  H    0.000021   0.000009  -0.000001   0.000000   0.000000   0.000000
     8  H    0.000000   0.000000   0.000000   0.000000   0.000000   0.000000
     9  C   -0.358702  -0.075506   0.004758   0.000037  -0.023132  -0.013433
    10  C   -0.931687  -0.629958   0.277967   0.002242  -0.101351  -0.030496
    11  C    0.198872  -0.342554  -0.081285  -0.009155  -0.001472  -0.149346
    12  C   -1.463307  -1.854001   0.770022   0.038061  -0.647343  -0.536691
    13  C    9.891531   1.796388  -1.297201  -0.036251   1.275192  -0.471169
    14  C    1.796388  14.096510  -2.461138   0.332300  -1.130667   0.388842
    15  C   -1.297201  -2.461138   9.930589  -0.044803  -2.162206  -0.235685
    16  H   -0.036251   0.332300  -0.044803   0.518178  -0.009382   0.000977
    17  C    1.275192  -1.130667  -2.162206  -0.009382  11.496281  -0.659515
    18  C   -0.471169   0.388842  -0.235685   0.000977  -0.659515   8.839790
    19  H    0.013689   0.056731   0.250418  -0.005003  -0.013760  -0.005782
    20  H    0.024802  -0.003926   0.035341   0.000015   0.362169   0.003701
    21  C   -0.052756  -0.005096   0.001028  -0.000001  -0.001069  -0.000229
    22  H   -0.000003  -0.000002   0.000000   0.000000   0.000000   0.000000
    23  C   -2.380006  -3.508059   0.093071   0.012528  -1.473523  -1.163489
    24  H   -0.054993   0.019677  -0.010558  -0.000162  -0.131140   0.025113
    25  O   -0.041532   0.000001   0.105465  -0.000533  -0.544296   0.434273
    26  C   -0.087641   0.138197  -0.060705   0.001677  -0.060290  -0.168244
    27  H    0.002054  -0.024532  -0.075374   0.000000   0.044456   0.082025
    28  H   -0.008059   0.059100   0.066596   0.000009  -0.057149  -0.101908
    29  H   -0.001303   0.060443   0.049013   0.000003  -0.019547  -0.107557
    30  O    0.000001   0.000000   0.000000   0.000000   0.000000   0.000000
    31  C    0.000008  -0.000001   0.000000   0.000000   0.000000   0.000000
    32  H    0.000000   0.000000   0.000000   0.000000   0.000000   0.000000
    33  H    0.000000   0.000000   0.000000   0.000000   0.000000   0.000000
    34  H    0.000000   0.000000   0.000000   0.000000   0.000000   0.000000
              19         20         21         22         23         24
     1  C    0.000000   0.000000  -2.588891  -0.049861  -0.001440  -0.000001
     2  C   -0.000001   0.000000   1.826304  -0.035528   0.034698   0.000024
     3  C    0.000000   0.000000  -3.684911   0.012201  -0.003419  -0.000005
     4  C    0.000000   0.000000  -1.138781  -0.009872   0.000668   0.000000
     5  C    0.000000   0.000000   0.503328   0.001274   0.000182   0.000000
     6  H    0.000000   0.000000   0.047921  -0.004948   0.000000   0.000000
     7  H    0.000000   0.000000   0.018002  -0.000161  -0.000004   0.000000
     8  H    0.000000   0.000000  -0.003718   0.000015   0.000000   0.000000
     9  C   -0.000005   0.000002  -1.984950   0.037790   0.112814   0.000440
    10  C   -0.000241  -0.000047  -0.413287  -0.009972   0.380835   0.002341
    11  C    0.000023   0.000948  -0.646762   0.002059   0.255208  -0.007469
    12  C   -0.010719  -0.003814  -0.071973   0.000002   1.715325   0.033601
    13  C    0.013689   0.024802  -0.052756  -0.000003  -2.380006  -0.054993
    14  C    0.056731  -0.003926  -0.005096  -0.000002  -3.508059   0.019677
    15  C    0.250418   0.035341   0.001028   0.000000   0.093071  -0.010558
    16  H   -0.005003   0.000015  -0.000001   0.000000   0.012528  -0.000162
    17  C   -0.013760   0.362169  -0.001069   0.000000  -1.473523  -0.131140
    18  C   -0.005782   0.003701  -0.000229   0.000000  -1.163489   0.025113
    19  H    0.551194  -0.000168   0.000000   0.000000   0.004908   0.000018
    20  H   -0.000168   0.516946   0.000000   0.000000  -0.123574  -0.004520
    21  C    0.000000   0.000000  14.453382   0.338303   0.005075   0.000009
    22  H    0.000000   0.000000   0.338303   0.518165   0.000005   0.000000
    23  C    0.004908  -0.123574   0.005075   0.000005  12.144845   0.410944
    24  H    0.000018  -0.004520   0.000009   0.000000   0.410944   0.516406
    25  O   -0.018373  -0.004226   0.000000   0.000000   0.018655  -0.000446
    26  C    0.003003   0.000285  -0.000001   0.000000  -0.051244   0.000391
    27  H    0.000499  -0.000007   0.000000   0.000000   0.001523   0.000000
    28  H   -0.001445   0.000008   0.000000   0.000000   0.003889   0.000000
    29  H   -0.002462   0.000006   0.000000   0.000000  -0.001955   0.000000
    30  O    0.000000   0.000000  -0.000645  -0.000518   0.000000   0.000000
    31  C    0.000000   0.000000   0.153792   0.001686   0.000001   0.000000
    32  H    0.000000   0.000000  -0.023762   0.000000   0.000000   0.000000
    33  H    0.000000   0.000000   0.056618   0.000003   0.000000   0.000000
    34  H    0.000000   0.000000   0.057475   0.000010   0.000000   0.000000
              25         26         27         28         29         30
     1  C    0.000000   0.000000   0.000000   0.000000   0.000000   0.103704
     2  C    0.000001   0.000010   0.000000   0.000000   0.000000  -0.041567
     3  C    0.000000   0.000001   0.000000   0.000000   0.000000   0.021072
     4  C    0.000000   0.000000   0.000000   0.000000   0.000000  -0.546071
     5  C    0.000000   0.000000   0.000000   0.000000   0.000000   0.437328
     6  H    0.000000   0.000000   0.000000   0.000000   0.000000  -0.017250
     7  H    0.000000   0.000000   0.000000   0.000000   0.000000  -0.000446
     8  H    0.000000   0.000000   0.000000   0.000000   0.000000  -0.004282
     9  C    0.000020  -0.000241   0.000000   0.000000   0.000000   0.005274
    10  C    0.000132   0.000841   0.000000   0.000000  -0.000013   0.000728
    11  C    0.000747  -0.010017   0.000018  -0.000135  -0.000061   0.000135
    12  C    0.004885   0.007703   0.000112  -0.000136  -0.000995   0.000019
    13  C   -0.041532  -0.087641   0.002054  -0.008059  -0.001303   0.000001
    14  C    0.000001   0.138197  -0.024532   0.059100   0.060443   0.000000
    15  C    0.105465  -0.060705  -0.075374   0.066596   0.049013   0.000000
    16  H   -0.000533   0.001677   0.000000   0.000009   0.000003   0.000000
    17  C   -0.544296  -0.060290   0.044456  -0.057149  -0.019547   0.000000
    18  C    0.434273  -0.168244   0.082025  -0.101908  -0.107557   0.000000
    19  H   -0.018373   0.003003   0.000499  -0.001445  -0.002462   0.000000
    20  H   -0.004226   0.000285  -0.000007   0.000008   0.000006   0.000000
    21  C    0.000000  -0.000001   0.000000   0.000000   0.000000  -0.000645
    22  H    0.000000   0.000000   0.000000   0.000000   0.000000  -0.000518
    23  C    0.018655  -0.051244   0.001523   0.003889  -0.001955   0.000000
    24  H   -0.000446   0.000391   0.000000   0.000000   0.000000   0.000000
    25  O    8.430267   0.107046  -0.054988  -0.033090  -0.034067   0.000000
    26  C    0.107046   5.343917   0.375154   0.405159   0.395264   0.000000
    27  H   -0.054988   0.375154   0.497546  -0.029867  -0.028728   0.000000
    28  H   -0.033090   0.405159  -0.029867   0.544805  -0.053207   0.000000
    29  H   -0.034067   0.395264  -0.028728  -0.053207   0.537560   0.000000
    30  O    0.000000   0.000000   0.000000   0.000000   0.000000   8.426446
    31  C    0.000000   0.000000   0.000000   0.000000   0.000000   0.107124
    32  H    0.000000   0.000000   0.000000   0.000000   0.000000  -0.054554
    33  H    0.000000   0.000000   0.000000   0.000000   0.000000  -0.033872
    34  H    0.000000   0.000000   0.000000   0.000000   0.000000  -0.033728
              31         32         33         34
     1  C   -0.069036  -0.073269   0.058399   0.053549
     2  C   -0.087533   0.001962   0.000210  -0.009548
     3  C   -0.057963   0.001607  -0.002671   0.004430
     4  C   -0.059792   0.043164  -0.014064  -0.058983
     5  C   -0.165270   0.079834  -0.117429  -0.085534
     6  H    0.002003   0.000464  -0.002123  -0.001355
     7  H    0.000400   0.000000   0.000000   0.000000
     8  H    0.000158  -0.000007   0.000003   0.000009
     9  C    0.005506   0.000111  -0.000703  -0.000348
    10  C   -0.010092   0.000017  -0.000062  -0.000132
    11  C    0.000727   0.000000  -0.000010  -0.000002
    12  C   -0.000236   0.000000   0.000000   0.000000
    13  C    0.000008   0.000000   0.000000   0.000000
    14  C   -0.000001   0.000000   0.000000   0.000000
    15  C    0.000000   0.000000   0.000000   0.000000
    16  H    0.000000   0.000000   0.000000   0.000000
    17  C    0.000000   0.000000   0.000000   0.000000
    18  C    0.000000   0.000000   0.000000   0.000000
    19  H    0.000000   0.000000   0.000000   0.000000
    20  H    0.000000   0.000000   0.000000   0.000000
    21  C    0.153792  -0.023762   0.056618   0.057475
    22  H    0.001686   0.000000   0.000003   0.000010
    23  C    0.000001   0.000000   0.000000   0.000000
    24  H    0.000000   0.000000   0.000000   0.000000
    25  O    0.000000   0.000000   0.000000   0.000000
    26  C    0.000000   0.000000   0.000000   0.000000
    27  H    0.000000   0.000000   0.000000   0.000000
    28  H    0.000000   0.000000   0.000000   0.000000
    29  H    0.000000   0.000000   0.000000   0.000000
    30  O    0.107124  -0.054554  -0.033872  -0.033728
    31  C    5.341074   0.375756   0.394378   0.406041
    32  H    0.375756   0.497270  -0.029159  -0.029403
    33  H    0.394378  -0.029159   0.534192  -0.052849
    34  H    0.406041  -0.029403  -0.052849   0.547271
 Mulliken charges:
               1
     1  C    0.813977
     2  C    0.129694
     3  C   -0.482884
     4  C   -0.152771
     5  C   -0.140461
     6  H    0.177559
     7  H    0.200777
     8  H    0.197026
     9  C   -0.925946
    10  C    0.906354
    11  C    0.881174
    12  C   -0.880242
    13  C    0.109935
    14  C   -0.861890
    15  C    0.827521
    16  H    0.199255
    17  C   -0.136693
    18  C   -0.130250
    19  H    0.177475
    20  H    0.196060
    21  C   -0.844405
    22  H    0.199352
    23  C   -0.488460
    24  H    0.200329
    25  O   -0.369941
    26  C   -0.340265
    27  H    0.210109
    28  H    0.205429
    29  H    0.207606
    30  O   -0.368898
    31  C   -0.338730
    32  H    0.209968
    33  H    0.209139
    34  H    0.203097
 Sum of Mulliken charges =   0.00000
 Mulliken charges with hydrogens summed into heavy atoms:
               1
     1  C    0.991536
     2  C    0.129694
     3  C   -0.282107
     4  C    0.044254
     5  C   -0.140461
     9  C   -0.925946
    10  C    0.906354
    11  C    0.881174
    12  C   -0.880242
    13  C    0.109935
    14  C   -0.662635
    15  C    1.004996
    17  C    0.059367
    18  C   -0.130250
    21  C   -0.645053
    23  C   -0.288131
    25  O   -0.369941
    26  C    0.282879
    30  O   -0.368898
    31  C    0.283474
 Electronic spatial extent (au):  <R**2>=          15962.5521
 Charge=              0.0000 electrons
 Dipole moment (field-independent basis, Debye):
    X=              0.0278    Y=              0.0369    Z=              0.1064  Tot=              0.1160
 Quadrupole moment (field-independent basis, Debye-Ang):
   XX=            -82.8550   YY=           -104.8283   ZZ=           -123.6662
   XY=            -24.2366   XZ=              1.6585   YZ=              0.1924
 Traceless Quadrupole moment (field-independent basis, Debye-Ang):
   XX=             20.9282   YY=             -1.0451   ZZ=            -19.8830
   XY=            -24.2366   XZ=              1.6585   YZ=              0.1924
 Octapole moment (field-independent basis, Debye-Ang**2):
  XXX=              7.5183  YYY=              0.3614  ZZZ=             -0.3086  XYY=             -1.5348
  XXY=              0.8619  XXZ=              6.8941  XZZ=             -0.3748  YZZ=              0.2600
  YYZ=             -0.4943  XYZ=             -2.7852
 Hexadecapole moment (field-independent basis, Debye-Ang**3):
 XXXX=         -18210.4758 YYYY=           -711.3599 ZZZZ=           -161.2904 XXXY=          -1801.8392
 XXXZ=            127.3001 YYYX=             40.8867 YYYZ=              1.7396 ZZZX=              3.6138
 ZZZY=             -0.5282 XXYY=          -3248.9381 XXZZ=          -3632.5690 YYZZ=           -169.3384
 XXYZ=              2.5933 YYXZ=             -0.8344 ZZXY=            -17.6906
 N-N= 1.175726348637D+03 E-N=-4.311090408521D+03  KE= 8.362421551229D+02
 Calling FoFJK, ICntrl=      2127 FMM=F ISym2X=0 I1Cent= 0 IOpClX= 0 NMat=1 NMatS=1 NMatT=0.
 ***** Axes restored to original set *****
 -------------------------------------------------------------------
 Center     Atomic                   Forces (Hartrees/Bohr)
 Number     Number              X              Y              Z
 -------------------------------------------------------------------
      1        6           0.009356536    0.011811955   -0.010671792
      2        6           0.011917916    0.018563127   -0.056456546
      3        6          -0.010488700   -0.011214130    0.010153759
      4        6          -0.002572309   -0.001856710   -0.010761275
      5        6          -0.007219302   -0.011152092    0.021472318
      6        1          -0.005354853   -0.003087249   -0.007208981
      7        1           0.007269352    0.007681121   -0.000954154
      8        1           0.005355120    0.002920025    0.009457814
      9        6          -0.018641499   -0.028818109    0.087517061
     10        6           0.028787878    0.044540566   -0.127187285
     11        6          -0.025042219   -0.038961638    0.110727011
     12        6           0.013192229    0.021808657   -0.063972494
     13        6          -0.008770152   -0.013951677    0.054039744
     14        6          -0.003898680   -0.004351922   -0.012388440
     15        6          -0.008093759   -0.009617709    0.013978164
     16        1           0.004345881    0.003606934    0.007326738
     17        6           0.004629967    0.004176949    0.009988029
     18        6           0.005303413    0.008550847   -0.023518387
     19        1           0.004156418    0.004850267    0.008309908
     20        1          -0.005137495   -0.004851572   -0.011452213
     21        6           0.005318510    0.001843217    0.013358482
     22        1          -0.004972943   -0.004286688   -0.007751928
     23        6           0.010194031    0.012251060   -0.012917899
     24        1          -0.008484943   -0.009666271    0.001084799
     25        8          -0.007704266   -0.013200780    0.035210630
     26        6          -0.010035729   -0.008134737   -0.012828866
     27        1          -0.000522244    0.000628960   -0.017049939
     28        1          -0.003295595    0.018158826    0.005006345
     29        1           0.017311634   -0.005106280    0.004557046
     30        8           0.005020309    0.012605049   -0.036532287
     31        6           0.012063164    0.006969699    0.012093120
     32        1           0.001837921   -0.001566662    0.016713682
     33        1          -0.017463691    0.006742958   -0.003842575
     34        1           0.001638099   -0.017885991   -0.005499591
 -------------------------------------------------------------------
 Cartesian Forces:  Max     0.127187285 RMS     0.025028390

 GradGradGradGradGradGradGradGradGradGradGradGradGradGradGradGradGradGrad
 Berny optimization.
 FormGI is forming the generalized inverse of G from B-inverse, IUseBI=4.
 GSVD:  received Info=                   1 from GESDD.
 Internal  Forces:  Max     0.104190961 RMS     0.016851521
 Search for a local minimum.
 Step number   1 out of a maximum of  165
 All quantities printed in internal units (Hartrees-Bohrs-Radians)
 Mixed Optimization -- RFO/linear search
 Second derivative matrix not updated -- first step.
 ITU=  0
     Eigenvalues ---    0.00230   0.00230   0.00230   0.00362   0.00429
     Eigenvalues ---    0.01295   0.01295   0.01304   0.01309   0.01491
     Eigenvalues ---    0.01682   0.01925   0.01945   0.02041   0.02047
     Eigenvalues ---    0.02049   0.02051   0.02058   0.02060   0.02068
     Eigenvalues ---    0.02075   0.02081   0.02082   0.02090   0.02090
     Eigenvalues ---    0.02099   0.02108   0.03724   0.04508   0.04659
     Eigenvalues ---    0.04768   0.10344   0.10344   0.10345   0.10347
     Eigenvalues ---    0.16000   0.16000   0.16000   0.16000   0.16000
     Eigenvalues ---    0.16000   0.16000   0.16000   0.16000   0.16000
     Eigenvalues ---    0.16000   0.16000   0.16000   0.16000   0.21999
     Eigenvalues ---    0.22000   0.22979   0.22979   0.23998   0.24000
     Eigenvalues ---    0.24999   0.25000   0.25000   0.25000   0.25000
     Eigenvalues ---    0.25000   0.27808   0.28122   0.29849   0.36937
     Eigenvalues ---    0.37081   0.37172   0.37190   0.37195   0.37230
     Eigenvalues ---    0.37230   0.37230   0.37249   0.37251   0.37429
     Eigenvalues ---    0.37553   0.37563   0.37571   0.40989   0.40989
     Eigenvalues ---    0.41067   0.41088   0.41142   0.41247   0.41689
     Eigenvalues ---    0.41852   0.45051   0.45102   0.45244   0.45319
     Eigenvalues ---    0.45383   0.45640   0.45752   0.45962   1.01969
     Eigenvalues ---    1.06135
 RFO step:  Lambda=-1.13223858D-01 EMin= 2.30000000D-03
 Linear search not attempted -- first point.
 Maximum step size (   0.300) exceeded in Quadratic search.
    -- Step size scaled by   0.551
 Iteration  1 RMS(Cart)=  0.12278624 RMS(Int)=  0.00663474
 Iteration  2 RMS(Cart)=  0.01834509 RMS(Int)=  0.00012531
 Iteration  3 RMS(Cart)=  0.00028266 RMS(Int)=  0.00005875
 Iteration  4 RMS(Cart)=  0.00000005 RMS(Int)=  0.00005875
 Variable       Old X    -DE/DX   Delta X   Delta X   Delta X     New X
                                 (Linear)    (Quad)   (Total)
    R1        2.65263   0.00742   0.00000   0.00755   0.00755   2.66019
    R2        2.01905   0.00494   0.00000   0.00559   0.00559   2.02463
    R3        2.64885  -0.00475   0.00000  -0.00432  -0.00433   2.64452
    R4        2.65066  -0.00251   0.00000  -0.00274  -0.00274   2.64792
    R5        2.91872  -0.06039   0.00000  -0.08433  -0.08433   2.83439
    R6        2.64288  -0.00109   0.00000  -0.00105  -0.00105   2.64183
    R7        2.65403  -0.01125   0.00000  -0.01132  -0.01131   2.64272
    R8        2.02261   0.01058   0.00000   0.01202   0.01202   2.03463
    R9        2.64576  -0.00155   0.00000  -0.00150  -0.00150   2.64426
   R10        2.02254   0.01117   0.00000   0.01268   0.01268   2.03522
   R11        2.70231  -0.01863   0.00000  -0.01962  -0.01962   2.68269
   R12        2.26278   0.03361   0.00000   0.01576   0.01576   2.27854
   R13        2.92560  -0.10419   0.00000  -0.14667  -0.14667   2.77893
   R14        2.27860   0.01583   0.00000   0.00770   0.00770   2.28630
   R15        2.88266  -0.05302   0.00000  -0.07093  -0.07093   2.81173
   R16        2.64790  -0.00239   0.00000  -0.00233  -0.00233   2.64557
   R17        2.64302   0.00177   0.00000   0.00136   0.00136   2.64438
   R18        2.64547  -0.00326   0.00000  -0.00281  -0.00281   2.64265
   R19        2.02641   0.00924   0.00000   0.01055   0.01055   2.03696
   R20        2.64074   0.01362   0.00000   0.01342   0.01343   2.65417
   R21        2.01721   0.00532   0.00000   0.00600   0.00600   2.02320
   R22        2.65098  -0.00368   0.00000  -0.00358  -0.00358   2.64740
   R23        2.01706   0.01340   0.00000   0.01510   0.01510   2.03216
   R24        2.65172  -0.01018   0.00000  -0.01029  -0.01029   2.64143
   R25        2.70102  -0.01712   0.00000  -0.01800  -0.01800   2.68302
   R26        2.02425   0.01012   0.00000   0.01152   0.01152   2.03577
   R27        2.01694   0.01290   0.00000   0.01453   0.01453   2.03147
   R28        2.70031   0.00501   0.00000   0.00526   0.00526   2.70556
   R29        2.02169   0.01572   0.00000   0.01782   0.01782   2.03951
   R30        2.02173   0.01807   0.00000   0.02049   0.02049   2.04222
   R31        2.02287   0.01780   0.00000   0.02022   0.02022   2.04309
   R32        2.70231   0.00448   0.00000   0.00472   0.00472   2.70702
   R33        2.02201   0.01557   0.00000   0.01766   0.01766   2.03967
   R34        2.02201   0.01857   0.00000   0.02107   0.02107   2.04307
   R35        2.02201   0.01751   0.00000   0.01987   0.01987   2.04188
    A1        2.09487   0.00893   0.00000   0.01728   0.01728   2.11215
    A2        2.09643  -0.00154   0.00000  -0.00165  -0.00165   2.09478
    A3        2.09188  -0.00739   0.00000  -0.01562  -0.01562   2.07626
    A4        2.10215  -0.00091   0.00000  -0.00110  -0.00110   2.10106
    A5        2.09475  -0.00109   0.00000  -0.00223  -0.00224   2.09251
    A6        2.08626   0.00201   0.00000   0.00333   0.00334   2.08960
    A7        2.09412   0.00085   0.00000   0.00027   0.00027   2.09439
    A8        2.09353   0.00007   0.00000   0.00086   0.00086   2.09440
    A9        2.09552  -0.00092   0.00000  -0.00113  -0.00113   2.09439
   A10        2.09425   0.00443   0.00000   0.00670   0.00670   2.10095
   A11        2.09572  -0.00096   0.00000  -0.00082  -0.00082   2.09490
   A12        2.09321  -0.00347   0.00000  -0.00587  -0.00588   2.08734
   A13        2.09207  -0.00434   0.00000  -0.00623  -0.00622   2.08585
   A14        2.09795   0.04207   0.00000   0.06363   0.06363   2.16157
   A15        2.09317  -0.03773   0.00000  -0.05740  -0.05740   2.03576
   A16        2.08365   0.00266   0.00000   0.00438   0.00439   2.08804
   A17        2.10535  -0.00085   0.00000  -0.00094  -0.00094   2.10441
   A18        2.09418  -0.00181   0.00000  -0.00344  -0.00345   2.09073
   A19        2.09330   0.00204   0.00000   0.00380   0.00380   2.09710
   A20        2.09431  -0.00097   0.00000  -0.00181  -0.00181   2.09250
   A21        2.09557  -0.00106   0.00000  -0.00199  -0.00199   2.09358
   A22        2.09923  -0.00172   0.00000  -0.00178  -0.00178   2.09744
   A23        2.09390  -0.00822   0.00000  -0.01741  -0.01741   2.07649
   A24        2.09005   0.00994   0.00000   0.01920   0.01920   2.10925
   A25        2.09294  -0.00349   0.00000  -0.00585  -0.00585   2.08709
   A26        2.09458   0.00446   0.00000   0.00664   0.00665   2.10123
   A27        2.09566  -0.00098   0.00000  -0.00079  -0.00080   2.09487
   A28        2.09074  -0.00473   0.00000  -0.00673  -0.00673   2.08401
   A29        2.08988   0.04605   0.00000   0.06961   0.06961   2.15949
   A30        2.10256  -0.04132   0.00000  -0.06288  -0.06288   2.03968
   A31        2.09438   0.00172   0.00000   0.00323   0.00322   2.09760
   A32        2.09650  -0.00128   0.00000  -0.00246  -0.00246   2.09404
   A33        2.09231  -0.00044   0.00000  -0.00076  -0.00076   2.09155
   A34        2.09406   0.00176   0.00000   0.00155   0.00155   2.09562
   A35        2.09462  -0.00041   0.00000   0.00018   0.00017   2.09479
   A36        2.09450  -0.00135   0.00000  -0.00172  -0.00172   2.09278
   A37        1.91266   0.08260   0.00000   0.12527   0.12527   2.03794
   A38        1.91100  -0.01486   0.00000  -0.03195  -0.03193   1.87906
   A39        1.91080   0.00847   0.00000   0.01801   0.01785   1.92865
   A40        1.91112   0.00797   0.00000   0.01712   0.01697   1.92809
   A41        1.91092  -0.00178   0.00000  -0.00568  -0.00566   1.90526
   A42        1.91005  -0.00103   0.00000  -0.00395  -0.00394   1.90611
   A43        1.90992   0.00123   0.00000   0.00646   0.00615   1.91607
   A44        1.91114   0.07969   0.00000   0.12085   0.12085   2.03198
   A45        1.91063  -0.01453   0.00000  -0.03121  -0.03120   1.87944
   A46        1.91063   0.00736   0.00000   0.01588   0.01573   1.92636
   A47        1.91063   0.00868   0.00000   0.01837   0.01823   1.92886
   A48        1.91063  -0.00057   0.00000  -0.00289  -0.00288   1.90775
   A49        1.91063  -0.00204   0.00000  -0.00620  -0.00618   1.90445
   A50        1.91063   0.00110   0.00000   0.00605   0.00576   1.91640
   A51        3.14882  -0.00076   0.00000  -0.00259  -0.00259   3.14623
   A52        3.14012   0.00045   0.00000   0.00215   0.00215   3.14228
   A53        3.14072   0.00010   0.00000   0.00033   0.00033   3.14105
   A54        3.14122  -0.00009   0.00000  -0.00045  -0.00045   3.14078
   A55        3.14070   0.00014   0.00000   0.00048   0.00047   3.14117
   A56        3.14194  -0.00002   0.00000  -0.00011  -0.00011   3.14183
   A57        3.14173   0.00003   0.00000   0.00010   0.00010   3.14184
   A58        3.14168  -0.00013   0.00000  -0.00061  -0.00061   3.14108
    D1        3.13602   0.00010   0.00000   0.00046   0.00045   3.13647
    D2       -0.00507   0.00021   0.00000   0.00087   0.00087  -0.00420
    D3       -0.00806   0.00027   0.00000   0.00113   0.00113  -0.00693
    D4        3.13403   0.00038   0.00000   0.00154   0.00156   3.13559
    D5        0.02431  -0.00069   0.00000  -0.00277  -0.00276   0.02155
    D6       -3.11805  -0.00046   0.00000  -0.00183  -0.00183  -3.11988
    D7       -3.11977  -0.00050   0.00000  -0.00205  -0.00205  -3.12181
    D8        0.02106  -0.00027   0.00000  -0.00111  -0.00111   0.01994
    D9       -3.14084  -0.00004   0.00000  -0.00010  -0.00010  -3.14095
   D10       -0.00300   0.00001   0.00000   0.00007   0.00007  -0.00292
   D11       -0.00594   0.00014   0.00000   0.00060   0.00060  -0.00533
   D12        3.13191   0.00020   0.00000   0.00078   0.00078   3.13269
   D13       -0.10181   0.00007   0.00000   0.00034   0.00034  -0.10147
   D14        3.04343  -0.00005   0.00000  -0.00023  -0.00023   3.04320
   D15        3.04561   0.00002   0.00000   0.00010   0.00010   3.04571
   D16       -0.09234  -0.00010   0.00000  -0.00047  -0.00047  -0.09281
   D17       -0.01727   0.00044   0.00000   0.00187   0.00186  -0.01541
   D18        3.12509   0.00022   0.00000   0.00094   0.00093   3.12602
   D19        3.11769   0.00061   0.00000   0.00255   0.00255   3.12024
   D20       -0.02313   0.00038   0.00000   0.00162   0.00162  -0.02151
   D21        0.02218  -0.00051   0.00000  -0.00217  -0.00217   0.02001
   D22       -3.12019  -0.00039   0.00000  -0.00164  -0.00163  -3.12182
   D23       -3.11567  -0.00057   0.00000  -0.00235  -0.00235  -3.11802
   D24        0.02515  -0.00044   0.00000  -0.00181  -0.00181   0.02334
   D25       -0.01516   0.00033   0.00000   0.00133   0.00133  -0.01383
   D26        3.12594   0.00024   0.00000   0.00096   0.00097   3.12691
   D27        3.12721   0.00020   0.00000   0.00080   0.00079   3.12800
   D28       -0.01488   0.00011   0.00000   0.00042   0.00043  -0.01445
   D29       -0.08292   0.00064   0.00000   0.00283   0.00283  -0.08008
   D30        3.05918   0.00074   0.00000   0.00323   0.00323   3.06240
   D31        3.12178   0.00041   0.00000   0.00161   0.00162   3.12340
   D32       -0.01615   0.00013   0.00000   0.00055   0.00054  -0.01561
   D33       -0.02329   0.00045   0.00000   0.00184   0.00185  -0.02144
   D34        3.12196   0.00018   0.00000   0.00077   0.00077   3.12273
   D35       -3.13046  -0.00019   0.00000  -0.00082  -0.00081  -3.13128
   D36        0.01277  -0.00021   0.00000  -0.00088  -0.00089   0.01189
   D37        0.01465  -0.00024   0.00000  -0.00106  -0.00106   0.01360
   D38       -3.12530  -0.00026   0.00000  -0.00112  -0.00113  -3.12642
   D39        0.01161  -0.00035   0.00000  -0.00142  -0.00143   0.01018
   D40       -3.12569  -0.00064   0.00000  -0.00253  -0.00254  -3.12823
   D41       -3.13365  -0.00008   0.00000  -0.00035  -0.00035  -3.13400
   D42        0.01224  -0.00037   0.00000  -0.00146  -0.00147   0.01078
   D43        0.00869   0.00004   0.00000   0.00020   0.00020   0.00889
   D44       -3.13391  -0.00035   0.00000  -0.00138  -0.00144  -3.13535
   D45       -3.13719   0.00028   0.00000   0.00122   0.00125  -3.13594
   D46        0.00339  -0.00011   0.00000  -0.00036  -0.00039   0.00300
   D47        3.12729   0.00010   0.00000   0.00034   0.00036   3.12765
   D48       -0.01328   0.00044   0.00000   0.00186   0.00181  -0.01147
   D49       -0.01732   0.00014   0.00000   0.00055   0.00056  -0.01676
   D50        3.12529   0.00048   0.00000   0.00207   0.00201   3.12730
   D51        0.00567  -0.00001   0.00000  -0.00010  -0.00011   0.00556
   D52       -3.13757   0.00001   0.00000  -0.00003  -0.00004  -3.13760
   D53       -3.13896   0.00003   0.00000   0.00011   0.00009  -3.13887
   D54        0.00099   0.00005   0.00000   0.00017   0.00016   0.00115
   D55        0.08292   0.00067   0.00000   0.00291   0.00292   0.08583
   D56       -3.05970   0.00030   0.00000   0.00135   0.00135  -3.05835
   D57        3.09257  -0.00008   0.00000  -0.00072  -0.00072   3.09186
   D58       -1.09554  -0.00618   0.00000  -0.01622  -0.01648  -1.11202
   D59        0.99838   0.00540   0.00000   0.01321   0.01347   1.01184
   D60       -3.13422   0.00102   0.00000   0.00506   0.00504  -3.12918
   D61       -1.03983  -0.00407   0.00000  -0.00788  -0.00811  -1.04794
   D62        1.05457   0.00710   0.00000   0.02051   0.02076   1.07533
         Item               Value     Threshold  Converged?
[...]
    27  H    1.090377   0.000000
    28  H    1.095854   1.782250   0.000000
    29  H    1.095966   1.783697   1.795328   0.000000
    30  O   15.804613  16.821175  15.750848  15.640749   0.000000
    31  C   16.704229  17.692976  16.683681  16.587080   1.428166
    32  H   17.693294  18.693127  17.656061  17.555756   2.012731
    33  H   16.623229  17.598691  16.570861  16.577709   2.092460
    34  H   16.649407  17.614913  16.700438  16.514295   2.094676
                   31         32         33         34
    31  C    0.000000
    32  H    1.090377   0.000000
    33  H    1.096024   1.784769   0.000000
    34  H    1.095625   1.781223   1.795328   0.000000
 Stoichiometry    C18H14O2
 Framework group  C1[X(C18H14O2)]
 Deg. of freedom    96
 Full point group                 C1      NOp   1
 Largest Abelian subgroup         C1      NOp   1
 Largest concise Abelian subgroup C1      NOp   1
                         Standard orientation:                         
 ---------------------------------------------------------------------
 Center     Atomic      Atomic             Coordinates (Angstroms)
 Number     Number       Type             X           Y           Z
 ---------------------------------------------------------------------
      1          6           0        5.466043   -0.998115    0.016282
      2          6           0        3.317814    0.135678   -0.000567
      3          6           0        3.976909    1.375381   -0.052269
      4          6           0        5.366995    1.427188   -0.059034
      5          6           0        6.113426    0.245291   -0.031048
      6          1           0        6.022459   -1.925923    0.034981
      7          1           0        3.401343    2.293849   -0.089904
      8          1           0        5.883733    2.381018   -0.084997
      9          6           0        1.889122    0.076554    0.005968
     10          6           0        0.674038    0.027944    0.010462
     11          6           0       -0.672564   -0.029055    0.015425
     12          6           0       -1.887782   -0.080748    0.020283
     13          6           0       -3.316946   -0.139927    0.023743
     14          6           0       -4.069716    1.041926    0.098316
     15          6           0       -5.464785    0.994785    0.086409
     16          1           0       -3.564042    1.999251    0.165923
     17          6           0       -5.370298   -1.427596   -0.050858
     18          6           0       -6.114741   -0.245373    0.006593
     19          1           0       -6.020350    1.921955    0.137959
     20          1           0       -5.888284   -2.379617   -0.101295
     21          6           0        4.070943   -1.046293    0.039720
     22          1           0        3.566478   -2.005200    0.091635
     23          6           0       -3.980200   -1.377183   -0.044801
     24          1           0       -3.407244   -2.296711   -0.092282
     25          8           0       -7.484722   -0.419830   -0.016259
     26          6           0       -8.318243    0.738369   -0.058203
     27          1           0       -9.337685    0.356806   -0.121995
     28          1           0       -8.214666    1.340277    0.851673
     29          1           0       -8.104835    1.352856   -0.940249
     30          8           0        7.483230    0.423355   -0.056352
     31          6           0        8.321130   -0.727859    0.054496
     32          1           0        9.341652   -0.344577    0.031021
     33          1           0        8.151095   -1.254554    1.000513
     34          1           0        8.175405   -1.413443   -0.787604
 ---------------------------------------------------------------------
 Rotational constants (GHZ):      2.3648104      0.0670508      0.0652674
 Standard basis: 6-31+G(d) (6D, 7F)
 There are   408 symmetry adapted cartesian basis functions of A   symmetry.
 There are   408 symmetry adapted basis functions of A   symmetry.
   408 basis functions,   696 primitive gaussians,   408 cartesian basis functions
    69 alpha electrons       69 beta electrons
       nuclear repulsion energy      1189.8940224190 Hartrees.
 NAtoms=   34 NActive=   34 NUniq=   34 SFac= 1.00D+00 NAtFMM=   60 NAOKFM=F Big=F
 Integral buffers will be    131072 words long.
 Raffenetti 2 integral format.
 Two-electron integral symmetry is turned on.
 Nuclear repulsion after empirical dispersion term =     1189.8701973258 Hartrees.
 One-electron integrals computed using PRISM.
 NBasis=   408 RedAO= T EigKep=  1.15D-06  NBF=   408
 NBsUse=   402 1.00D-06 EigRej=  5.50D-07 NBFU=   402
 Lowest energy guess from the checkpoint file:  "D:\machine learning\molecule_51.chk"
 B after Tr=     0.000000    0.000000    0.000000
         Rot=    1.000000    0.000816   -0.000026   -0.000389 Ang=   0.10 deg.
 B after Tr=     0.000000    0.000000    0.000000
         Rot=    1.000000   -0.000737    0.000024    0.000397 Ang=  -0.10 deg.
 Operation on file out of range.
 FileIO: IOper= 1 IFilNo(1)=  -526 Len=      164016 IPos=           0 Q=       6774228344


 dumping /fiocom/, unit = 1 NFiles =    80 SizExt =    524288 WInBlk =       512
                   defal = T LstWrd =    13049856 FType=2 FMxFil=10000

 Number              0             0             0             0             0             0
 Base          2918380       1751040       1422848       2828800       1506816        323072
 End           2918400       1752576       1423360       2834944       1510912        324096
 End1          2918400       1752576       1423360       2834944       1510912        324096
 Wr Pntr       2918380       1749581       1422848       2828800       1506816        323072
 Rd Pntr       2918380       1749581       1422848       2828800       1506816        323072
 Length             20          1536           512          6144          4096          1024

 Number              0             0             0             0             0           501
 Base           182272       1511424       1740288       3410944      10425592         43520
 End            182784       1511936       1750016      10257856      13049856         44520
 End1           182784       1511936       1750016      10257856      13049856         44544
 Wr Pntr        182272       1511424       1746944       3574960      10425592         43520
 Rd Pntr        182272       1511424       1746944       3439096      10425592         43520
 Length            512           512          9728       6846912       2624264          1000

 Number            502           503           508           511           514           515
 Base           309248        180224        324096        241152        908800        574976
 End            313965        180531        324126        253400        992236        908720
 End1           314368        180736        324608        253440        992256        908800
 Wr Pntr        309248        180224        324096        241152        908800        574976
 Rd Pntr        309248        180224        324096        241152        992236        574976
 Length           4717           307            30         12248         83436        333744

 Number            516           517           518           520           521           522
 Base           324608       1407488       1157120        322560        305664       1750016
 End            574916       1421360       1407428        322570        305699       1750418
 End1           574976       1421824       1407488        323072        306176       1750528
 Wr Pntr        324608       1407488       1157120        322560        305664       1750417
 Rd Pntr        324608       1407488       1157120        322560        305664       1750016
 Length         250308         13872        250308            10            35           402

 Number            523           524           526           528           530           532
 Base          1421824       3082240       2918400       1752576       1423360       1836032
 End           1422628       3246256       3082008       1836012       1506796       1919468
 End1          1422848       3246592       3082240       1836032       1506816       1919488
 Wr Pntr       1421824       3246256       2918400       1752576       1423360       1836032
 Rd Pntr       1421824       3246256       2918400       1752576       1423360       1836032
 Length            804        164016        163608         83436         83436         83436

 Number            534           536           538           551           552           559
 Base          2083840       2167296       2250752        303616        302592         74240
 End           2167276       2250732       2334188        303654        302620         74242
 End1          2167296       2250752       2334208        304128        303104         74752
 Wr Pntr       2083840       2250732       2334188        303616        302592         74240
 Rd Pntr       2083840       2167296       2250752        303654        302592         74240
 Length          83436         83436         83436            38            28             2

 Number            561           562           563           565           571           575
 Base           304128        295936       1510912        314880       2834944        184320
 End            304129        302358       1511320        315008       2918380        240973
 End1           304640        302592       1511424        315392       2918380        241152
 Wr Pntr        304128        295936       1510912        314880       2834944        184320
 Rd Pntr        304128        302358       1510912        314880       2834944        184320
 Length              1          6422           408           128         83436         56653

 Number            577           579           580           581           582           583
 Base           314368        303104         72192         73216         75264         74752
 End            314420        303138         73008         74104         76488         74787
 End1           314880        303616         73216         74240         76800         75264
 Wr Pntr        314368        303104         72192         73216         75264         74752
 Rd Pntr        314420        303104         72192         73216         75264         74752
 Length             52            34           816           888          1224            35

 Number            584           598           603           605           606           619
 Base           315392         76800       1574912       1575424       1750528        315904
 End            315596         76802       1574913       1575425       1750930        320853
 End1           315904         77312       1575424       1575936       1751040        321024
 Wr Pntr        315392         76800       1574912       1575424       1750930        315904
 Rd Pntr        315392         76800       1574912       1575424       1750528        315904
 Length            204             2             1             1           402          4949

 Number            634           665           670           672           674           685
 Base         10257856        180736        306176         41984        182784        992256
 End          10425592        182135        308800         42347        183122       1156272
 End1         10425592        182272        309248         42496        183296       1156608
 Wr Pntr      10257856        180736        306176         41984        182784        992256
 Rd Pntr      10257856        180736        308800         41984        182784       1156272
 Length         167736          1399          2624           363           338        164016

 Number            695           698           701           729           742           761
 Base           321024        305152        253440       2334208       1156608        304640
 End            322106        305356        295473       2828296       1156640        304641
 End1           322560        305664        295936       2828800       1157120        305152
 Wr Pntr        321024        305152        253440       2334208       1156608        304640
 Rd Pntr        321024        305152        253440       2334208       1156608        304640
 Length           1082           204         42033        494088            32             1

 Number            783           989           991           992           993           994
 Base          1511936         44544         65536         65024         43008         40448
 End           1574727         64544         72098         65033         43208         40478
 End1          1574912         65024         72192         65536         43520         40960
 Wr Pntr       1511936         44544         65536         65024         43008         40448
 Rd Pntr       1511936         44544         72098         65033         43208         40478
 Length          62791         20000          6562             9           200            30

 Number            995           996           997           998           999          2551
 Base            42496         41472        183296         40960         77312       1919488
 End             42516         41672        183982         41160        179816       2083504
 End1            43008         41984        184320         41472        180224       2083840
 Wr Pntr         42496         41472        183296         40960         77312       2083504
 Rd Pntr         42516         41672        183982         41160         79816       2083504
 Length             20           200           686           200        102504        164016

 Number           2556          9999
 Base          3246592       1575936
 End           3410608       1739952
 End1          3410944       1740288
 Wr Pntr       3410608       1739952
 Rd Pntr       3410608       1739952
 Length         164016        164016


 dumping /fiocom/, unit = 2 NFiles =    50 SizExt =         0 WInBlk =       512
                   defal = F LstWrd =     1451008 FType=2 FMxFil=10000

 Number              0             0             0             0           501           502
 Base           817684        208414        811115       1449020        376500        377500
 End            900352        209628        811931       1451008        377500        382217
 End1           900352        209628        811931       1451008        377500        382217
 Wr Pntr        817684        208414        811115       1449020        376500        377500
 Rd Pntr        817684        208414        811115       1449020        376500        377500
 Length          82668          1214           816          1988          1000          4717

 Number            503           508           511           520           521           522
 Base           901053         40448        384841        427135        483864        816882
 End            901360         40478        397089        427145        483899        817684
 End1           901360         40478        397089        427145        483899        817684
 Wr Pntr        901053         40448        384841        427135        483864        816882
 Rd Pntr        901053         40448        384841        427135        483864        817684
 Length            307            30         12248            10            35           802

 Number            524           526           528           530           532           534
 Base           483899        647507        944447       1027883       1111319       1194755
 End            647507        811115       1027883       1111319       1194755       1278191
 End1           647507        811115       1027883       1111319       1194755       1278191
 Wr Pntr        483899        647507        944447       1027883       1111319       1194755
 Rd Pntr        483899        647507        944447       1027883       1111319       1194755
 Length         163608        163608         83436         83436         83436         83436

 Number            536           538           551           552           561           562
 Base           209628        293064        427173        427145        420660        420661
 End            293064        376500        427211        427173        420661        427083
 End1           293064        376500        427211        427173        420661        427083
 Wr Pntr        209628        293064        427173        427145        420660        420661
 Rd Pntr        293064        376500        427173        427145        420660        420661
 Length          83436         83436            38            28             1          6422

 Number            563           565           575           577           579           580
 Base          1278191       1278599        427211        427083        943597        943631
 End           1278599       1278727        483864        427135        943631        944447
 End1          1278599       1278727        483864        427135        943631        944447
 Wr Pntr       1278191       1278599        427211        427083        943597        943631
 Rd Pntr       1278191       1278599        427211        427083        943597        943631
 Length            408           128         56653            52            34           816

 Number            581           582           583           584           603           605
 Base          1278727       1279615       1280839        398488        816881        816880
 End           1279615       1280839       1280874        398692        816882        816881
 End1          1279615       1280839       1280874        398692        816882        816881
 Wr Pntr       1278727       1279615       1280839        398488        816881        816880
 Rd Pntr       1278727       1279615       1280839        398488        816881        816880
 Length            888          1224            35           204             1             1

 Number            619           634           665           670           672           674
 Base           811931         40678        397089        382217        900352        900715
 End            816880        208414        398488        384841        900715        901053
 End1           816880        208414        398488        384841        900715        901053
 Wr Pntr        811931         40678        397089        382217        900352        900715
 Rd Pntr        811931        208414        397089        384841        900352        900715
 Length           4949        167736          1399          2624           363           338

 Number            695           698           701           780           989           993
 Base           398692        901360        901564       1280874        399774        419774
 End            399774        901564        943597       1449020        419774        419974
 End1           399774        901564        943597       1449020        419774        419974
 Wr Pntr        398692        901360        901564       1280874        399774        419774
 Rd Pntr        398692        901360        901564       1449020        399774        419774
 Length           1082           204         42033        168146         20000           200

 Number            997           998
 Base           419974         40478
 End            420660         40678
 End1           420660         40678
 Wr Pntr        419974         40478
 Rd Pntr        419974         40678
 Length            686           200


 dumping /fiocom/, unit = 3 NFiles =     1 SizExt =    524288 WInBlk =       512
                   defal = T LstWrd =       67072 FType=2 FMxFil=10000

 Number              0
 Base            40448
 End             67072
 End1            67072
 Wr Pntr         40448
 Rd Pntr         40448
 Length          26624
 Error termination in NtrErr:
 NtrErr Called from FileIO.
