 Entering Gaussian System, Link 0=/home/ubuntu/g16/g16
 Input=/home/ubuntu/products/molecule_12.gjf
 Output=/home/ubuntu/products/molecule_12.log
 Initial command:
 /home/ubuntu/g16/l1.exe "/home/ubuntu/Scratch/Gau-42502.inp" -scrdir="/home/ubuntu/Scratch/"
 Entering Link 1 = /home/ubuntu/g16/l1.exe PID=     42504.
  
 Copyright (c) 1988-2017, Gaussian, Inc.  All Rights Reserved.
  
 This is part of the Gaussian(R) 16 program.  It is based on
 the Gaussian(R) 09 system (copyright 2009, Gaussian, Inc.),
 the Gaussian(R) 03 system (copyright 2003, Gaussian, Inc.),
 the Gaussian(R) 98 system (copyright 1998, Gaussian, Inc.),
 the Gaussian(R) 94 system (copyright 1995, Gaussian, Inc.),
 the Gaussian 92(TM) system (copyright 1992, Gaussian, Inc.),
 the Gaussian 90(TM) system (copyright 1990, Gaussian, Inc.),
 the Gaussian 88(TM) system (copyright 1988, Gaussian, Inc.),
 the Gaussian 86(TM) system (copyright 1986, Carnegie Mellon
 University), and the Gaussian 82(TM) system (copyright 1983,
 Carnegie Mellon University). Gaussian is a federally registered
 trademark of Gaussian, Inc.
  
 This software contains proprietary and confidential information,
 including trade secrets, belonging to Gaussian, Inc.
  
 This software is provided under written license and may be
 used, copied, transmitted, or stored only in accord with that
 written license.
  
 The following legend is applicable only to US Government
 contracts under FAR:
  
                    RESTRICTED RIGHTS LEGEND
  
 Use, reproduction and disclosure by the US Government is
 subject to restrictions as set forth in subparagraphs (a)
 and (c) of the Commercial Computer Software - Restricted
 Rights clause in FAR 52.227-19.
  
 Gaussian, Inc.
 340 Quinnipiac St., Bldg. 40, Wallingford CT 06492
  
  
 ---------------------------------------------------------------
 Warning -- This program may not be used in any manner that
 competes with the business of Gaussian, Inc. or will provide
 assistance to any competitor of Gaussian, Inc.  The licensee
 of this program is prohibited from giving any competitor of
 Gaussian, Inc. access to this program.  By using this program,
 the user acknowledges that Gaussian, Inc. is engaged in the
 business of creating and licensing software in the field of
 computational chemistry and represents and warrants to the
 licensee that it is not a competitor of Gaussian, Inc. and that
 it will not use this program in any manner prohibited above.
 ---------------------------------------------------------------
  

 Cite this work as:
 Gaussian 16, Revision B.01,
 M. J. Frisch, G. W. Trucks, H. B. Schlegel, G. E. Scuseria, 
 M. A. Robb, J. R. Cheeseman, G. Scalmani, V. Barone, 
 G. A. Petersson, H. Nakatsuji, X. Li, M. Caricato, A. V. Marenich, 
 J. Bloino, B. G. Janesko, R. Gomperts, B. Mennucci, H. P. Hratchian, 
 J. V. Ortiz, A. F. Izmaylov, J. L. Sonnenberg, D. Williams-Young, 
 F. Ding, F. Lipparini, F. Egidi, J. Goings, B. Peng, A. Petrone, 
 T. Henderson, D. Ranasinghe, V. G. Zakrzewski, J. Gao, N. Rega, 
 G. Zheng, W. Liang, M. Hada, M. Ehara, K. Toyota, R. Fukuda, 
 J. Hasegawa, M. Ishida, T. Nakajima, Y. Honda, O. Kitao, H. Nakai, 
 T. Vreven, K. Throssell, J. A. Montgomery, Jr., J. E. Peralta, 
 F. Ogliaro, M. J. Bearpark, J. J. Heyd, E. N. Brothers, K. N. Kudin, 
 V. N. Staroverov, T. A. Keith, R. Kobayashi, J. Normand, 
 K. Raghavachari, A. P. Rendell, J. C. Burant, S. S. Iyengar, 
 J. Tomasi, M. Cossi, J. M. Millam, M. Klene, C. Adamo, R. Cammi, 
 J. W. Ochterski, R. L. Martin, K. Morokuma, O. Farkas, 
 J. B. Foresman, and D. J. Fox, Gaussian, Inc., Wallingford CT, 2016.
 
 ******************************************
 Gaussian 16:  EM64L-G16RevB.01 20-Dec-2017
                17-Sep-2023 
 ******************************************
 %nprocshared=30
 Will use up to   30 processors via shared memory.
 %mem=30GB
 %chk=molecule_12.chk
 ---------------------------------------------------------
 # opt freq b3lyp/6-31+g(d) empiricaldispersion=gd3 volume
 ---------------------------------------------------------
 1/18=20,19=15,26=3,38=1/1,3;
 2/9=110,12=2,17=6,18=5,40=1/2;
 3/5=1,6=6,7=11,11=2,25=1,30=1,71=1,74=-5,124=31/1,2,3;
 4//1;
 5/5=2,38=5/2;
 6/7=2,8=2,9=2,10=2,28=1,44=1/1,4;
 7//1,2,3,16;
 1/18=20,19=15,26=3/3(2);
 2/9=110/2;
 99//99;
 2/9=110/2;
 3/5=1,6=6,7=11,11=2,25=1,30=1,71=1,74=-5,124=31/1,2,3;
 4/5=5,16=3,69=1/1;
 5/5=2,38=5/2;
 7//1,2,3,16;
 1/18=20,19=15,26=3/3(-5);
 2/9=110/2;
 6/7=2,8=2,9=2,10=2,19=2,28=1,44=1/1,4;
 99/9=1/99;
 -------------------
 Title Card Required
 -------------------
 Symbolic Z-matrix:
 Charge =  0 Multiplicity = 1
 C                     1.97758  -1.21439   0.00008 
 C                     1.25805  -0.00009  -0.00002 
 C                     1.97753   1.21429  -0.00007 
 C                     3.36738   1.21749  -0.00006 
 C                     4.06392  0.         0.00001 
 H                     1.43406  -2.15406   0.00014 
 H                     1.43391   2.1539   -0.00011 
 H                     3.92227   2.15022  -0.00011 
 C                    -0.16478  -0.00008  -0.00002 
 C                    -1.38216  -0.00005  -0.00005 
 C                    -2.80712  -0.00001  -0.00004 
 C                    -3.52296  -1.21552  -0.00009 
 C                    -3.52291   1.21553   0.00006 
 C                    -4.91681  -1.2105   -0.00005 
 H                    -2.97565  -2.15366  -0.00015 
 C                    -4.91675   1.21057   0.00009 
 H                    -2.97554   2.15364   0.0001 
 C                    -5.61844   0.00005   0.00003 
 H                    -5.4575   -2.15334  -0.00009 
 H                    -5.4574    2.15344   0.00017 
 H                    -6.70521   0.00008   0.00007 
 C                     3.36746  -1.21751   0.00008 
 H                     3.92237  -2.15023   0.00015 
 N                     5.44808   0.00006   0.00001 
 C                     6.62703   0.00013   0. 
 

 GradGradGradGradGradGradGradGradGradGradGradGradGradGradGradGradGradGrad
 Berny optimization.
 Initialization pass.
                           ----------------------------
                           !    Initial Parameters    !
                           ! (Angstroms and Degrees)  !
 --------------------------                            --------------------------
 ! Name  Definition              Value          Derivative Info.                !
 --------------------------------------------------------------------------------
 ! R1    R(1,2)                  1.4115         estimate D2E/DX2                !
 ! R2    R(1,6)                  1.0855         estimate D2E/DX2                !
 ! R3    R(1,22)                 1.3899         estimate D2E/DX2                !
 ! R4    R(2,3)                  1.4115         estimate D2E/DX2                !
 ! R5    R(2,9)                  1.4228         estimate D2E/DX2                !
 ! R6    R(3,4)                  1.3899         estimate D2E/DX2                !
 ! R7    R(3,7)                  1.0855         estimate D2E/DX2                !
 ! R8    R(4,5)                  1.4027         estimate D2E/DX2                !
 ! R9    R(4,8)                  1.0853         estimate D2E/DX2                !
 ! R10   R(5,22)                 1.4026         estimate D2E/DX2                !
 ! R11   R(5,24)                 1.3842         estimate D2E/DX2                !
 ! R12   R(9,10)                 1.2174         estimate D2E/DX2                !
 ! R13   R(10,11)                1.425          estimate D2E/DX2                !
 ! R14   R(11,12)                1.4106         estimate D2E/DX2                !
 ! R15   R(11,13)                1.4106         estimate D2E/DX2                !
 ! R16   R(12,14)                1.3939         estimate D2E/DX2                !
 ! R17   R(12,15)                1.0861         estimate D2E/DX2                !
 ! R18   R(13,16)                1.3938         estimate D2E/DX2                !
 ! R19   R(13,17)                1.0861         estimate D2E/DX2                !
 ! R20   R(14,18)                1.3992         estimate D2E/DX2                !
 ! R21   R(14,19)                1.0869         estimate D2E/DX2                !
 ! R22   R(16,18)                1.3992         estimate D2E/DX2                !
 ! R23   R(16,20)                1.0869         estimate D2E/DX2                !
 ! R24   R(18,21)                1.0868         estimate D2E/DX2                !
 ! R25   R(22,23)                1.0853         estimate D2E/DX2                !
 ! R26   R(24,25)                1.179          estimate D2E/DX2                !
 ! A1    A(2,1,6)              119.3057         estimate D2E/DX2                !
 ! A2    A(2,1,22)             120.7776         estimate D2E/DX2                !
 ! A3    A(6,1,22)             119.9167         estimate D2E/DX2                !
 ! A4    A(1,2,3)              118.7058         estimate D2E/DX2                !
 ! A5    A(1,2,9)              120.6493         estimate D2E/DX2                !
 ! A6    A(3,2,9)              120.6449         estimate D2E/DX2                !
 ! A7    A(2,3,4)              120.7776         estimate D2E/DX2                !
 ! A8    A(2,3,7)              119.303          estimate D2E/DX2                !
 ! A9    A(4,3,7)              119.9194         estimate D2E/DX2                !
 ! A10   A(3,4,5)              119.6422         estimate D2E/DX2                !
 ! A11   A(3,4,8)              120.8813         estimate D2E/DX2                !
 ! A12   A(5,4,8)              119.4765         estimate D2E/DX2                !
 ! A13   A(4,5,22)             120.4544         estimate D2E/DX2                !
 ! A14   A(4,5,24)             119.7716         estimate D2E/DX2                !
 ! A15   A(22,5,24)            119.7739         estimate D2E/DX2                !
 ! A16   A(10,11,12)           120.4936         estimate D2E/DX2                !
 ! A17   A(10,11,13)           120.4937         estimate D2E/DX2                !
 ! A18   A(12,11,13)           119.0127         estimate D2E/DX2                !
 ! A19   A(11,12,14)           120.2886         estimate D2E/DX2                !
 ! A20   A(11,12,15)           119.2453         estimate D2E/DX2                !
 ! A21   A(14,12,15)           120.466          estimate D2E/DX2                !
 ! A22   A(11,13,16)           120.2886         estimate D2E/DX2                !
 ! A23   A(11,13,17)           119.2453         estimate D2E/DX2                !
 ! A24   A(16,13,17)           120.4661         estimate D2E/DX2                !
 ! A25   A(12,14,18)           120.3028         estimate D2E/DX2                !
 ! A26   A(12,14,19)           119.6268         estimate D2E/DX2                !
 ! A27   A(18,14,19)           120.0704         estimate D2E/DX2                !
 ! A28   A(13,16,18)           120.3028         estimate D2E/DX2                !
 ! A29   A(13,16,20)           119.6268         estimate D2E/DX2                !
 ! A30   A(18,16,20)           120.0703         estimate D2E/DX2                !
 ! A31   A(14,18,16)           119.8044         estimate D2E/DX2                !
 ! A32   A(14,18,21)           120.0979         estimate D2E/DX2                !
 ! A33   A(16,18,21)           120.0977         estimate D2E/DX2                !
 ! A34   A(1,22,5)             119.6424         estimate D2E/DX2                !
 ! A35   A(1,22,23)            120.879          estimate D2E/DX2                !
 ! A36   A(5,22,23)            119.4786         estimate D2E/DX2                !
 ! A37   L(2,9,10,7,-1)        179.999          estimate D2E/DX2                !
 ! A38   L(9,10,11,15,-1)      179.9999         estimate D2E/DX2                !
 ! A39   L(5,24,25,8,-1)       179.9994         estimate D2E/DX2                !
 ! A40   L(2,9,10,7,-2)        179.9985         estimate D2E/DX2                !
 ! A41   L(9,10,11,15,-2)      179.9978         estimate D2E/DX2                !
 ! A42   L(5,24,25,8,-2)       179.9999         estimate D2E/DX2                !
 ! D1    D(6,1,2,3)            179.9984         estimate D2E/DX2                !
 ! D2    D(6,1,2,9)              0.0003         estimate D2E/DX2                !
 ! D3    D(22,1,2,3)            -0.0019         estimate D2E/DX2                !
 ! D4    D(22,1,2,9)          -180.0            estimate D2E/DX2                !
 ! D5    D(2,1,22,5)             0.0009         estimate D2E/DX2                !
 ! D6    D(2,1,22,23)         -179.9994         estimate D2E/DX2                !
 ! D7    D(6,1,22,5)          -179.9994         estimate D2E/DX2                !
 ! D8    D(6,1,22,23)            0.0003         estimate D2E/DX2                !
 ! D9    D(1,2,3,4)              0.0017         estimate D2E/DX2                !
 ! D10   D(1,2,3,7)           -179.9981         estimate D2E/DX2                !
 ! D11   D(9,2,3,4)            179.9997         estimate D2E/DX2                !
 ! D12   D(9,2,3,7)             -0.0001         estimate D2E/DX2                !
 ! D13   D(1,2,11,12)           -0.0064         estimate D2E/DX2                !
 ! D14   D(1,2,11,13)          179.991          estimate D2E/DX2                !
 ! D15   D(3,2,11,12)          179.9954         estimate D2E/DX2                !
 ! D16   D(3,2,11,13)           -0.0072         estimate D2E/DX2                !
 ! D17   D(2,3,4,5)             -0.0004         estimate D2E/DX2                !
 ! D18   D(2,3,4,8)            179.9993         estimate D2E/DX2                !
 ! D19   D(7,3,4,5)            179.9994         estimate D2E/DX2                !
 ! D20   D(7,3,4,8)             -0.0009         estimate D2E/DX2                !
 ! D21   D(3,4,5,22)            -0.0006         estimate D2E/DX2                !
 ! D22   D(3,4,5,24)           179.9993         estimate D2E/DX2                !
 ! D23   D(8,4,5,22)           179.9996         estimate D2E/DX2                !
 ! D24   D(8,4,5,24)            -0.0005         estimate D2E/DX2                !
 ! D25   D(4,5,22,1)             0.0004         estimate D2E/DX2                !
 ! D26   D(4,5,22,23)         -179.9993         estimate D2E/DX2                !
 ! D27   D(24,5,22,1)         -179.9995         estimate D2E/DX2                !
 ! D28   D(24,5,22,23)           0.0008         estimate D2E/DX2                !
 ! D29   D(10,11,12,14)        179.9987         estimate D2E/DX2                !
 ! D30   D(10,11,12,15)         -0.0013         estimate D2E/DX2                !
 ! D31   D(13,11,12,14)          0.0003         estimate D2E/DX2                !
 ! D32   D(13,11,12,15)       -179.9996         estimate D2E/DX2                !
 ! D33   D(10,11,13,16)       -179.9988         estimate D2E/DX2                !
 ! D34   D(10,11,13,17)          0.0012         estimate D2E/DX2                !
 ! D35   D(12,11,13,16)         -0.0005         estimate D2E/DX2                !
 ! D36   D(12,11,13,17)        179.9995         estimate D2E/DX2                !
 ! D37   D(11,12,14,18)          0.0004         estimate D2E/DX2                !
 ! D38   D(11,12,14,19)        179.9999         estimate D2E/DX2                !
 ! D39   D(15,12,14,18)       -179.9996         estimate D2E/DX2                !
 ! D40   D(15,12,14,19)         -0.0002         estimate D2E/DX2                !
 ! D41   D(11,13,16,18)         -0.0001         estimate D2E/DX2                !
 ! D42   D(11,13,16,20)        179.9997         estimate D2E/DX2                !
 ! D43   D(17,13,16,18)        179.9999         estimate D2E/DX2                !
 ! D44   D(17,13,16,20)         -0.0003         estimate D2E/DX2                !
 ! D45   D(12,14,18,16)         -0.001          estimate D2E/DX2                !
 ! D46   D(12,14,18,21)       -179.9997         estimate D2E/DX2                !
 ! D47   D(19,14,18,16)        179.9995         estimate D2E/DX2                !
 ! D48   D(19,14,18,21)          0.0009         estimate D2E/DX2                !
 ! D49   D(13,16,18,14)          0.0009         estimate D2E/DX2                !
 ! D50   D(13,16,18,21)        179.9995         estimate D2E/DX2                !
 ! D51   D(20,16,18,14)       -179.9989         estimate D2E/DX2                !
 ! D52   D(20,16,18,21)         -0.0003         estimate D2E/DX2                !
 --------------------------------------------------------------------------------
 Trust Radius=3.00D-01 FncErr=1.00D-07 GrdErr=1.00D-06 EigMax=2.50D+02 EigMin=1.00D-04
 Number of steps in this run=    130 maximum allowed number of steps=    150.
 GradGradGradGradGradGradGradGradGradGradGradGradGradGradGradGradGradGrad

                          Input orientation:                          
 ---------------------------------------------------------------------
 Center     Atomic      Atomic             Coordinates (Angstroms)
 Number     Number       Type             X           Y           Z
 ---------------------------------------------------------------------
      1          6           0        1.977579   -1.214388    0.000078
      2          6           0        1.258047   -0.000090   -0.000017
      3          6           0        1.977526    1.214287   -0.000066
      4          6           0        3.367378    1.217494   -0.000057
      5          6           0        4.063922   -0.000003    0.000011
      6          1           0        1.434062   -2.154064    0.000143
      7          1           0        1.433908    2.153904   -0.000108
      8          1           0        3.922272    2.150219   -0.000106
      9          6           0       -0.164780   -0.000078   -0.000021
     10          6           0       -1.382160   -0.000046   -0.000050
     11          6           0       -2.807119   -0.000012   -0.000039
     12          6           0       -3.522963   -1.215517   -0.000087
     13          6           0       -3.522907    1.215529    0.000056
     14          6           0       -4.916805   -1.210497   -0.000048
     15          1           0       -2.975645   -2.153655   -0.000154
     16          6           0       -4.916747    1.210574    0.000091
     17          1           0       -2.975544    2.153641    0.000101
     18          6           0       -5.618437    0.000054    0.000030
     19          1           0       -5.457499   -2.153338   -0.000088
     20          1           0       -5.457398    2.153439    0.000169
     21          1           0       -6.705206    0.000081    0.000065
     22          6           0        3.367461   -1.217512    0.000083
     23          1           0        3.922372   -2.150225    0.000147
     24          7           0        5.448075    0.000063    0.000005
     25          6           0        6.627030    0.000131    0.000002
 ---------------------------------------------------------------------
                    Distance matrix (angstroms):
                    1          2          3          4          5
     1  C    0.000000
     2  C    1.411469   0.000000
     3  C    2.428675   1.411510   0.000000
     4  C    2.800998   2.435526   1.389856   0.000000
     5  C    2.414034   2.805875   2.414032   1.402666   0.000000
     6  H    1.085542   2.161154   3.411912   3.886530   3.399433
     7  H    3.411886   2.161161   1.085542   2.148295   3.399454
     8  H    3.886182   3.423729   2.158241   1.085303   2.154883
     9  C    2.462570   1.422827   2.462551   3.736124   4.228702
    10  C    3.572460   2.640207   3.572407   4.903113   5.446082
    11  C    4.936400   4.065166   4.936330   6.293388   6.871041
    12  C    5.500542   4.933084   6.013263   7.307280   7.683638
    13  C    6.013305   4.933077   5.500433   6.890285   7.683586
    14  C    6.894385   6.292367   7.308309   8.632661   9.061940
    15  H    5.041493   4.749946   5.989736   7.183216   7.361638
    16  C    7.308363   6.292360   6.894274   8.284128   9.061893
    17  H    5.989745   4.749932   5.041358   6.411632   7.361540
    18  C    7.692485   6.876484   7.692400   9.067912   9.682359
    19  H    7.494132   7.052307   8.162138   9.446743   9.761880
    20  H    8.162178   7.052297   7.494004   8.874270   9.761806
    21  H    8.767308   7.963253   8.767219  10.145888  10.769128
    22  C    1.389886   2.435517   2.800994   2.435006   1.402635
    23  H    2.158243   3.423698   3.886176   3.413144   2.154876
    24  N    3.676851   4.190028   3.676826   2.410692   1.384153
    25  C    4.805461   5.368983   4.805420   3.479555   2.563108
                    6          7          8          9         10
     6  H    0.000000
     7  H    4.307968   0.000000
     8  H    4.971724   2.488367   0.000000
     9  C    2.682527   2.682432   4.618200   0.000000
    10  C    3.545546   3.545383   5.723691   1.217380   0.000000
    11  C    4.756843   4.756644   7.064573   2.642339   1.424959
    12  C    5.045093   5.993627   8.170661   3.571370   2.461789
    13  C    5.993805   5.044855   7.503622   3.571375   2.461792
    14  C    6.420579   7.186846   9.456410   4.903759   3.736162
    15  H    4.409707   6.164351   8.130473   3.541025   2.679035
    16  C    7.187041   6.420334   8.888824   4.903761   3.736162
    17  H    6.164491   4.409452   6.897817   3.541031   2.679037
    18  C    7.374142   7.373916   9.779997   5.453657   4.236277
    19  H    6.891561   8.126735  10.319918   5.713966   4.609236
    20  H    8.126918   6.891306   9.379671   5.713969   4.609237
    21  H    8.419503   8.419271  10.842803   6.540426   5.323046
    22  C    2.148293   3.886525   3.413126   3.736157   4.903175
    23  H    2.488313   4.971718   4.300444   4.618219   5.723751
    24  N    4.555498   4.555499   2.636522   5.612855   6.830235
    25  C    5.622052   5.622033   3.455227   6.791810   8.009190
                   11         12         13         14         15
    11  C    0.000000
    12  C    1.410633   0.000000
    13  C    1.410635   2.431046   0.000000
    14  C    2.432293   1.393851   2.797955   0.000000
    15  H    2.160227   1.086121   3.413341   2.158159   0.000000
    16  C    2.432293   2.797955   1.393849   2.421071   3.884059
    17  H    2.160229   3.413340   1.086122   3.884060   4.307296
    18  C    2.811318   2.422524   2.422525   1.399186   3.409225
    19  H    3.414869   2.149869   3.884831   1.086876   2.481854
    20  H    3.414869   3.884830   2.149868   3.407096   4.970931
    21  H    3.898087   3.406516   3.406514   2.159601   4.306763
    22  C    6.293468   6.890424   7.307315   8.284269   6.411814
    23  H    7.064663   7.503779   8.170709   8.888990   6.898018
    24  N    8.255194   9.053019   9.052948  10.435334   8.694686
    25  C    9.434149  10.222532  10.222447  11.607142   9.841248
                   16         17         18         19         20
    16  C    0.000000
    17  H    2.158158   0.000000
    18  C    1.399188   3.409226   0.000000
    19  H    3.407098   4.970932   2.159398   0.000000
    20  H    1.086875   2.481854   2.159398   4.306777   0.000000
    21  H    2.159602   4.306762   1.086769   2.488772   2.488770
    22  C    8.632711   7.183202   9.068011   8.874440   9.446769
    23  H    9.456479   8.130468   9.780119   9.379872  10.319962
    24  N   10.435271   8.694553  11.066512  11.116145  11.116041
    25  C   11.607065   9.841089  12.245467  12.274904  12.274776
                   21         22         23         24         25
    21  H    0.000000
    22  C   10.145992   0.000000
    23  H   10.842935   1.085302   0.000000
    24  N   12.153281   2.410694   2.636571   0.000000
    25  C   13.332236   3.479575   3.455316   1.178955   0.000000
 Stoichiometry    C15H9N
 Framework group  C1[X(C15H9N)]
 Deg. of freedom    69
 Full point group                 C1      NOp   1
 Largest Abelian subgroup         C1      NOp   1
 Largest concise Abelian subgroup C1      NOp   1
                         Standard orientation:                         
 ---------------------------------------------------------------------
 Center     Atomic      Atomic             Coordinates (Angstroms)
 Number     Number       Type             X           Y           Z
 ---------------------------------------------------------------------
      1          6           0       -1.977579    1.214388    0.000078
      2          6           0       -1.258047    0.000090   -0.000017
      3          6           0       -1.977526   -1.214287   -0.000066
      4          6           0       -3.367378   -1.217494   -0.000057
      5          6           0       -4.063922    0.000003    0.000011
      6          1           0       -1.434062    2.154064    0.000143
      7          1           0       -1.433908   -2.153904   -0.000108
      8          1           0       -3.922272   -2.150219   -0.000106
      9          6           0        0.164780    0.000078   -0.000021
     10          6           0        1.382160    0.000046   -0.000050
     11          6           0        2.807119    0.000012   -0.000039
     12          6           0        3.522963    1.215517   -0.000087
     13          6           0        3.522907   -1.215529    0.000056
     14          6           0        4.916805    1.210497   -0.000048
     15          1           0        2.975645    2.153655   -0.000154
     16          6           0        4.916747   -1.210574    0.000091
     17          1           0        2.975544   -2.153641    0.000101
     18          6           0        5.618437   -0.000054    0.000030
     19          1           0        5.457499    2.153338   -0.000088
     20          1           0        5.457398   -2.153439    0.000169
     21          1           0        6.705206   -0.000081    0.000065
     22          6           0       -3.367461    1.217512    0.000083
     23          1           0       -3.922372    2.150225    0.000147
     24          7           0       -5.448075   -0.000063    0.000005
     25          6           0       -6.627030   -0.000131    0.000002
 ---------------------------------------------------------------------
 Rotational constants (GHZ):           2.8239363           0.1652625           0.1561257
 Standard basis: 6-31+G(d) (6D, 7F)
 There are   322 symmetry adapted cartesian basis functions of A   symmetry.
 There are   322 symmetry adapted basis functions of A   symmetry.
   322 basis functions,   548 primitive gaussians,   322 cartesian basis functions
    53 alpha electrons       53 beta electrons
       nuclear repulsion energy       828.1709621163 Hartrees.
 NAtoms=   25 NActive=   25 NUniq=   25 SFac= 1.00D+00 NAtFMM=   60 NAOKFM=F Big=F
 Integral buffers will be    131072 words long.
 Raffenetti 2 integral format.
 Two-electron integral symmetry is turned on.
 Nuclear repulsion after empirical dispersion term =      828.1545044820 Hartrees.
 One-electron integrals computed using PRISM.
 NBasis=   322 RedAO= T EigKep=  2.23D-06  NBF=   322
 NBsUse=   318 1.00D-06 EigRej=  6.79D-07 NBFU=   318
 ExpMin= 4.38D-02 ExpMax= 4.17D+03 ExpMxC= 6.27D+02 IAcc=3 IRadAn=         5 AccDes= 0.00D+00
 Harris functional with IExCor=  402 and IRadAn=       5 diagonalized for initial guess.
 HarFok:  IExCor=  402 AccDes= 0.00D+00 IRadAn=         5 IDoV= 1 UseB2=F ITyADJ=14
 ICtDFT=  3500011 ScaDFX=  1.000000  1.000000  1.000000  1.000000
 FoFCou: FMM=F IPFlag=           0 FMFlag=      100000 FMFlg1=           0
         NFxFlg=           0 DoJE=T BraDBF=F KetDBF=T FulRan=T
         wScrn=  0.000000 ICntrl=       500 IOpCl=  0 I1Cent=   200000004 NGrid=           0
         NMat0=    1 NMatS0=      1 NMatT0=    0 NMatD0=    1 NMtDS0=    0 NMtDT0=    0
 Petite list used in FoFCou.
 Requested convergence on RMS density matrix=1.00D-08 within 128 cycles.
 Requested convergence on MAX density matrix=1.00D-06.
 Requested convergence on             energy=1.00D-06.
 No special actions if energy rises.
 SCF Done:  E(RB3LYP) =  -631.713451740     A.U. after   15 cycles
            NFock= 15  Conv=0.41D-08     -V/T= 2.0099

 **********************************************************************

            Population analysis using the SCF Density.

 **********************************************************************

 Orbital symmetries:
       Occupied  (A) (A) (A) (A) (A) (A) (A) (A) (A) (A) (A) (A)
                 (A) (A) (A) (A) (A) (A) (A) (A) (A) (A) (A) (A)
                 (A) (A) (A) (A) (A) (A) (A) (A) (A) (A) (A) (A)
                 (A) (A) (A) (A) (A) (A) (A) (A) (A) (A) (A) (A)
                 (A) (A) (A) (A) (A)
       Virtual   (A) (A) (A) (A) (A) (A) (A) (A) (A) (A) (A) (A)
                 (A) (A) (A) (A) (A) (A) (A) (A) (A) (A) (A) (A)
                 (A) (A) (A) (A) (A) (A) (A) (A) (A) (A) (A) (A)
                 (A) (A) (A) (A) (A) (A) (A) (A) (A) (A) (A) (A)
                 (A) (A) (A) (A) (A) (A) (A) (A) (A) (A) (A) (A)
                 (A) (A) (A) (A) (A) (A) (A) (A) (A) (A) (A) (A)
                 (A) (A) (A) (A) (A) (A) (A) (A) (A) (A) (A) (A)
                 (A) (A) (A) (A) (A) (A) (A) (A) (A) (A) (A) (A)
                 (A) (A) (A) (A) (A) (A) (A) (A) (A) (A) (A) (A)
                 (A) (A) (A) (A) (A) (A) (A) (A) (A) (A) (A) (A)
                 (A) (A) (A) (A) (A) (A) (A) (A) (A) (A) (A) (A)
                 (A) (A) (A) (A) (A) (A) (A) (A) (A) (A) (A) (A)
                 (A) (A) (A) (A) (A) (A) (A) (A) (A) (A) (A) (A)
                 (A) (A) (A) (A) (A) (A) (A) (A) (A) (A) (A) (A)
                 (A) (A) (A) (A) (A) (A) (A) (A) (A) (A) (A) (A)
                 (A) (A) (A) (A) (A) (A) (A) (A) (A) (A) (A) (A)
                 (A) (A) (A) (A) (A) (A) (A) (A) (A) (A) (A) (A)
                 (A) (A) (A) (A) (A) (A) (A) (A) (A) (A) (A) (A)
                 (A) (A) (A) (A) (A) (A) (A) (A) (A) (A) (A) (A)
                 (A) (A) (A) (A) (A) (A) (A) (A) (A) (A) (A) (A)
                 (A) (A) (A) (A) (A) (A) (A) (A) (A) (A) (A) (A)
                 (A) (A) (A) (A) (A) (A) (A) (A) (A) (A) (A) (A)
                 (A)
 The electronic state is 1-A.
 Alpha  occ. eigenvalues --  -14.39053 -10.27619 -10.24479 -10.23934 -10.23464
 Alpha  occ. eigenvalues --  -10.22762 -10.22761 -10.22578 -10.22578 -10.21483
 Alpha  occ. eigenvalues --  -10.21483 -10.21296 -10.21237 -10.21206 -10.21190
 Alpha  occ. eigenvalues --  -10.20944  -0.97981  -0.89018  -0.87878  -0.81847
 Alpha  occ. eigenvalues --   -0.79333  -0.78239  -0.76628  -0.74525  -0.69190
 Alpha  occ. eigenvalues --   -0.64575  -0.63638  -0.62513  -0.59112  -0.56647
 Alpha  occ. eigenvalues --   -0.54362  -0.50265  -0.49784  -0.47239  -0.47202
 Alpha  occ. eigenvalues --   -0.45542  -0.45278  -0.44122  -0.43808  -0.41970
 Alpha  occ. eigenvalues --   -0.39916  -0.39643  -0.38330  -0.37642  -0.36740
 Alpha  occ. eigenvalues --   -0.35574  -0.33019  -0.31923  -0.28935  -0.28650
 Alpha  occ. eigenvalues --   -0.28567  -0.27266  -0.23136
 Alpha virt. eigenvalues --   -0.08120  -0.03921  -0.03161  -0.02752  -0.00658
 Alpha virt. eigenvalues --    0.00284   0.00355   0.01448   0.02053   0.02153
 Alpha virt. eigenvalues --    0.02386   0.03084   0.03873   0.04195   0.04308
 Alpha virt. eigenvalues --    0.04517   0.05321   0.05843   0.06342   0.07082
 Alpha virt. eigenvalues --    0.07618   0.07732   0.07976   0.08169   0.08753
 Alpha virt. eigenvalues --    0.08829   0.09445   0.09970   0.10796   0.11697
 Alpha virt. eigenvalues --    0.12218   0.12379   0.12549   0.13441   0.13708
 Alpha virt. eigenvalues --    0.14219   0.14278   0.14416   0.14475   0.14823
 Alpha virt. eigenvalues --    0.15529   0.15985   0.16502   0.16760   0.17020
 Alpha virt. eigenvalues --    0.17355   0.17875   0.18762   0.19188   0.19259
 Alpha virt. eigenvalues --    0.20209   0.20787   0.20949   0.21181   0.22085
 Alpha virt. eigenvalues --    0.22278   0.22485   0.22596   0.22801   0.23873
 Alpha virt. eigenvalues --    0.24058   0.24216   0.24532   0.25703   0.25726
 Alpha virt. eigenvalues --    0.26076   0.26264   0.26704   0.27043   0.27892
 Alpha virt. eigenvalues --    0.28707   0.29463   0.29672   0.29682   0.31377
 Alpha virt. eigenvalues --    0.32127   0.32763   0.32853   0.33528   0.33822
 Alpha virt. eigenvalues --    0.35060   0.35114   0.36098   0.36137   0.39041
 Alpha virt. eigenvalues --    0.39255   0.39955   0.40398   0.42971   0.46251
 Alpha virt. eigenvalues --    0.51859   0.54325   0.56267   0.58745   0.58867
 Alpha virt. eigenvalues --    0.62469   0.64722   0.65043   0.66280   0.67362
 Alpha virt. eigenvalues --    0.68224   0.69044   0.69222   0.69891   0.70413
 Alpha virt. eigenvalues --    0.71950   0.71967   0.72136   0.72216   0.74243
 Alpha virt. eigenvalues --    0.74498   0.74531   0.74884   0.75054   0.75662
 Alpha virt. eigenvalues --    0.76841   0.77974   0.78944   0.79016   0.79750
 Alpha virt. eigenvalues --    0.80575   0.82072   0.83305   0.85280   0.85313
 Alpha virt. eigenvalues --    0.86813   0.88953   0.90775   0.91151   0.92686
 Alpha virt. eigenvalues --    0.93009   0.93095   0.95065   0.95162   0.96756
 Alpha virt. eigenvalues --    0.98162   0.99193   0.99971   1.00626   1.01648
 Alpha virt. eigenvalues --    1.03653   1.06231   1.07778   1.09313   1.10485
 Alpha virt. eigenvalues --    1.12185   1.13050   1.15260   1.16625   1.18543
 Alpha virt. eigenvalues --    1.19089   1.20617   1.21913   1.22911   1.23571
 Alpha virt. eigenvalues --    1.24891   1.24900   1.26691   1.27303   1.28494
 Alpha virt. eigenvalues --    1.31552   1.31830   1.34005   1.35183   1.36296
 Alpha virt. eigenvalues --    1.41252   1.41872   1.41912   1.42840   1.43160
 Alpha virt. eigenvalues --    1.44757   1.46366   1.47000   1.47066   1.47175
 Alpha virt. eigenvalues --    1.48903   1.51523   1.54964   1.55248   1.56714
 Alpha virt. eigenvalues --    1.59229   1.65614   1.72480   1.77659   1.77731
 Alpha virt. eigenvalues --    1.79124   1.83923   1.84692   1.85950   1.86277
 Alpha virt. eigenvalues --    1.89036   1.89283   1.89725   1.90237   1.91500
 Alpha virt. eigenvalues --    1.93626   1.94676   1.97111   1.97834   1.98073
 Alpha virt. eigenvalues --    2.04134   2.06071   2.08107   2.10162   2.10439
 Alpha virt. eigenvalues --    2.12469   2.12942   2.13584   2.15534   2.16101
 Alpha virt. eigenvalues --    2.16485   2.20125   2.20737   2.24229   2.25973
 Alpha virt. eigenvalues --    2.27363   2.28229   2.28842   2.29214   2.35593
 Alpha virt. eigenvalues --    2.43267   2.45835   2.48645   2.49943   2.52735
 Alpha virt. eigenvalues --    2.57451   2.59341   2.60582   2.61480   2.62616
 Alpha virt. eigenvalues --    2.66216   2.68063   2.73271   2.73310   2.74205
 Alpha virt. eigenvalues --    2.76261   2.79619   2.79785   2.84076   2.84308
 Alpha virt. eigenvalues --    2.90771   2.99012   2.99406   3.15366   3.27597
 Alpha virt. eigenvalues --    3.28170   3.35762   3.46014   3.59203   4.20899
 Alpha virt. eigenvalues --    4.21744   4.22123   4.22751   4.23776   4.25382
 Alpha virt. eigenvalues --    4.30683   4.36182   4.37990   4.38929   4.40781
 Alpha virt. eigenvalues --    4.45677   4.56903   4.67390   4.78634   4.98306
          Condensed to atoms (all electrons):
               1          2          3          4          5          6
     1  C   12.333463  -0.616710  -4.545534   2.046697   0.427246   0.321878
     2  C   -0.616710   6.799071  -0.615691   0.493617  -0.445382  -0.000008
     3  C   -4.545534  -0.615691  12.332938  -3.294277   0.426932   0.016544
     4  C    2.046697   0.493617  -3.294277   8.392839   0.132658  -0.004512
     5  C    0.427246  -0.445382   0.426932   0.132658   6.054645  -0.028472
     6  H    0.321878  -0.000008   0.016544  -0.004512  -0.028472   0.513539
     7  H    0.016538  -0.000027   0.321858  -0.062305  -0.028462  -0.000147
     8  H    0.002118   0.016894  -0.084618   0.250189   0.073099   0.000014
     9  C   -0.047453   0.219648  -0.047452  -0.050731  -0.071749   0.040091
    10  C    0.188134  -0.924154   0.188391  -0.077713  -0.056951  -0.000576
    11  C   -0.215894   0.597605  -0.216008   0.066763  -0.012904   0.003117
    12  C    0.527770  -0.248110  -0.416029   0.080139   0.001539   0.001871
    13  C   -0.416073  -0.248150   0.527716  -0.106093   0.001530   0.000304
    14  C   -0.115133   0.108662   0.078744  -0.022366   0.001156  -0.000016
    15  H    0.001141   0.000560   0.000365  -0.000051   0.000010   0.000002
    16  C    0.078756   0.108666  -0.115114   0.032596   0.001158  -0.000106
    17  H    0.000365   0.000558   0.001142  -0.000020   0.000010   0.000000
    18  C    0.000357  -0.015680   0.000355   0.000788  -0.000311   0.000065
    19  H    0.000117  -0.000141  -0.000042  -0.000001   0.000000   0.000000
    20  H   -0.000042  -0.000141   0.000117   0.000006   0.000000   0.000000
    21  H   -0.000001  -0.000023  -0.000001   0.000000   0.000000   0.000000
    22  C   -3.294148   0.493999   2.046628  -2.091928   0.132424  -0.062348
    23  H   -0.084644   0.016904   0.002108   0.054167   0.073102  -0.004200
    24  N   -0.069661   0.071644  -0.069632  -0.017408  -0.240685  -0.000263
    25  C   -0.015026  -0.013230  -0.015032  -0.004510  -0.353628   0.000176
               7          8          9         10         11         12
     1  C    0.016538   0.002118  -0.047453   0.188134  -0.215894   0.527770
     2  C   -0.000027   0.016894   0.219648  -0.924154   0.597605  -0.248110
     3  C    0.321858  -0.084618  -0.047452   0.188391  -0.216008  -0.416029
     4  C   -0.062305   0.250189  -0.050731  -0.077713   0.066763   0.080139
     5  C   -0.028462   0.073099  -0.071749  -0.056951  -0.012904   0.001539
     6  H   -0.000147   0.000014   0.040091  -0.000576   0.003117   0.001871
     7  H    0.513538  -0.004200   0.040075  -0.000571   0.003118   0.000305
     8  H   -0.004200   0.507275  -0.005597   0.001157  -0.000101  -0.000026
     9  C    0.040075  -0.005597   6.120871   0.244059  -0.346926   0.071714
    10  C   -0.000571   0.001157   0.244059   6.875866  -0.919308   0.548243
    11  C    0.003118  -0.000101  -0.346926  -0.919308   8.581504  -1.849176
    12  C    0.000305  -0.000026   0.071714   0.548243  -1.849176  19.709703
    13  C    0.001870   0.000074   0.071737   0.548850  -1.849569 -10.017566
    14  C   -0.000106  -0.000001  -0.082615  -0.200571   0.857355  -5.325482
    15  H    0.000000   0.000000   0.002250   0.024156  -0.021902   0.311574
    16  C   -0.000016   0.000002  -0.082607  -0.200730   0.857448   3.307920
    17  H    0.000002   0.000000   0.002248   0.024158  -0.021903   0.019550
    18  C    0.000065   0.000000   0.022326  -0.191100   0.237828  -0.331903
    19  H    0.000000   0.000000  -0.000426  -0.005064   0.009854  -0.025205
    20  H    0.000000   0.000000  -0.000426  -0.005064   0.009854   0.004209
    21  H    0.000000   0.000000   0.000160  -0.000478   0.001704   0.009726
    22  C   -0.004512   0.054165  -0.050747  -0.077558   0.066678  -0.106064
    23  H    0.000014  -0.000141  -0.005596   0.001157  -0.000100   0.000074
    24  N   -0.000263  -0.010604  -0.010162   0.005528  -0.000082  -0.000014
    25  C    0.000176  -0.004528   0.000526  -0.000890   0.000085  -0.000015
              13         14         15         16         17         18
     1  C   -0.416073  -0.115133   0.001141   0.078756   0.000365   0.000357
     2  C   -0.248150   0.108662   0.000560   0.108666   0.000558  -0.015680
     3  C    0.527716   0.078744   0.000365  -0.115114   0.001142   0.000355
     4  C   -0.106093  -0.022366  -0.000051   0.032596  -0.000020   0.000788
     5  C    0.001530   0.001156   0.000010   0.001158   0.000010  -0.000311
     6  H    0.000304  -0.000016   0.000002  -0.000106   0.000000   0.000065
     7  H    0.001870  -0.000106   0.000000  -0.000016   0.000002   0.000065
     8  H    0.000074  -0.000001   0.000000   0.000002   0.000000   0.000000
     9  C    0.071737  -0.082615   0.002250  -0.082607   0.002248   0.022326
    10  C    0.548850  -0.200571   0.024156  -0.200730   0.024158  -0.191100
    11  C   -1.849569   0.857355  -0.021902   0.857448  -0.021903   0.237828
    12  C  -10.017566  -5.325482   0.311574   3.307920   0.019550  -0.331903
    13  C   19.709271   3.307973   0.019551  -5.325118   0.311575  -0.331871
    14  C    3.307973   8.017777  -0.056539  -1.273022  -0.004234   0.551643
    15  H    0.019551  -0.056539   0.528078  -0.004235  -0.000143   0.006029
    16  C   -5.325118  -1.273022  -0.004235   8.017537  -0.056538   0.551615
    17  H    0.311575  -0.004234  -0.000143  -0.056538   0.528079   0.006029
    18  C   -0.331871   0.551643   0.006029   0.551615   0.006029   5.374884
    19  H    0.004207   0.292402  -0.004591   0.000898   0.000016   0.017211
    20  H   -0.025202   0.000897   0.000016   0.292398  -0.004591   0.017211
    21  H    0.009726  -0.004030  -0.000142  -0.004032  -0.000142   0.280117
    22  C    0.080135   0.032592  -0.000020  -0.022363  -0.000051   0.000787
    23  H   -0.000026   0.000002   0.000000  -0.000001   0.000000   0.000000
    24  N   -0.000014  -0.000020   0.000000  -0.000020   0.000000   0.000003
    25  C   -0.000015   0.000001   0.000000   0.000001   0.000000   0.000000
              19         20         21         22         23         24
     1  C    0.000117  -0.000042  -0.000001  -3.294148  -0.084644  -0.069661
     2  C   -0.000141  -0.000141  -0.000023   0.493999   0.016904   0.071644
     3  C   -0.000042   0.000117  -0.000001   2.046628   0.002108  -0.069632
     4  C   -0.000001   0.000006   0.000000  -2.091928   0.054167  -0.017408
     5  C    0.000000   0.000000   0.000000   0.132424   0.073102  -0.240685
     6  H    0.000000   0.000000   0.000000  -0.062348  -0.004200  -0.000263
     7  H    0.000000   0.000000   0.000000  -0.004512   0.000014  -0.000263
     8  H    0.000000   0.000000   0.000000   0.054165  -0.000141  -0.010604
     9  C   -0.000426  -0.000426   0.000160  -0.050747  -0.005596  -0.010162
    10  C   -0.005064  -0.005064  -0.000478  -0.077558   0.001157   0.005528
    11  C    0.009854   0.009854   0.001704   0.066678  -0.000100  -0.000082
    12  C   -0.025205   0.004209   0.009726  -0.106064   0.000074  -0.000014
    13  C    0.004207  -0.025202   0.009726   0.080135  -0.000026  -0.000014
    14  C    0.292402   0.000897  -0.004030   0.032592   0.000002  -0.000020
    15  H   -0.004591   0.000016  -0.000142  -0.000020   0.000000   0.000000
    16  C    0.000898   0.292398  -0.004032  -0.022363  -0.000001  -0.000020
    17  H    0.000016  -0.004591  -0.000142  -0.000051   0.000000   0.000000
    18  C    0.017211   0.017211   0.280117   0.000787   0.000000   0.000003
    19  H    0.530486  -0.000158  -0.004702   0.000006   0.000000   0.000000
    20  H   -0.000158   0.530486  -0.004702  -0.000001   0.000000   0.000000
    21  H   -0.004702  -0.004702   0.532850   0.000000   0.000000   0.000000
    22  C    0.000006  -0.000001   0.000000   8.392607   0.250208  -0.017436
    23  H    0.000000   0.000000   0.000000   0.250208   0.507275  -0.010603
    24  N    0.000000   0.000000   0.000000  -0.017436  -0.010603   6.632488
    25  C    0.000000   0.000000   0.000000  -0.004529  -0.004528   0.943373
              25
     1  C   -0.015026
     2  C   -0.013230
     3  C   -0.015032
     4  C   -0.004510
     5  C   -0.353628
     6  H    0.000176
     7  H    0.000176
     8  H   -0.004528
     9  C    0.000526
    10  C   -0.000890
    11  C    0.000085
    12  C   -0.000015
    13  C   -0.000015
    14  C    0.000001
    15  H    0.000000
    16  C    0.000001
    17  H    0.000000
    18  C    0.000000
    19  H    0.000000
    20  H    0.000000
    21  H    0.000000
    22  C   -0.004529
    23  H   -0.004528
    24  N    0.943373
    25  C    5.512716
 Mulliken charges:
               1
     1  C   -0.524261
     2  C    0.199619
     3  C   -0.524408
     4  C    0.181457
     5  C   -0.086964
     6  H    0.203048
     7  H    0.203050
     8  H    0.204829
     9  C   -0.033218
    10  C    0.011027
    11  C    0.160963
    12  C   -0.274747
    13  C   -0.274822
    14  C   -0.165069
    15  H    0.193891
    16  C   -0.165093
    17  H    0.193891
    18  C   -0.196445
    19  H    0.185134
    20  H    0.185134
    21  H    0.183972
    22  C    0.181477
    23  H    0.204828
    24  N   -0.206169
    25  C   -0.041122
 Sum of Mulliken charges =   0.00000
 Mulliken charges with hydrogens summed into heavy atoms:
               1
     1  C   -0.321214
     2  C    0.199619
     3  C   -0.321358
     4  C    0.386286
     5  C   -0.086964
     9  C   -0.033218
    10  C    0.011027
    11  C    0.160963
    12  C   -0.080856
    13  C   -0.080931
    14  C    0.020065
    16  C    0.020041
    18  C   -0.012474
    22  C    0.386305
    24  N   -0.206169
    25  C   -0.041122
 Electronic spatial extent (au):  <R**2>=           6344.0916
 Charge=              0.0000 electrons
 Dipole moment (field-independent basis, Debye):
    X=              4.8857    Y=              0.0001    Z=              0.0001  Tot=              4.8857
 Quadrupole moment (field-independent basis, Debye-Ang):
   XX=           -115.5894   YY=            -80.3151   ZZ=            -98.6875
   XY=             -0.0015   XZ=              0.0002   YZ=              0.0000
 Traceless Quadrupole moment (field-independent basis, Debye-Ang):
   XX=            -17.3921   YY=             17.8823   ZZ=             -0.4902
   XY=             -0.0015   XZ=              0.0002   YZ=              0.0000
 Octapole moment (field-independent basis, Debye-Ang**2):
  XXX=            416.2327  YYY=              0.0010  ZZZ=              0.0001  XYY=              3.7147
  XXY=              0.0098  XXZ=              0.0027  XZZ=             -7.2213  YZZ=              0.0000
  YYZ=              0.0004  XYZ=             -0.0038
 Hexadecapole moment (field-independent basis, Debye-Ang**3):
 XXXX=         -10414.7233 YYYY=           -560.4345 ZZZZ=           -119.5872 XXXY=             -0.0754
 XXXZ=              0.0149 YYYX=             -0.0069 YYYZ=              0.0003 ZZZX=              0.0002
 ZZZY=              0.0001 XXYY=          -1359.1240 XXZZ=          -1534.6750 YYZZ=           -136.8934
 XXYZ=             -0.0054 YYXZ=              0.0004 ZZXY=             -0.0002
 N-N= 8.281545044820D+02 E-N=-3.117715485528D+03  KE= 6.255374590731D+02
 Evaluate density.
 Using the total density.
 Monte-Carlo method of calculating molar volume:
 based on  0.001 e/bohr**3 density envelope.
 Number of points per bohr**3 =   20 CutOff= 1.00D-04
 Using the SCF density.
 There are       405 points.  Will hold       405 in memory.
 LenV=  4026295804 MDV=  4026531840.
 Box volume = 8303.967 fraction occupied=0.240
 Integrated density= 8.7833936702748105D+01 error=-1.8166063297251895D+01
 Molar volume = 1988.851 bohr**3/mol (177.483 cm**3/mol)
 Recommended a0 for SCRF calculation =  5.04 angstrom (  9.53 bohr)
 Calling FoFJK, ICntrl=      2127 FMM=F ISym2X=0 I1Cent= 0 IOpClX= 0 NMat=1 NMatS=1 NMatT=0.
 ***** Axes restored to original set *****
 -------------------------------------------------------------------
 Center     Atomic                   Forces (Hartrees/Bohr)
 Number     Number              X              Y              Z
 -------------------------------------------------------------------
      1        6          -0.000010503   -0.000023675   -0.000001516
      2        6           0.000029577    0.000020460    0.000003611
      3        6          -0.000034615    0.000004816   -0.000000525
      4        6           0.000030339    0.000014410   -0.000000326
      5        6          -0.000018211    0.000013384   -0.000000513
      6        1          -0.000002683    0.000006353   -0.000000387
      7        1           0.000000550   -0.000004290   -0.000000652
      8        1          -0.000002225   -0.000004659    0.000000223
      9        6           0.000060157   -0.000003469   -0.000002082
     10        6          -0.000054908   -0.000000001    0.000001157
     11        6          -0.000031218    0.000001064    0.000001519
     12        6           0.000022214   -0.000020566   -0.000000303
     13        6           0.000024190    0.000019447   -0.000000784
     14        6          -0.000019383   -0.000014133   -0.000001584
     15        1           0.000000676    0.000005696    0.000000149
     16        6          -0.000020896    0.000012875   -0.000000482
     17        1           0.000000585   -0.000005803    0.000000150
     18        6           0.000005229    0.000001045    0.000002084
     19        1           0.000003874    0.000000627    0.000000129
     20        1           0.000003739   -0.000000253   -0.000000304
     21        1           0.000002918   -0.000000103   -0.000000425
     22        6           0.000008813   -0.000026598    0.000000508
     23        1           0.000000813    0.000005313   -0.000000039
     24        7           0.000007008   -0.000001835    0.000000463
     25        6          -0.000006042   -0.000000103   -0.000000071
 -------------------------------------------------------------------
 Cartesian Forces:  Max     0.000060157 RMS     0.000014907

 GradGradGradGradGradGradGradGradGradGradGradGradGradGradGradGradGradGrad
 Berny optimization.
 FormGI is forming the generalized inverse of G from B-inverse, IUseBI=4.
 Internal  Forces:  Max     0.000062979 RMS     0.000008576
 Search for a local minimum.
 Step number   1 out of a maximum of  130
 All quantities printed in internal units (Hartrees-Bohrs-Radians)
 Mixed Optimization -- En-DIIS/RFO-DIIS
 Second derivative matrix not updated -- first step.
 ITU=  0
     Eigenvalues ---    0.00230   0.01024   0.01395   0.01759   0.01868
     Eigenvalues ---    0.01961   0.01973   0.02047   0.02054   0.02057
     Eigenvalues ---    0.02066   0.02074   0.02100   0.02108   0.02112
     Eigenvalues ---    0.02119   0.02120   0.02137   0.02141   0.02153
     Eigenvalues ---    0.02157   0.03783   0.04504   0.04616   0.04616
     Eigenvalues ---    0.16000   0.16000   0.16000   0.16000   0.16000
     Eigenvalues ---    0.16000   0.16000   0.16000   0.16000   0.22000
     Eigenvalues ---    0.22000   0.22000   0.22968   0.23473   0.24000
     Eigenvalues ---    0.25000   0.25000   0.25000   0.35176   0.35176
     Eigenvalues ---    0.35189   0.35265   0.35265   0.35333   0.35333
     Eigenvalues ---    0.35361   0.35361   0.40784   0.40846   0.41492
     Eigenvalues ---    0.41570   0.41722   0.42037   0.44461   0.44575
     Eigenvalues ---    0.44582   0.45003   0.45966   0.45988   0.46655
     Eigenvalues ---    0.47341   0.48351   0.96554   1.16151
 RFO step:  Lambda=-2.21787074D-08 EMin= 2.30000000D-03
 Linear search not attempted -- first point.
 Iteration  1 RMS(Cart)=  0.00007691 RMS(Int)=  0.00000000
 Iteration  2 RMS(Cart)=  0.00000001 RMS(Int)=  0.00000000
 Variable       Old X    -DE/DX   Delta X   Delta X   Delta X     New X
                                 (Linear)    (Quad)   (Total)
    R1        2.66729   0.00001   0.00000   0.00002   0.00002   2.66731
    R2        2.05138   0.00000   0.00000  -0.00001  -0.00001   2.05137
    R3        2.62650   0.00000   0.00000   0.00001   0.00001   2.62651
    R4        2.66737  -0.00001   0.00000  -0.00002  -0.00002   2.66735
    R5        2.68875   0.00000   0.00000   0.00001   0.00001   2.68876
    R6        2.62645   0.00002   0.00000   0.00004   0.00004   2.62648
    R7        2.05138   0.00000   0.00000  -0.00001  -0.00001   2.05137
    R8        2.65065   0.00000   0.00000   0.00001   0.00001   2.65066
    R9        2.05093  -0.00001   0.00000  -0.00001  -0.00001   2.05091
   R10        2.65060   0.00002   0.00000   0.00003   0.00003   2.65063
   R11        2.61567   0.00000   0.00000   0.00000   0.00000   2.61567
   R12        2.30051   0.00006   0.00000   0.00007   0.00007   2.30058
   R13        2.69278   0.00001   0.00000   0.00002   0.00002   2.69280
   R14        2.66571   0.00000   0.00000   0.00001   0.00001   2.66572
   R15        2.66571   0.00000   0.00000   0.00001   0.00001   2.66572
   R16        2.63400   0.00001   0.00000   0.00003   0.00003   2.63402
   R17        2.05247   0.00000   0.00000  -0.00001  -0.00001   2.05246
   R18        2.63399   0.00001   0.00000   0.00003   0.00003   2.63402
   R19        2.05247   0.00000   0.00000  -0.00001  -0.00001   2.05246
   R20        2.64408   0.00001   0.00000   0.00003   0.00003   2.64411
   R21        2.05390   0.00000   0.00000  -0.00001  -0.00001   2.05389
   R22        2.64408   0.00001   0.00000   0.00003   0.00003   2.64411
   R23        2.05390   0.00000   0.00000  -0.00001  -0.00001   2.05389
   R24        2.05370   0.00000   0.00000  -0.00001  -0.00001   2.05369
   R25        2.05092   0.00000   0.00000  -0.00001  -0.00001   2.05091
   R26        2.22790  -0.00001   0.00000  -0.00001  -0.00001   2.22790
    A1        2.08228   0.00000   0.00000  -0.00002  -0.00002   2.08226
    A2        2.10797  -0.00001   0.00000  -0.00004  -0.00004   2.10793
    A3        2.09294   0.00001   0.00000   0.00006   0.00006   2.09300
    A4        2.07181   0.00002   0.00000   0.00009   0.00009   2.07189
    A5        2.10573  -0.00002   0.00000  -0.00006  -0.00006   2.10566
    A6        2.10565  -0.00001   0.00000  -0.00002  -0.00002   2.10563
    A7        2.10797  -0.00001   0.00000  -0.00004  -0.00004   2.10793
    A8        2.08223   0.00000   0.00000   0.00001   0.00001   2.08224
    A9        2.09299   0.00001   0.00000   0.00003   0.00003   2.09302
   A10        2.08815  -0.00001   0.00000  -0.00004  -0.00004   2.08811
   A11        2.10978   0.00001   0.00000   0.00002   0.00002   2.10980
   A12        2.08526   0.00000   0.00000   0.00002   0.00002   2.08528
   A13        2.10233   0.00002   0.00000   0.00008   0.00008   2.10240
   A14        2.09041  -0.00001   0.00000  -0.00003  -0.00003   2.09038
   A15        2.09045  -0.00001   0.00000  -0.00005  -0.00005   2.09040
   A16        2.10301  -0.00001   0.00000  -0.00004  -0.00004   2.10297
   A17        2.10301  -0.00001   0.00000  -0.00004  -0.00004   2.10297
   A18        2.07716   0.00002   0.00000   0.00008   0.00008   2.07725
   A19        2.09943  -0.00001   0.00000  -0.00004  -0.00004   2.09939
   A20        2.08122   0.00000   0.00000   0.00000   0.00000   2.08122
   A21        2.10253   0.00001   0.00000   0.00004   0.00004   2.10257
   A22        2.09943  -0.00001   0.00000  -0.00004  -0.00004   2.09939
   A23        2.08122   0.00000   0.00000   0.00000   0.00000   2.08122
   A24        2.10253   0.00001   0.00000   0.00004   0.00004   2.10257
   A25        2.09968  -0.00001   0.00000  -0.00003  -0.00003   2.09965
   A26        2.08788   0.00000   0.00000   0.00000   0.00000   2.08788
   A27        2.09562   0.00001   0.00000   0.00003   0.00003   2.09566
   A28        2.09968  -0.00001   0.00000  -0.00003  -0.00003   2.09965
   A29        2.08788   0.00000   0.00000  -0.00001  -0.00001   2.08788
   A30        2.09562   0.00001   0.00000   0.00003   0.00003   2.09566
   A31        2.09098   0.00001   0.00000   0.00006   0.00006   2.09104
   A32        2.09610  -0.00001   0.00000  -0.00003  -0.00003   2.09607
   A33        2.09610  -0.00001   0.00000  -0.00003  -0.00003   2.09607
   A34        2.08815  -0.00001   0.00000  -0.00004  -0.00004   2.08811
   A35        2.10974   0.00001   0.00000   0.00004   0.00004   2.10978
   A36        2.08529   0.00000   0.00000   0.00000   0.00000   2.08529
   A37        3.14157   0.00000   0.00000   0.00001   0.00001   3.14158
   A38        3.14159   0.00000   0.00000   0.00000   0.00000   3.14159
   A39        3.14158   0.00000   0.00000   0.00000   0.00000   3.14159
   A40        3.14157   0.00000   0.00000   0.00002   0.00002   3.14159
   A41        3.14155   0.00000   0.00000   0.00009   0.00009   3.14164
   A42        3.14159   0.00000   0.00000   0.00000   0.00000   3.14159
    D1        3.14156   0.00000   0.00000   0.00003   0.00003  -3.14159
    D2        0.00001   0.00000   0.00000  -0.00002  -0.00002  -0.00001
    D3       -0.00003   0.00000   0.00000   0.00004   0.00004   0.00001
    D4       -3.14159   0.00000   0.00000  -0.00001  -0.00001   3.14159
    D5        0.00002   0.00000   0.00000  -0.00002  -0.00002  -0.00001
    D6       -3.14158   0.00000   0.00000  -0.00001  -0.00001   3.14159
    D7       -3.14158   0.00000   0.00000  -0.00001  -0.00001   3.14159
    D8        0.00000   0.00000   0.00000  -0.00001  -0.00001   0.00000
    D9        0.00003   0.00000   0.00000  -0.00004  -0.00004  -0.00001
   D10       -3.14156   0.00000   0.00000  -0.00004  -0.00004   3.14159
   D11        3.14159   0.00000   0.00000   0.00001   0.00001  -3.14158
   D12        0.00000   0.00000   0.00000   0.00001   0.00001   0.00001
   D13       -0.00011   0.00000   0.00000   0.00003   0.00003  -0.00008
   D14        3.14144   0.00000   0.00000   0.00012   0.00012   3.14155
   D15        3.14151   0.00000   0.00000  -0.00004  -0.00004   3.14147
   D16       -0.00012   0.00000   0.00000   0.00005   0.00005  -0.00008
   D17       -0.00001   0.00000   0.00000   0.00001   0.00001   0.00000
   D18        3.14158   0.00000   0.00000   0.00001   0.00001  -3.14159
   D19        3.14158   0.00000   0.00000   0.00001   0.00001  -3.14159
   D20       -0.00002   0.00000   0.00000   0.00002   0.00002   0.00000
   D21       -0.00001   0.00000   0.00000   0.00001   0.00001   0.00000
   D22        3.14158   0.00000   0.00000   0.00001   0.00001   3.14159
   D23        3.14159   0.00000   0.00000   0.00001   0.00001  -3.14159
   D24       -0.00001   0.00000   0.00000   0.00001   0.00001   0.00000
   D25        0.00001   0.00000   0.00000  -0.00001  -0.00001   0.00000
   D26       -3.14158   0.00000   0.00000  -0.00001  -0.00001   3.14159
   D27       -3.14158   0.00000   0.00000  -0.00001  -0.00001  -3.14159
   D28        0.00001   0.00000   0.00000  -0.00001  -0.00001   0.00000
   D29        3.14157   0.00000   0.00000   0.00003   0.00003  -3.14159
   D30       -0.00002   0.00000   0.00000   0.00003   0.00003   0.00000
   D31        0.00001   0.00000   0.00000  -0.00001  -0.00001  -0.00001
   D32       -3.14159   0.00000   0.00000  -0.00002  -0.00002   3.14158
   D33       -3.14157   0.00000   0.00000  -0.00002  -0.00002   3.14159
   D34        0.00002   0.00000   0.00000  -0.00002  -0.00002   0.00000
   D35       -0.00001   0.00000   0.00000   0.00002   0.00002   0.00001
   D36        3.14158   0.00000   0.00000   0.00002   0.00002  -3.14158
   D37        0.00001   0.00000   0.00000  -0.00001  -0.00001   0.00000
   D38        3.14159   0.00000   0.00000   0.00000   0.00000  -3.14159
   D39       -3.14159   0.00000   0.00000  -0.00001  -0.00001   3.14159
   D40        0.00000   0.00000   0.00000   0.00000   0.00000   0.00000
   D41        0.00000   0.00000   0.00000   0.00000   0.00000   0.00000
   D42        3.14159   0.00000   0.00000   0.00000   0.00000   3.14159
   D43        3.14159   0.00000   0.00000   0.00000   0.00000   3.14159
   D44       -0.00001   0.00000   0.00000   0.00000   0.00000   0.00000
   D45       -0.00002   0.00000   0.00000   0.00003   0.00003   0.00001
   D46       -3.14159   0.00000   0.00000   0.00000   0.00000  -3.14159
   D47        3.14158   0.00000   0.00000   0.00001   0.00001  -3.14159
   D48        0.00002   0.00000   0.00000  -0.00002  -0.00002   0.00000
   D49        0.00002   0.00000   0.00000  -0.00002  -0.00002  -0.00001
   D50        3.14158   0.00000   0.00000   0.00001   0.00001  -3.14159
   D51       -3.14157   0.00000   0.00000  -0.00003  -0.00003   3.14159
   D52        0.00000   0.00000   0.00000   0.00001   0.00001   0.00000
         Item               Value     Threshold  Converged?
 Maximum Force            0.000063     0.000450     YES
 RMS     Force            0.000009     0.000300     YES
 Maximum Displacement     0.000270     0.001800     YES
 RMS     Displacement     0.000077     0.001200     YES
 Predicted change in Energy=-1.108935D-08
 Optimization completed.
    -- Stationary point found.
                           ----------------------------
                           !   Optimized Parameters   !
                           ! (Angstroms and Degrees)  !
 --------------------------                            --------------------------
 ! Name  Definition              Value          Derivative Info.                !
 --------------------------------------------------------------------------------
 ! R1    R(1,2)                  1.4115         -DE/DX =    0.0                 !
 ! R2    R(1,6)                  1.0855         -DE/DX =    0.0                 !
 ! R3    R(1,22)                 1.3899         -DE/DX =    0.0                 !
 ! R4    R(2,3)                  1.4115         -DE/DX =    0.0                 !
 ! R5    R(2,9)                  1.4228         -DE/DX =    0.0                 !
 ! R6    R(3,4)                  1.3899         -DE/DX =    0.0                 !
 ! R7    R(3,7)                  1.0855         -DE/DX =    0.0                 !
 ! R8    R(4,5)                  1.4027         -DE/DX =    0.0                 !
 ! R9    R(4,8)                  1.0853         -DE/DX =    0.0                 !
 ! R10   R(5,22)                 1.4026         -DE/DX =    0.0                 !
 ! R11   R(5,24)                 1.3842         -DE/DX =    0.0                 !
 ! R12   R(9,10)                 1.2174         -DE/DX =    0.0001              !
 ! R13   R(10,11)                1.425          -DE/DX =    0.0                 !
 ! R14   R(11,12)                1.4106         -DE/DX =    0.0                 !
 ! R15   R(11,13)                1.4106         -DE/DX =    0.0                 !
 ! R16   R(12,14)                1.3939         -DE/DX =    0.0                 !
 ! R17   R(12,15)                1.0861         -DE/DX =    0.0                 !
 ! R18   R(13,16)                1.3938         -DE/DX =    0.0                 !
 ! R19   R(13,17)                1.0861         -DE/DX =    0.0                 !
 ! R20   R(14,18)                1.3992         -DE/DX =    0.0                 !
 ! R21   R(14,19)                1.0869         -DE/DX =    0.0                 !
 ! R22   R(16,18)                1.3992         -DE/DX =    0.0                 !
 ! R23   R(16,20)                1.0869         -DE/DX =    0.0                 !
 ! R24   R(18,21)                1.0868         -DE/DX =    0.0                 !
 ! R25   R(22,23)                1.0853         -DE/DX =    0.0                 !
 ! R26   R(24,25)                1.179          -DE/DX =    0.0                 !
 ! A1    A(2,1,6)              119.3057         -DE/DX =    0.0                 !
 ! A2    A(2,1,22)             120.7776         -DE/DX =    0.0                 !
 ! A3    A(6,1,22)             119.9167         -DE/DX =    0.0                 !
 ! A4    A(1,2,3)              118.7058         -DE/DX =    0.0                 !
 ! A5    A(1,2,9)              120.6493         -DE/DX =    0.0                 !
 ! A6    A(3,2,9)              120.6449         -DE/DX =    0.0                 !
 ! A7    A(2,3,4)              120.7776         -DE/DX =    0.0                 !
 ! A8    A(2,3,7)              119.303          -DE/DX =    0.0                 !
 ! A9    A(4,3,7)              119.9194         -DE/DX =    0.0                 !
 ! A10   A(3,4,5)              119.6422         -DE/DX =    0.0                 !
 ! A11   A(3,4,8)              120.8813         -DE/DX =    0.0                 !
 ! A12   A(5,4,8)              119.4765         -DE/DX =    0.0                 !
 ! A13   A(4,5,22)             120.4544         -DE/DX =    0.0                 !
 ! A14   A(4,5,24)             119.7716         -DE/DX =    0.0                 !
 ! A15   A(22,5,24)            119.7739         -DE/DX =    0.0                 !
 ! A16   A(10,11,12)           120.4936         -DE/DX =    0.0                 !
 ! A17   A(10,11,13)           120.4937         -DE/DX =    0.0                 !
 ! A18   A(12,11,13)           119.0127         -DE/DX =    0.0                 !
 ! A19   A(11,12,14)           120.2886         -DE/DX =    0.0                 !
 ! A20   A(11,12,15)           119.2453         -DE/DX =    0.0                 !
 ! A21   A(14,12,15)           120.466          -DE/DX =    0.0                 !
 ! A22   A(11,13,16)           120.2886         -DE/DX =    0.0                 !
 ! A23   A(11,13,17)           119.2453         -DE/DX =    0.0                 !
 ! A24   A(16,13,17)           120.4661         -DE/DX =    0.0                 !
 ! A25   A(12,14,18)           120.3028         -DE/DX =    0.0                 !
 ! A26   A(12,14,19)           119.6268         -DE/DX =    0.0                 !
 ! A27   A(18,14,19)           120.0704         -DE/DX =    0.0                 !
 ! A28   A(13,16,18)           120.3028         -DE/DX =    0.0                 !
 ! A29   A(13,16,20)           119.6268         -DE/DX =    0.0                 !
 ! A30   A(18,16,20)           120.0703         -DE/DX =    0.0                 !
 ! A31   A(14,18,16)           119.8044         -DE/DX =    0.0                 !
 ! A32   A(14,18,21)           120.0979         -DE/DX =    0.0                 !
 ! A33   A(16,18,21)           120.0977         -DE/DX =    0.0                 !
 ! A34   A(1,22,5)             119.6424         -DE/DX =    0.0                 !
 ! A35   A(1,22,23)            120.879          -DE/DX =    0.0                 !
 ! A36   A(5,22,23)            119.4786         -DE/DX =    0.0                 !
 ! A37   L(2,9,10,7,-1)        179.999          -DE/DX =    0.0                 !
 ! A38   L(9,10,11,15,-1)      179.9999         -DE/DX =    0.0                 !
 ! A39   L(5,24,25,8,-1)       179.9994         -DE/DX =    0.0                 !
 ! A40   L(2,9,10,7,-2)        179.9985         -DE/DX =    0.0                 !
 ! A41   L(9,10,11,15,-2)      179.9978         -DE/DX =    0.0                 !
 ! A42   L(5,24,25,8,-2)       179.9999         -DE/DX =    0.0                 !
 ! D1    D(6,1,2,3)           -180.0016         -DE/DX =    0.0                 !
 ! D2    D(6,1,2,9)              0.0003         -DE/DX =    0.0                 !
 ! D3    D(22,1,2,3)            -0.0019         -DE/DX =    0.0                 !
 ! D4    D(22,1,2,9)           180.0            -DE/DX =    0.0                 !
 ! D5    D(2,1,22,5)             0.0009         -DE/DX =    0.0                 !
 ! D6    D(2,1,22,23)          180.0006         -DE/DX =    0.0                 !
 ! D7    D(6,1,22,5)           180.0006         -DE/DX =    0.0                 !
 ! D8    D(6,1,22,23)            0.0003         -DE/DX =    0.0                 !
 ! D9    D(1,2,3,4)              0.0017         -DE/DX =    0.0                 !
 ! D10   D(1,2,3,7)            180.0019         -DE/DX =    0.0                 !
 ! D11   D(9,2,3,4)           -180.0003         -DE/DX =    0.0                 !
 ! D12   D(9,2,3,7)             -0.0001         -DE/DX =    0.0                 !
 ! D13   D(1,2,11,12)           -0.0064         -DE/DX =    0.0                 !
 ! D14   D(1,2,11,13)          179.991          -DE/DX =    0.0                 !
 ! D15   D(3,2,11,12)          179.9954         -DE/DX =    0.0                 !
 ! D16   D(3,2,11,13)           -0.0072         -DE/DX =    0.0                 !
 ! D17   D(2,3,4,5)             -0.0004         -DE/DX =    0.0                 !
 ! D18   D(2,3,4,8)           -180.0007         -DE/DX =    0.0                 !
 ! D19   D(7,3,4,5)           -180.0006         -DE/DX =    0.0                 !
 ! D20   D(7,3,4,8)             -0.0009         -DE/DX =    0.0                 !
 ! D21   D(3,4,5,22)            -0.0006         -DE/DX =    0.0                 !
 ! D22   D(3,4,5,24)           179.9993         -DE/DX =    0.0                 !
 ! D23   D(8,4,5,22)          -180.0004         -DE/DX =    0.0                 !
 ! D24   D(8,4,5,24)            -0.0005         -DE/DX =    0.0                 !
 ! D25   D(4,5,22,1)             0.0004         -DE/DX =    0.0                 !
 ! D26   D(4,5,22,23)          180.0007         -DE/DX =    0.0                 !
 ! D27   D(24,5,22,1)         -179.9995         -DE/DX =    0.0                 !
 ! D28   D(24,5,22,23)           0.0008         -DE/DX =    0.0                 !
 ! D29   D(10,11,12,14)       -180.0013         -DE/DX =    0.0                 !
 ! D30   D(10,11,12,15)         -0.0013         -DE/DX =    0.0                 !
 ! D31   D(13,11,12,14)          0.0003         -DE/DX =    0.0                 !
 ! D32   D(13,11,12,15)        180.0004         -DE/DX =    0.0                 !
 ! D33   D(10,11,13,16)        180.0012         -DE/DX =    0.0                 !
 ! D34   D(10,11,13,17)          0.0012         -DE/DX =    0.0                 !
 ! D35   D(12,11,13,16)         -0.0005         -DE/DX =    0.0                 !
 ! D36   D(12,11,13,17)       -180.0005         -DE/DX =    0.0                 !
 ! D37   D(11,12,14,18)          0.0004         -DE/DX =    0.0                 !
 ! D38   D(11,12,14,19)       -180.0001         -DE/DX =    0.0                 !
 ! D39   D(15,12,14,18)        180.0004         -DE/DX =    0.0                 !
 ! D40   D(15,12,14,19)         -0.0002         -DE/DX =    0.0                 !
 ! D41   D(11,13,16,18)         -0.0001         -DE/DX =    0.0                 !
 ! D42   D(11,13,16,20)        179.9997         -DE/DX =    0.0                 !
 ! D43   D(17,13,16,18)        179.9999         -DE/DX =    0.0                 !
 ! D44   D(17,13,16,20)         -0.0003         -DE/DX =    0.0                 !
 ! D45   D(12,14,18,16)         -0.001          -DE/DX =    0.0                 !
 ! D46   D(12,14,18,21)       -179.9997         -DE/DX =    0.0                 !
 ! D47   D(19,14,18,16)       -180.0005         -DE/DX =    0.0                 !
 ! D48   D(19,14,18,21)          0.0009         -DE/DX =    0.0                 !
 ! D49   D(13,16,18,14)          0.0009         -DE/DX =    0.0                 !
 ! D50   D(13,16,18,21)       -180.0005         -DE/DX =    0.0                 !
 ! D51   D(20,16,18,14)        180.0011         -DE/DX =    0.0                 !
 ! D52   D(20,16,18,21)         -0.0003         -DE/DX =    0.0                 !
 --------------------------------------------------------------------------------
 GradGradGradGradGradGradGradGradGradGradGradGradGradGradGradGradGradGrad

                          Input orientation:                          
 ---------------------------------------------------------------------
 Center     Atomic      Atomic             Coordinates (Angstroms)
 Number     Number       Type             X           Y           Z
 ---------------------------------------------------------------------
      1          6           0        1.977579   -1.214388    0.000078
      2          6           0        1.258047   -0.000090   -0.000017
      3          6           0        1.977526    1.214287   -0.000066
      4          6           0        3.367378    1.217494   -0.000057
      5          6           0        4.063922   -0.000003    0.000011
      6          1           0        1.434062   -2.154064    0.000143
      7          1           0        1.433908    2.153904   -0.000108
      8          1           0        3.922272    2.150219   -0.000106
      9          6           0       -0.164780   -0.000078   -0.000021
     10          6           0       -1.382160   -0.000046   -0.000050
     11          6           0       -2.807119   -0.000012   -0.000039
     12          6           0       -3.522963   -1.215517   -0.000087
     13          6           0       -3.522907    1.215529    0.000056
     14          6           0       -4.916805   -1.210497   -0.000048
     15          1           0       -2.975645   -2.153655   -0.000154
     16          6           0       -4.916747    1.210574    0.000091
     17          1           0       -2.975544    2.153641    0.000101
     18          6           0       -5.618437    0.000054    0.000030
     19          1           0       -5.457499   -2.153338   -0.000088
     20          1           0       -5.457398    2.153439    0.000169
     21          1           0       -6.705206    0.000081    0.000065
     22          6           0        3.367461   -1.217512    0.000083
     23          1           0        3.922372   -2.150225    0.000147
     24          7           0        5.448075    0.000063    0.000005
     25          6           0        6.627030    0.000131    0.000002
 ---------------------------------------------------------------------
                    Distance matrix (angstroms):
                    1          2          3          4          5
     1  C    0.000000
     2  C    1.411469   0.000000
     3  C    2.428675   1.411510   0.000000
     4  C    2.800998   2.435526   1.389856   0.000000
     5  C    2.414034   2.805875   2.414032   1.402666   0.000000
     6  H    1.085542   2.161154   3.411912   3.886530   3.399433
     7  H    3.411886   2.161161   1.085542   2.148295   3.399454
     8  H    3.886182   3.423729   2.158241   1.085303   2.154883
     9  C    2.462570   1.422827   2.462551   3.736124   4.228702
    10  C    3.572460   2.640207   3.572407   4.903113   5.446082
    11  C    4.936400   4.065166   4.936330   6.293388   6.871041
    12  C    5.500542   4.933084   6.013263   7.307280   7.683638
    13  C    6.013305   4.933077   5.500433   6.890285   7.683586
    14  C    6.894385   6.292367   7.308309   8.632661   9.061940
    15  H    5.041493   4.749946   5.989736   7.183216   7.361638
    16  C    7.308363   6.292360   6.894274   8.284128   9.061893
    17  H    5.989745   4.749932   5.041358   6.411632   7.361540
    18  C    7.692485   6.876484   7.692400   9.067912   9.682359
    19  H    7.494132   7.052307   8.162138   9.446743   9.761880
    20  H    8.162178   7.052297   7.494004   8.874270   9.761806
    21  H    8.767308   7.963253   8.767219  10.145888  10.769128
    22  C    1.389886   2.435517   2.800994   2.435006   1.402635
    23  H    2.158243   3.423698   3.886176   3.413144   2.154876
    24  N    3.676851   4.190028   3.676826   2.410692   1.384153
    25  C    4.805461   5.368983   4.805420   3.479555   2.563108
                    6          7          8          9         10
     6  H    0.000000
     7  H    4.307968   0.000000
     8  H    4.971724   2.488367   0.000000
     9  C    2.682527   2.682432   4.618200   0.000000
    10  C    3.545546   3.545383   5.723691   1.217380   0.000000
    11  C    4.756843   4.756644   7.064573   2.642339   1.424959
    12  C    5.045093   5.993627   8.170661   3.571370   2.461789
    13  C    5.993805   5.044855   7.503622   3.571375   2.461792
    14  C    6.420579   7.186846   9.456410   4.903759   3.736162
    15  H    4.409707   6.164351   8.130473   3.541025   2.679035
    16  C    7.187041   6.420334   8.888824   4.903761   3.736162
    17  H    6.164491   4.409452   6.897817   3.541031   2.679037
    18  C    7.374142   7.373916   9.779997   5.453657   4.236277
    19  H    6.891561   8.126735  10.319918   5.713966   4.609236
    20  H    8.126918   6.891306   9.379671   5.713969   4.609237
    21  H    8.419503   8.419271  10.842803   6.540426   5.323046
    22  C    2.148293   3.886525   3.413126   3.736157   4.903175
    23  H    2.488313   4.971718   4.300444   4.618219   5.723751
    24  N    4.555498   4.555499   2.636522   5.612855   6.830235
    25  C    5.622052   5.622033   3.455227   6.791810   8.009190
                   11         12         13         14         15
    11  C    0.000000
    12  C    1.410633   0.000000
    13  C    1.410635   2.431046   0.000000
    14  C    2.432293   1.393851   2.797955   0.000000
    15  H    2.160227   1.086121   3.413341   2.158159   0.000000
    16  C    2.432293   2.797955   1.393849   2.421071   3.884059
    17  H    2.160229   3.413340   1.086122   3.884060   4.307296
    18  C    2.811318   2.422524   2.422525   1.399186   3.409225
    19  H    3.414869   2.149869   3.884831   1.086876   2.481854
    20  H    3.414869   3.884830   2.149868   3.407096   4.970931
    21  H    3.898087   3.406516   3.406514   2.159601   4.306763
    22  C    6.293468   6.890424   7.307315   8.284269   6.411814
    23  H    7.064663   7.503779   8.170709   8.888990   6.898018
    24  N    8.255194   9.053019   9.052948  10.435334   8.694686
    25  C    9.434149  10.222532  10.222447  11.607142   9.841248
                   16         17         18         19         20
    16  C    0.000000
    17  H    2.158158   0.000000
    18  C    1.399188   3.409226   0.000000
    19  H    3.407098   4.970932   2.159398   0.000000
    20  H    1.086875   2.481854   2.159398   4.306777   0.000000
    21  H    2.159602   4.306762   1.086769   2.488772   2.488770
    22  C    8.632711   7.183202   9.068011   8.874440   9.446769
    23  H    9.456479   8.130468   9.780119   9.379872  10.319962
    24  N   10.435271   8.694553  11.066512  11.116145  11.116041
    25  C   11.607065   9.841089  12.245467  12.274904  12.274776
                   21         22         23         24         25
    21  H    0.000000
    22  C   10.145992   0.000000
    23  H   10.842935   1.085302   0.000000
    24  N   12.153281   2.410694   2.636571   0.000000
    25  C   13.332236   3.479575   3.455316   1.178955   0.000000
 Stoichiometry    C15H9N
 Framework group  C1[X(C15H9N)]
 Deg. of freedom    69
 Full point group                 C1      NOp   1
 Largest Abelian subgroup         C1      NOp   1
 Largest concise Abelian subgroup C1      NOp   1
                         Standard orientation:                         
 ---------------------------------------------------------------------
 Center     Atomic      Atomic             Coordinates (Angstroms)
 Number     Number       Type             X           Y           Z
 ---------------------------------------------------------------------
      1          6           0       -1.977579    1.214388    0.000078
      2          6           0       -1.258047    0.000090   -0.000017
      3          6           0       -1.977526   -1.214287   -0.000066
      4          6           0       -3.367378   -1.217494   -0.000057
      5          6           0       -4.063922    0.000003    0.000011
      6          1           0       -1.434062    2.154064    0.000143
      7          1           0       -1.433908   -2.153904   -0.000108
      8          1           0       -3.922272   -2.150219   -0.000106
      9          6           0        0.164780    0.000078   -0.000021
     10          6           0        1.382160    0.000046   -0.000050
     11          6           0        2.807119    0.000012   -0.000039
     12          6           0        3.522963    1.215517   -0.000087
     13          6           0        3.522907   -1.215529    0.000056
     14          6           0        4.916805    1.210497   -0.000048
     15          1           0        2.975645    2.153655   -0.000154
     16          6           0        4.916747   -1.210574    0.000091
     17          1           0        2.975544   -2.153641    0.000101
     18          6           0        5.618437   -0.000054    0.000030
     19          1           0        5.457499    2.153338   -0.000088
     20          1           0        5.457398   -2.153439    0.000169
     21          1           0        6.705206   -0.000081    0.000065
     22          6           0       -3.367461    1.217512    0.000083
     23          1           0       -3.922372    2.150225    0.000147
     24          7           0       -5.448075   -0.000063    0.000005
     25          6           0       -6.627030   -0.000131    0.000002
 ---------------------------------------------------------------------
 Rotational constants (GHZ):           2.8239363           0.1652625           0.1561257
 1\1\GINC-IP-172-31-7-107\FOpt\RB3LYP\6-31+G(d)\C15H9N1\UBUNTU\17-Sep-2
 023\0\\# opt freq b3lyp/6-31+g(d) empiricaldispersion=gd3 volume\\Titl
 e Card Required\\0,1\C,1.977579,-1.214388,0.000078\C,1.258047,-0.00009
[...]
 00232850,0.00453619,0.00000010,-0.13088123,0.28541758,0.,-0.00000002,0
 .00001445,0.,0.,0.00017899,0.,0.,-0.00002594,0.,0.,0.00001480,0.,0.,0.
 00001281,0.,0.,0.00004550,0.,0.,0.00000398,0.,0.,0.00000340,-0.0000000
 8,0.00000002,-0.00000860,0.00000005,0.00000022,-0.00356853,0.00000061,
 -0.00000067,0.00327908,0.00000933,-0.00001638,-0.03640979,0.,-0.000000
 43,0.00603107,0.00000019,-0.00000071,0.00357421,-0.00001029,0.00001793
 ,0.02498881,-0.00032961,0.00035030,0.,0.00142199,-0.00003466,0.0000000
 1,-0.00046799,-0.00032367,-0.00000006,0.00029126,-0.00012661,0.0000000
 3,-0.00022611,0.00004571,0.,0.00001060,-0.00000948,0.,0.00000407,0.000
 00023,0.,-0.00000060,-0.00000424,0.,-0.00376098,-0.00071927,-0.0000000
 8,0.00765664,0.00246877,0.00000037,-0.03094531,0.07065761,0.00000492,-
 0.04883034,-0.02635724,-0.00000028,-0.34446469,-0.03169987,0.00000542,
 0.06423288,-0.02257454,-0.00000267,-0.00056350,-0.00075509,-0.00000002
 ,0.68808160,-0.00019604,0.00015833,0.,0.00083554,0.00032722,0.00000011
 ,-0.00006218,-0.00029140,0.00000003,0.00017676,0.00008105,-0.00000006,
 -0.00014749,0.00001906,0.,-0.00002979,0.00002872,-0.00000001,0.0000100
 5,0.00000633,0.,0.00001794,-0.00000668,0.,-0.00077829,0.00004429,-0.00
 000002,0.00510534,-0.00475500,-0.00000097,0.02653586,0.03222530,0.0000
 0113,-0.02771656,-0.01624903,0.00000024,0.03139205,-0.13012651,-0.0000
 0529,0.02256884,-0.05620385,-0.00000450,-0.00073966,0.00025075,0.00000
 008,-0.03395870,0.72109514,-0.00000002,0.00000002,0.00004567,0.0000000
 4,0.00000008,-0.00072586,-0.00000002,-0.00000004,-0.00012026,0.0000000
 5,0.00000007,0.00019355,-0.00000003,0.,0.00002286,0.,0.,0.00001024,0.,
 0.,-0.00004532,0.,0.,-0.00000194,0.00000007,-0.00000013,-0.00011057,0.
 00000021,-0.00000072,0.00774412,0.00000271,0.00000012,0.00538216,-0.00
 000073,0.,-0.00597052,0.00000925,-0.00000390,-0.06107931,-0.00000004,-
 0.00000297,0.00743861,-0.00000005,0.00000007,-0.00066854,-0.00001672,0
 .00003931,0.13285068,0.00007978,0.00002611,0.,-0.00013832,-0.00003913,
 0.,0.00004288,0.00004024,0.,0.00000221,-0.00000431,0.,-0.00001807,-0.0
 0000166,0.,-0.00000846,0.00000454,0.,-0.00003433,-0.00002474,0.,0.0000
 0936,0.00000262,0.,0.00002764,-0.00016513,0.,0.00111401,0.00099278,-0.
 00000001,0.01056596,0.01566619,0.00000075,-0.00148729,0.00300842,0.000
 00038,-0.13086837,-0.12359676,-0.00000534,-0.00056343,0.00073969,0.000
 00004,0.00059141,0.00081962,0.00000004,-0.01039781,-0.02881300,-0.0000
 0151,0.13646471,-0.00002609,-0.00006045,0.00000001,-0.00001199,-0.0000
 1758,0.,0.00002402,-0.00002700,0.,-0.00000974,0.00000622,0.,0.00003479
 ,-0.00000260,0.,0.00000178,0.00000151,0.,0.00002933,0.00003705,0.,-0.0
 0000479,-0.00000027,0.,0.00086944,0.00025965,0.00000005,-0.00123487,0.
 00039024,0.00000019,-0.01547976,-0.01901690,-0.00000098,0.00424295,-0.
 00274398,-0.00000066,-0.12192378,-0.27055222,-0.00001171,0.00075513,0.
 00025068,0.00000004,-0.00081969,-0.00101359,-0.00000006,0.00232919,0.0
 0453740,0.00000002,0.13088816,0.28540467,0.,0.,-0.00002594,-0.00000002
 ,-0.00000002,0.00017900,0.,0.,0.00001445,0.,0.,-0.00004758,0.,0.,0.000
 01281,0.,0.,0.00000398,0.,0.,0.00004551,0.,0.,0.00000667,0.00000003,0.
 00000002,-0.00000860,-0.00000009,0.00000026,-0.00356849,-0.00000126,-0
 .00000192,0.00327901,0.00000047,-0.00000061,0.00603103,-0.00000517,-0.
 00001157,-0.03640978,0.00000008,0.00000001,-0.00066854,-0.00000005,-0.
 00000011,0.00043593,0.00000037,0.00000073,0.00357424,0.00000542,0.0000
 1312,0.02498884,0.00002474,-0.00022675,0.,-0.00023228,0.00000008,-0.00
 000003,0.00002470,0.00022671,0.00000004,-0.00008125,0.00014074,-0.0000
 0004,0.00009823,0.00000004,0.,0.00001264,-0.00000064,0.,0.00001264,0.0
 0000065,0.,-0.00002357,-0.00001128,0.,0.00204297,-0.00000005,0.0000001
 2,-0.00372108,0.00000006,-0.00000022,0.00320683,-0.00000157,-0.0000000
 4,-0.02757963,0.02949855,0.00000227,-0.02758448,-0.02949574,-0.0000011
 9,-0.18044640,0.12042702,0.00000913,-0.00552440,-0.00063764,0.00000029
 ,-0.18045352,-0.12042947,-0.00000470,-0.00552427,0.00063796,0.00000037
 ,0.74133059,-0.00005080,0.00000302,0.,0.00000001,0.00002468,0.,0.00005
 080,0.00000301,0.,-0.00004362,0.00002215,0.,0.,-0.00005196,0.,-0.00000
 036,-0.00000082,0.,0.00000036,-0.00000082,0.,-0.00000078,0.00000044,0.
 ,-0.00000004,0.00073496,0.00000002,0.00000006,-0.00133416,0.,-0.000001
 64,-0.06468716,-0.00000347,0.07556008,0.03250422,-0.00000053,-0.075557
 25,0.03250906,0.00000347,0.05537391,-0.28284063,-0.00001233,-0.0016950
 4,0.00156309,-0.00000033,-0.05537630,-0.28282845,-0.00001330,0.0016953
 8,0.00156299,-0.00000033,-0.00000465,0.66051191,0.,0.,0.00002031,0.000
 00001,0.,0.00019350,0.00000001,0.,0.00002032,-0.00000002,0.,-0.0000288
 6,0.,0.,-0.00000378,0.,0.,0.00000646,0.,0.,0.00000646,0.,0.,-0.0000010
 6,-0.00000004,0.00000008,0.00006354,0.,-0.00000003,-0.00170519,-0.0000
 0016,-0.00000341,-0.00562642,0.00000530,0.00000049,0.00697405,-0.00000
 357,0.00000241,0.00697403,0.00000551,-0.00001420,-0.06196711,0.0000002
 8,-0.00000030,0.00731030,-0.00000067,-0.00001120,-0.06196748,0.0000004
 6,-0.00000039,0.00731036,-0.00001605,0.00003058,0.13244293,-0.00011260
 ,-0.00003337,0.,0.00019015,0.00009596,0.,-0.00006975,0.00000961,0.,0.0
 0000704,-0.00000419,0.,0.00000400,-0.00000309,0.,0.00000980,-0.0000081
 2,0.,0.00001321,0.00001186,0.,-0.00000980,-0.00000243,0.,-0.00044710,0
 .00002696,0.,-0.00033040,-0.00135343,-0.00000003,-0.00504672,0.0015226
 9,0.00000037,-0.01118296,-0.02931021,-0.00000127,-0.00073660,0.0008408
 4,0.00000006,-0.12911803,-0.12049135,-0.00000456,0.00061613,0.00036603
 ,-0.00000009,-0.00119273,0.00313325,0.00000037,0.00010415,-0.00009530,
 -0.00000004,0.01230835,0.01526761,0.00000064,0.13381321,-0.00003397,-0
 .00000046,0.,0.00009640,-0.00001231,0.,-0.00003651,-0.00000429,0.,0.00
 000836,0.00000901,0.,0.00000140,0.00000010,0.,0.00000581,-0.00000275,0
 .,0.00000562,0.00000377,0.,-0.00000384,-0.00000244,0.,-0.00000863,-0.0
 0003401,0.,0.00004385,0.00009205,-0.00000002,0.00096161,0.00181568,-0.
 00000031,0.00194367,0.00401533,-0.00000002,0.00084740,0.00021283,0.000
 00002,-0.12056328,-0.27023458,-0.00001005,-0.00033494,0.00084575,0.000
 00028,0.00421591,-0.00297733,-0.00000063,-0.00010247,-0.00000053,0.000
 00006,-0.01607282,-0.01868090,-0.00000087,0.12947999,0.28527672,0.,0.,
 0.00000365,0.,0.,-0.00001395,0.,0.,-0.00001336,0.,0.,-0.00000552,0.,0.
 ,0.00000149,0.,0.,0.00000413,0.,0.,0.00000385,0.,0.,0.00000217,0.00000
 002,0.,-0.00017772,0.00000003,0.00000005,0.00047699,0.00000041,-0.0000
 0044,0.00725681,0.00000059,0.00000091,0.00310913,-0.00000002,0.,-0.000
 64910,-0.00000470,-0.00001036,-0.03675908,-0.00000016,0.00000027,-0.00
 414697,0.00000037,-0.00000060,0.00689403,-0.00000003,0.00000008,-0.001
 13395,-0.00000101,-0.00000144,0.00321618,0.00000465,0.00001135,0.02561
 016,-0.00006974,-0.00000961,0.,0.00019015,-0.00009598,0.,-0.00011261,0
 .00003338,0.,0.00000436,-0.00002015,0.,0.00000400,0.00000310,0.,0.0000
 1321,-0.00001185,0.,0.00000981,0.00000813,0.,-0.00001575,-0.00000185,0
 .,-0.00044711,-0.00002692,-0.00000002,-0.00033034,0.00135344,0.0000001
 0,-0.00504682,-0.00152237,0.00000021,-0.00073668,-0.00084078,-0.000000
 04,-0.01118172,0.02931094,0.00000233,-0.00119309,-0.00313335,0.0000000
 2,0.00010416,0.00009530,-0.00000003,-0.12910730,0.12048552,0.00001045,
 0.00061613,-0.00036602,-0.00000014,0.01230838,-0.01526907,-0.00000119,
 0.00046945,-0.00084422,-0.00000003,0.13380168,0.00003652,-0.00000429,0
 .,-0.00009641,-0.00001231,0.,0.00003397,-0.00000046,0.,-0.00000786,-0.
 00000760,0.,-0.00000140,0.00000009,0.,-0.00000562,0.00000377,0.,-0.000
 00581,-0.00000275,0.,0.00000477,0.00000240,0.,0.00000865,-0.00003401,0
 .,-0.00004383,0.00009199,-0.00000004,-0.00096129,0.00181580,-0.0000003
 6,-0.00084736,0.00021291,0.00000008,-0.00194298,0.00401407,0.00000013,
 -0.00421599,-0.00297701,-0.00000059,0.00010246,-0.00000054,0.00000007,
 0.12055746,-0.27024637,-0.00001893,0.00033495,0.00084576,0.00000033,0.
 01607138,-0.01868092,-0.00000179,0.00084415,-0.00103658,-0.00000007,-0
 .12947368,0.28528932,0.,0.,-0.00001336,0.,0.,-0.00001394,0.,0.,0.00000
 365,0.,0.,0.00000854,0.,0.,0.00000149,0.,0.,0.00000385,0.,0.,0.0000041
 3,0.,0.,0.00000134,0.,0.,-0.00017772,0.00000005,-0.00000007,0.00047699
 ,0.00000020,-0.00000022,0.00725688,-0.00000012,0.00000008,-0.00064910,
 0.00000027,-0.00000072,0.00310918,-0.00000003,-0.00000055,0.00689397,-
 0.00000002,0.00000006,-0.00113395,0.00001049,-0.00001902,-0.03675893,-
 0.00000010,0.00000033,-0.00414702,0.00000089,-0.00000091,0.00321615,0.
 00000005,-0.00000006,0.00019397,-0.00001152,0.00002082,0.02561000,-0.0
 0004423,0.00000599,0.,0.00012280,0.,0.,-0.00004423,-0.00000599,0.,0.00
 000710,0.00000248,0.,0.00000866,0.,0.,0.00000966,-0.00000728,0.,0.0000
 0966,0.00000728,0.,-0.00000566,-0.00000265,0.,-0.00013046,0.,0.,0.0001
 2505,0.,-0.00000004,0.00072702,-0.00000005,-0.00000004,0.00067619,0.00
 313307,0.00000036,0.00067593,-0.00313333,0.,-0.01123573,-0.00253786,0.
 00000032,-0.00063990,-0.00021484,0.,-0.01123701,0.00253864,0.00000061,
 -0.00063996,0.00021487,0.00000003,-0.33985725,0.00000692,0.00000947,0.
 00076327,0.00042302,-0.00000012,0.00076326,-0.00042302,-0.00000017,0.3
 5998192,-0.00000232,-0.00000929,0.,0.,-0.00001605,0.,0.00000232,-0.000
 00929,0.,0.00000074,0.00000417,0.,0.,0.00000028,0.,-0.00000354,0.00000
 332,0.,0.00000354,0.00000332,0.,0.00000050,-0.00000010,0.,0.,0.0000431
 5,0.,0.,0.00018417,0.00000006,-0.00000004,-0.00123356,-0.00000003,0.00
 210554,-0.00477965,-0.00000068,-0.00210581,-0.00477941,-0.00000066,0.0
 2876438,0.00492050,-0.00000080,0.00144083,0.00010220,-0.00000003,-0.02
 876363,0.00492173,0.00000097,-0.00144079,0.00010225,0.00000003,0.00000
 694,-0.06035650,-0.00000135,-0.00032328,0.00071958,0.00000027,0.000323
 27,0.00071958,0.00000026,-0.00000742,0.05945519,0.,0.,-0.00000075,-0.0
 0000002,0.,0.00004038,0.,0.,-0.00000075,0.,0.,-0.00000151,0.,0.,0.0000
 0483,0.,0.,0.00000135,0.,0.,0.00000135,0.,0.,0.00000157,0.00000001,0.,
 0.00005786,-0.00000002,0.00000007,-0.00104374,0.,-0.00000004,-0.000876
 85,0.00000029,-0.00000064,0.00701523,0.,-0.00000072,0.00701516,0.00000
 174,0.00000024,0.00335865,0.00000009,0.,0.00011612,-0.00000149,0.,0.00
 335863,-0.00000008,0.,0.00011612,0.00001015,-0.00000144,-0.03642805,-0
 .00000014,0.00000024,-0.00388034,-0.00000012,0.00000033,-0.00388029,-0
 .00001043,0.00000197,0.02502791,-0.35440012,-0.03042097,0.00000064,-0.
 03203428,0.06984213,-0.00000427,-0.04604810,-0.02432798,0.00000095,0.0
 5829182,-0.02193621,0.00000162,-0.14852838,-0.04158879,0.00000234,-0.0
 1125956,0.00223847,-0.00000016,-0.00060081,-0.00079852,-0.00000006,-0.
 00156560,0.00409272,-0.00000030,0.00890178,0.00167537,-0.00000002,-0.0
 0453828,-0.00058252,0.00000010,0.00160731,-0.00004982,-0.00000006,-0.0
 0047436,-0.00040814,0.00000001,-0.00034141,0.00044182,-0.00000006,0.00
 029128,-0.00017677,0.,0.00000221,0.00000973,0.,0.00020211,0.00012649,0
 .00000005,0.00000901,-0.00002394,0.,-0.00008127,0.00004362,0.,0.000004
 36,0.00000786,0.,0.00000704,-0.00000836,0.,0.00000711,-0.00000074,0.,0
 .70963407,0.03210504,-0.13069344,0.00000513,0.02674003,0.03306158,-0.0
 0000187,-0.02734703,-0.01621607,0.00000056,0.02194323,-0.05318659,0.00
 000386,-0.10566649,-0.28002017,0.00001293,-0.02845078,0.00472491,-0.00
 000023,-0.00066532,0.00020232,-0.00000005,0.00295274,-0.00274120,0.000
 00031,0.00475824,-0.00509572,0.00000115,-0.00068875,0.00003784,-0.0000
 0022,0.00064207,0.00032189,0.00000001,-0.00000290,-0.00025675,-0.00000
 003,-0.00013653,0.00013371,0.00000004,0.00012664,0.00008103,0.00000004
 ,0.00000430,0.00000622,0.,0.00008033,-0.00003059,-0.00000004,-0.000024
 06,0.00002844,0.00000001,-0.00014078,0.00002216,0.,0.00002015,-0.00000
 760,0.,0.00000419,0.00000901,0.,-0.00000248,0.00000417,0.,-0.04438250,
 0.71661397,-0.00000276,0.00000446,-0.05842903,-0.00000246,-0.00000116,
 0.00495606,0.00000150,0.00000060,-0.00400512,-0.00000095,0.00000344,0.
 00932185,0.00000613,0.00001350,-0.06456930,0.00000183,-0.00000007,0.00
 343378,0.00000003,-0.00000005,-0.00073253,-0.00000020,0.00000045,0.005
 25544,-0.00000031,0.00000080,0.00688518,0.00000005,-0.00000004,-0.0000
 7343,-0.00000002,0.,-0.00045922,0.,0.00000002,-0.00018029,-0.00000002,
 0.,0.00007704,0.,-0.00000004,0.00019355,0.,0.,-0.00004758,0.,0.0000000
 3,-0.00006015,0.,-0.00000001,0.00001479,0.00000003,0.,-0.00002886,0.,0
 .,0.00000854,0.,0.,-0.00000552,0.,0.,-0.00000152,0.00000518,-0.0000381
 0,0.12957717,-0.01047784,0.02807771,-0.00000201,-0.00477991,-0.0016132
 8,0.00000014,-0.00063218,-0.00068081,0.00000003,-0.00156515,-0.0029526
 4,0.00000015,0.01042720,-0.01592529,0.00000105,0.00060839,-0.00029096,
 0.00000004,0.00007964,0.00008593,0.,0.00057657,-0.00079051,0.00000002,
 -0.00034086,0.00130733,-0.00000012,-0.00034955,-0.00004229,0.,0.000121
 64,-0.00008768,0.,-0.00008866,0.00004467,0.,-0.00004696,-0.00002134,0.
 ,-0.00000060,-0.00001794,0.,0.00000936,0.00000479,0.,-0.00000116,0.000
 00313,0.,0.00001163,-0.00000961,0.,-0.00002357,0.00000078,0.,-0.000015
 75,-0.00000477,0.,-0.00000980,0.00000384,0.,-0.00000566,-0.00000050,0.
 ,-0.13282524,0.12650316,-0.00000864,0.13762422,-0.00199302,0.00535525,
 -0.00000016,-0.00130736,0.00161085,0.00000036,-0.00076361,0.00027369,-
 0.00000006,-0.00409261,-0.00274124,0.00000052,0.01652852,-0.01917953,0
 .00000163,0.00026261,0.00080252,-0.00000033,0.00008462,-0.00000278,-0.
 00000006,0.00079059,-0.00091361,0.00000006,0.00005475,0.00019042,0.,-0
 .00011349,-0.00004863,0.00000001,-0.00000554,-0.00001610,0.,0.00000050
 ,-0.00000717,0.,0.00000636,0.00000545,0.,0.00000424,-0.00000668,0.,-0.
 00000262,-0.00000026,0.,0.00000144,0.00000721,0.,-0.00000252,0.0000004
 6,0.,0.00001128,0.00000044,0.,0.00000185,0.00000240,0.,0.00000243,-0.0
 0000244,0.,0.00000265,-0.00000010,0.,0.12371398,-0.27230604,0.00001613
 ,-0.13352940,0.28561282,-0.00000036,0.00000008,0.00332133,0.00000008,0
 .00000009,0.00735119,0.00000026,0.00000003,-0.00071888,0.00000013,0.00
 000062,0.00525624,-0.00000114,0.00000103,0.00459381,0.,-0.00000039,-0.
 00432014,0.,-0.00000003,-0.00088342,-0.00000006,0.00000009,0.00045605,
 -0.00000005,0.00000001,0.00029576,0.00000004,0.,-0.00014471,-0.0000000
 2,0.,-0.00000886,0.,0.,0.00000897,0.,0.,-0.00002149,0.,0.,-0.00000194,
 0.,0.,0.00000667,0.,0.,-0.00000093,0.,0.,0.00000340,0.,0.,-0.00000106,
 0.,0.,0.00000134,0.,0.,0.00000217,0.,0.,0.00000157,-0.00000818,0.00001
 652,-0.03624633,0.00000930,-0.00001772,0.02509896,0.00690187,-0.006545
 84,0.00000049,-0.00575011,-0.00000029,-0.00000025,0.00690102,0.0065470
 6,-0.00000023,-0.05403178,0.01535400,-0.00000070,-0.29083045,-0.000008
 93,0.00000108,-0.00148997,-0.00004033,-0.00000003,-0.00149010,0.000040
 22,-0.00000003,0.00196306,-0.00099907,0.00000006,0.00409110,-0.0000000
 4,0.00000017,-0.00285512,0.00000008,-0.00000019,0.00161665,-0.00000004
 ,0.00000008,-0.00052019,-0.00006952,0.,-0.00052017,0.00006955,0.,0.000
 14944,0.00008865,0.00000001,0.00007199,0.00004287,0.,0.00014943,-0.000
 08866,-0.00000003,0.00007199,-0.00004288,0.,-0.00040779,0.,0.,-0.00006
 912,-0.00006094,0.,-0.00006911,0.00006094,0.,-0.00006663,0.,0.00000001
 ,-0.05402835,-0.01535891,0.00000104,0.00196300,0.00099893,-0.00000002,
 1.46717443,-0.00035346,-0.00597803,0.00000083,-0.00000039,0.00023753,-
 0.00000008,0.00035493,-0.00597773,0.00000067,0.03718254,0.00679528,-0.
 00000018,-0.00000983,-0.08351437,0.00000170,-0.00151587,0.00023872,-0.
 00000002,0.00151569,0.00023886,0.00000005,0.00001108,0.00137935,-0.000
 00032,0.00000017,0.00052011,-0.00000011,-0.00000016,-0.00002219,0.0000
 0004,0.00000008,-0.00003054,-0.00000001,0.00001030,-0.00001967,0.,-0.0
 0001035,-0.00001967,0.,0.00000453,0.00001192,0.,0.00000405,0.00000768,
 0.,-0.00000451,0.00001191,0.,-0.00000404,0.00000768,0.,-0.00000002,-0.
 00000107,0.,0.00000266,0.00000070,0.,-0.00000267,0.00000070,0.,0.,0.00
 000149,0.,-0.03718770,0.00679186,-0.00000011,-0.00001064,0.00137952,-0
 .00000036,0.00007420,0.09593376,0.00000002,0.00000082,0.00733329,-0.00
 000002,-0.00000009,-0.00124592,-0.00000006,0.00000073,0.00733226,-0.00
 000200,-0.00000020,0.00385005,0.00000097,0.00000177,-0.05343813,0.0000
 0008,0.00000002,0.00041979,-0.00000010,0.,0.00041976,0.00000002,-0.000
 00030,-0.00438972,0.00000003,-0.00000008,-0.00110435,-0.00000001,0.,-0
 .00004662,0.,0.,0.00010863,0.,0.,0.00000231,0.,0.,0.00000230,0.,0.,0.0
 0000221,0.,0.,-0.00000413,0.,0.,0.00000221,0.,0.,-0.00000413,0.,0.,-0.
 00000007,0.,0.,-0.00000066,0.,0.,-0.00000066,0.,0.,-0.00000278,0.00000
 224,-0.00000016,0.00385008,0.00000003,-0.00000040,-0.00439058,-0.00000
 426,-0.00000179,0.06501746,-0.00239796,0.00078140,-0.00000006,0.002812
 47,-0.00000003,0.00000012,-0.00239772,-0.00078155,0.00000002,0.0077676
 2,-0.00698513,0.00000038,-0.02703153,-0.00000275,-0.00000010,0.0001544
 5,0.00016747,0.,0.00015450,-0.00016746,0.00000001,-0.00025885,0.000654
 66,-0.00000006,-0.00189352,0.00000005,-0.00000010,0.00131869,-0.000000
 04,0.00000010,-0.00072164,0.00000002,-0.00000004,0.00022759,0.00004690
 ,0.,0.00022758,-0.00004691,0.,-0.00007192,-0.00003043,0.,-0.00003059,-
 0.00002083,0.,-0.00007191,0.00003043,0.00000001,-0.00003059,0.00002083
 ,0.,0.00017069,0.,0.,0.00002842,0.00002550,0.,0.00002842,-0.00002550,0
 .,0.00002910,0.,0.,0.00776767,0.00698643,-0.00000041,-0.00025880,-0.00
 065459,0.00000001,-1.07892507,-0.00006056,0.00000307,1.09340289,0.0004
 6410,0.00026089,-0.00000006,0.00000016,0.00056021,-0.00000003,-0.00046
 444,0.00026082,-0.00000004,0.00030040,-0.00148581,0.00000015,-0.000001
 97,0.01059565,-0.00000006,0.00011412,-0.00007255,0.,-0.00011410,-0.000
 07258,-0.00000001,0.00005364,-0.00001635,0.00000001,-0.00000011,-0.000
 02487,0.,0.00000008,-0.00001527,0.00000001,-0.00000004,0.00000714,0.,-
 0.00000242,0.00000056,0.,0.00000245,0.00000056,0.,-0.00000086,0.000000
 79,0.,0.00000008,0.00000012,0.,0.00000085,0.00000079,0.,-0.00000009,0.
 00000013,0.,0.00000001,0.00000126,0.,0.00000118,-0.00000013,0.,-0.0000
 0117,-0.00000013,0.,0.,-0.00000113,0.,-0.00029923,-0.00148496,0.000000
 16,-0.00005368,-0.00001646,0.00000003,-0.00006107,-0.01799381,-0.00000
 032,0.00006212,0.00949512,-0.00000003,-0.00000006,-0.00067790,0.,-0.00
 000002,0.00019851,0.00000004,-0.00000005,-0.00067781,-0.00000003,0.000
 00017,0.00126538,0.00000017,-0.00000008,0.00937844,0.,0.,-0.00016886,0
 .,0.,-0.00016887,0.,0.00000002,0.00034078,0.,0.00000001,0.00018591,0.,
 0.,-0.00007475,0.,0.,0.00001861,0.,0.,0.00000933,0.,0.,0.00000933,0.,0
 .,-0.00000721,0.,0.,-0.00000210,0.,0.,-0.00000721,0.,0.,-0.00000210,0.
 ,0.,0.00000336,0.,0.,-0.00000180,0.,0.,-0.00000180,0.,0.,-0.00000017,0
 .00000001,0.00000015,0.00126539,0.,0.00000003,0.00034086,0.00000278,-0
 .00000032,-0.02371258,-0.00000294,0.00000017,0.01248727\\0.00001051,0.
 00002366,0.00000152,-0.00002958,-0.00002046,-0.00000361,0.00003462,-0.
 00000480,0.00000053,-0.00003034,-0.00001442,0.00000033,0.00001821,-0.0
 0001338,0.00000051,0.00000268,-0.00000635,0.00000039,-0.00000055,0.000
 00429,0.00000065,0.00000222,0.00000466,-0.00000022,-0.00006013,0.00000
 347,0.00000208,0.00005487,0.,-0.00000116,0.00003119,-0.00000106,-0.000
 00152,-0.00002223,0.00002057,0.00000030,-0.00002420,-0.00001945,0.0000
 0078,0.00001940,0.00001415,0.00000158,-0.00000067,-0.00000570,-0.00000
 015,0.00002091,-0.00001289,0.00000048,-0.00000058,0.00000581,-0.000000
 15,-0.00000521,-0.00000104,-0.00000208,-0.00000387,-0.00000063,-0.0000
 0013,-0.00000374,0.00000025,0.00000030,-0.00000292,0.00000010,0.000000
 43,-0.00000881,0.00002660,-0.00000051,-0.00000081,-0.00000531,0.000000
 04,-0.00000696,0.00000184,-0.00000046,0.00000600,0.00000010,0.00000007
 \\\@


 NOTHING WILL BE ATTEMPTED IF ALL POSSIBLE OBJECTIONS
 MUST FIRST BE OVERCOME.

                               -- THE GOLDEN PRINCIPLE,
                    PAUL DICKSON'S "THE OFFICIAL RULES"
 Job cpu time:       0 days  1 hours 48 minutes 52.2 seconds.
 Elapsed time:       0 days  0 hours  3 minutes 37.8 seconds.
 File lengths (MBytes):  RWF=    269 Int=      0 D2E=      0 Chk=      9 Scr=      1
 Normal termination of Gaussian 16 at Sun Sep 17 16:23:22 2023.
