 Entering Gaussian System, Link 0=/home/ubuntu/g16/g16
 Input=/home/ubuntu/ML products/molecule_93.gjf
 Output=/home/ubuntu/ML products/molecule_93.log
 Initial command:
 /home/ubuntu/g16/l1.exe "/home/ubuntu/Scratch/Gau-57006.inp" -scrdir="/home/ubuntu/Scratch/"
 Entering Link 1 = /home/ubuntu/g16/l1.exe PID=     57008.
  
 Copyright (c) 1988-2017, Gaussian, Inc.  All Rights Reserved.
  
 This is part of the Gaussian(R) 16 program.  It is based on
 the Gaussian(R) 09 system (copyright 2009, Gaussian, Inc.),
 the Gaussian(R) 03 system (copyright 2003, Gaussian, Inc.),
 the Gaussian(R) 98 system (copyright 1998, Gaussian, Inc.),
 the Gaussian(R) 94 system (copyright 1995, Gaussian, Inc.),
 the Gaussian 92(TM) system (copyright 1992, Gaussian, Inc.),
 the Gaussian 90(TM) system (copyright 1990, Gaussian, Inc.),
 the Gaussian 88(TM) system (copyright 1988, Gaussian, Inc.),
 the Gaussian 86(TM) system (copyright 1986, Carnegie Mellon
 University), and the Gaussian 82(TM) system (copyright 1983,
 Carnegie Mellon University). Gaussian is a federally registered
 trademark of Gaussian, Inc.
  
 This software contains proprietary and confidential information,
 including trade secrets, belonging to Gaussian, Inc.
  
 This software is provided under written license and may be
 used, copied, transmitted, or stored only in accord with that
 written license.
  
 The following legend is applicable only to US Government
 contracts under FAR:
  
                    RESTRICTED RIGHTS LEGEND
  
 Use, reproduction and disclosure by the US Government is
 subject to restrictions as set forth in subparagraphs (a)
 and (c) of the Commercial Computer Software - Restricted
 Rights clause in FAR 52.227-19.
  
 Gaussian, Inc.
 340 Quinnipiac St., Bldg. 40, Wallingford CT 06492
  
  
 ---------------------------------------------------------------
 Warning -- This program may not be used in any manner that
 competes with the business of Gaussian, Inc. or will provide
 assistance to any competitor of Gaussian, Inc.  The licensee
 of this program is prohibited from giving any competitor of
 Gaussian, Inc. access to this program.  By using this program,
 the user acknowledges that Gaussian, Inc. is engaged in the
 business of creating and licensing software in the field of
 computational chemistry and represents and warrants to the
 licensee that it is not a competitor of Gaussian, Inc. and that
 it will not use this program in any manner prohibited above.
 ---------------------------------------------------------------
  

 Cite this work as:
 Gaussian 16, Revision B.01,
 M. J. Frisch, G. W. Trucks, H. B. Schlegel, G. E. Scuseria, 
 M. A. Robb, J. R. Cheeseman, G. Scalmani, V. Barone, 
 G. A. Petersson, H. Nakatsuji, X. Li, M. Caricato, A. V. Marenich, 
 J. Bloino, B. G. Janesko, R. Gomperts, B. Mennucci, H. P. Hratchian, 
 J. V. Ortiz, A. F. Izmaylov, J. L. Sonnenberg, D. Williams-Young, 
 F. Ding, F. Lipparini, F. Egidi, J. Goings, B. Peng, A. Petrone, 
 T. Henderson, D. Ranasinghe, V. G. Zakrzewski, J. Gao, N. Rega, 
 G. Zheng, W. Liang, M. Hada, M. Ehara, K. Toyota, R. Fukuda, 
 J. Hasegawa, M. Ishida, T. Nakajima, Y. Honda, O. Kitao, H. Nakai, 
 T. Vreven, K. Throssell, J. A. Montgomery, Jr., J. E. Peralta, 
 F. Ogliaro, M. J. Bearpark, J. J. Heyd, E. N. Brothers, K. N. Kudin, 
 V. N. Staroverov, T. A. Keith, R. Kobayashi, J. Normand, 
 K. Raghavachari, A. P. Rendell, J. C. Burant, S. S. Iyengar, 
 J. Tomasi, M. Cossi, J. M. Millam, M. Klene, C. Adamo, R. Cammi, 
 J. W. Ochterski, R. L. Martin, K. Morokuma, O. Farkas, 
 J. B. Foresman, and D. J. Fox, Gaussian, Inc., Wallingford CT, 2016.
 
 ******************************************
 Gaussian 16:  EM64L-G16RevB.01 20-Dec-2017
                15-Sep-2023 
 ******************************************
 %nprocshared=30
 Will use up to   30 processors via shared memory.
 %mem=30GB
 %chk=molecule_93.chk
 ----------------------------------------------------------------------
 # opt freq b3lyp/6-31+g(d) geom=connectivity empiricaldispersion=gd3 v
 olume
 ----------------------------------------------------------------------
 1/18=20,19=15,26=3,38=1,57=2/1,3;
 2/9=110,12=2,17=6,18=5,40=1/2;
 3/5=1,6=6,7=11,11=2,25=1,30=1,71=1,74=-5,124=31/1,2,3;
 4//1;
 5/5=2,38=5/2;
 6/7=2,8=2,9=2,10=2,28=1,44=1/1,4;
 7//1,2,3,16;
 1/18=20,19=15,26=3/3(2);
 2/9=110/2;
 99//99;
 2/9=110/2;
 3/5=1,6=6,7=11,11=2,25=1,30=1,71=1,74=-5,124=31/1,2,3;
 4/5=5,16=3,69=1/1;
 5/5=2,38=5/2;
 7//1,2,3,16;
 1/18=20,19=15,26=3/3(-5);
 2/9=110/2;
 6/7=2,8=2,9=2,10=2,19=2,28=1,44=1/1,4;
 99/9=1/99;
 -------------
 ML molecule93
 -------------
 Symbolic Z-matrix:
 Charge =  0 Multiplicity = 1
 C                    -4.74942  -0.23058  -0.40002 
 C                    -4.8202    0.23854  -1.71867 
 C                    -4.55025   1.58484  -1.99888 
 C                    -4.20951   2.46203  -0.96044 
 C                    -4.13873   1.99291   0.35822 
 C                    -4.40868   0.64661   0.63842 
 H                    -5.08036  -0.43121  -2.51155 
 H                    -3.87857   2.66266   1.15109 
 H                    -4.35464   0.28843   1.64524 
 O                    -3.91049   3.9533   -1.27081 
 C                    -3.81752   4.69985  -2.77936 
 C                    -4.13168   3.88761  -3.87731 
 C                    -3.30395   5.98751  -2.98454 
 C                    -3.93225   4.36302  -5.18043 
 C                    -3.10452   6.46292  -4.28767 
 H                    -3.06408   6.60768  -2.14623 
 C                    -3.41867   5.65068  -5.38561 
 H                    -4.17211   3.74285  -6.01874 
 H                    -2.7124    7.44608  -4.44432 
 H                    -4.60429   1.94302  -3.0057 
 H                    -4.5238    2.90445  -3.72065 
 H                    -4.95553  -1.25851  -0.18608 
 H                    -3.26641   6.01366  -6.38058 
 

 GradGradGradGradGradGradGradGradGradGradGradGradGradGradGradGradGradGrad
 Berny optimization.
 Initialization pass.
                           ----------------------------
                           !    Initial Parameters    !
                           ! (Angstroms and Degrees)  !
 --------------------------                            --------------------------
 ! Name  Definition              Value          Derivative Info.                !
 --------------------------------------------------------------------------------
 ! R1    R(1,2)                  1.4014         estimate D2E/DX2                !
 ! R2    R(1,6)                  1.4014         estimate D2E/DX2                !
 ! R3    R(1,22)                 1.07           estimate D2E/DX2                !
 ! R4    R(2,3)                  1.4014         estimate D2E/DX2                !
 ! R5    R(2,7)                  1.07           estimate D2E/DX2                !
 ! R6    R(3,4)                  1.4014         estimate D2E/DX2                !
 ! R7    R(3,20)                 1.07           estimate D2E/DX2                !
 ! R8    R(4,5)                  1.4014         estimate D2E/DX2                !
 ! R9    R(4,10)                 1.5523         estimate D2E/DX2                !
 ! R10   R(5,6)                  1.4014         estimate D2E/DX2                !
 ! R11   R(5,8)                  1.07           estimate D2E/DX2                !
 ! R12   R(6,9)                  1.07           estimate D2E/DX2                !
 ! R13   R(10,11)                1.6857         estimate D2E/DX2                !
 ! R14   R(11,12)                1.4014         estimate D2E/DX2                !
 ! R15   R(11,13)                1.4014         estimate D2E/DX2                !
 ! R16   R(12,14)                1.4014         estimate D2E/DX2                !
 ! R17   R(12,21)                1.07           estimate D2E/DX2                !
 ! R18   R(13,15)                1.4014         estimate D2E/DX2                !
 ! R19   R(13,16)                1.07           estimate D2E/DX2                !
 ! R20   R(14,17)                1.4014         estimate D2E/DX2                !
 ! R21   R(14,18)                1.07           estimate D2E/DX2                !
 ! R22   R(15,17)                1.4014         estimate D2E/DX2                !
 ! R23   R(15,19)                1.07           estimate D2E/DX2                !
 ! R24   R(17,23)                1.07           estimate D2E/DX2                !
 ! A1    A(2,1,6)              120.0            estimate D2E/DX2                !
 ! A2    A(2,1,22)             120.0            estimate D2E/DX2                !
 ! A3    A(6,1,22)             120.0            estimate D2E/DX2                !
 ! A4    A(1,2,3)              120.0            estimate D2E/DX2                !
 ! A5    A(1,2,7)              120.0            estimate D2E/DX2                !
 ! A6    A(3,2,7)              120.0            estimate D2E/DX2                !
 ! A7    A(2,3,4)              120.0            estimate D2E/DX2                !
 ! A8    A(2,3,20)             120.0            estimate D2E/DX2                !
 ! A9    A(4,3,20)             120.0            estimate D2E/DX2                !
 ! A10   A(3,4,5)              120.0            estimate D2E/DX2                !
 ! A11   A(3,4,10)             120.0            estimate D2E/DX2                !
 ! A12   A(5,4,10)             120.0            estimate D2E/DX2                !
 ! A13   A(4,5,6)              120.0            estimate D2E/DX2                !
 ! A14   A(4,5,8)              120.0            estimate D2E/DX2                !
 ! A15   A(6,5,8)              120.0            estimate D2E/DX2                !
 ! A16   A(1,6,5)              120.0            estimate D2E/DX2                !
 ! A17   A(1,6,9)              120.0            estimate D2E/DX2                !
 ! A18   A(5,6,9)              120.0            estimate D2E/DX2                !
 ! A19   A(4,10,11)            127.9526         estimate D2E/DX2                !
 ! A20   A(10,11,12)           115.5989         estimate D2E/DX2                !
 ! A21   A(10,11,13)           123.9281         estimate D2E/DX2                !
 ! A22   A(12,11,13)           120.0            estimate D2E/DX2                !
 ! A23   A(11,12,14)           120.0            estimate D2E/DX2                !
 ! A24   A(11,12,21)           120.0            estimate D2E/DX2                !
 ! A25   A(14,12,21)           120.0            estimate D2E/DX2                !
 ! A26   A(11,13,15)           120.0            estimate D2E/DX2                !
 ! A27   A(11,13,16)           120.0            estimate D2E/DX2                !
 ! A28   A(15,13,16)           120.0            estimate D2E/DX2                !
 ! A29   A(12,14,17)           120.0            estimate D2E/DX2                !
 ! A30   A(12,14,18)           120.0            estimate D2E/DX2                !
 ! A31   A(17,14,18)           120.0            estimate D2E/DX2                !
 ! A32   A(13,15,17)           120.0            estimate D2E/DX2                !
 ! A33   A(13,15,19)           120.0            estimate D2E/DX2                !
 ! A34   A(17,15,19)           120.0            estimate D2E/DX2                !
 ! A35   A(14,17,15)           120.0            estimate D2E/DX2                !
 ! A36   A(14,17,23)           120.0            estimate D2E/DX2                !
 ! A37   A(15,17,23)           120.0            estimate D2E/DX2                !
 ! D1    D(6,1,2,3)              0.0001         estimate D2E/DX2                !
 ! D2    D(6,1,2,7)           -179.9998         estimate D2E/DX2                !
 ! D3    D(22,1,2,3)          -179.9999         estimate D2E/DX2                !
 ! D4    D(22,1,2,7)             0.0002         estimate D2E/DX2                !
 ! D5    D(2,1,6,5)             -0.0001         estimate D2E/DX2                !
 ! D6    D(2,1,6,9)            179.9998         estimate D2E/DX2                !
 ! D7    D(22,1,6,5)           179.9999         estimate D2E/DX2                !
 ! D8    D(22,1,6,9)            -0.0002         estimate D2E/DX2                !
 ! D9    D(1,2,3,4)              0.0001         estimate D2E/DX2                !
 ! D10   D(1,2,3,20)          -179.9999         estimate D2E/DX2                !
 ! D11   D(7,2,3,4)            179.9999         estimate D2E/DX2                !
 ! D12   D(7,2,3,20)            -0.0001         estimate D2E/DX2                !
 ! D13   D(2,3,4,5)             -0.0002         estimate D2E/DX2                !
 ! D14   D(2,3,4,10)           179.9998         estimate D2E/DX2                !
 ! D15   D(20,3,4,5)           179.9998         estimate D2E/DX2                !
 ! D16   D(20,3,4,10)           -0.0002         estimate D2E/DX2                !
 ! D17   D(3,4,5,6)              0.0001         estimate D2E/DX2                !
 ! D18   D(3,4,5,8)           -180.0            estimate D2E/DX2                !
 ! D19   D(10,4,5,6)          -179.9999         estimate D2E/DX2                !
 ! D20   D(10,4,5,8)             0.0            estimate D2E/DX2                !
 ! D21   D(3,4,10,11)           -5.2547         estimate D2E/DX2                !
 ! D22   D(5,4,10,11)          174.7453         estimate D2E/DX2                !
 ! D23   D(4,5,6,1)              0.0            estimate D2E/DX2                !
 ! D24   D(4,5,6,9)           -179.9999         estimate D2E/DX2                !
 ! D25   D(8,5,6,1)           -179.9999         estimate D2E/DX2                !
 ! D26   D(8,5,6,9)              0.0002         estimate D2E/DX2                !
 ! D27   D(4,10,11,12)           4.3564         estimate D2E/DX2                !
 ! D28   D(4,10,11,13)        -167.7268         estimate D2E/DX2                !
 ! D29   D(10,11,12,14)       -172.4167         estimate D2E/DX2                !
 ! D30   D(10,11,12,21)          7.5833         estimate D2E/DX2                !
 ! D31   D(13,11,12,14)          0.0002         estimate D2E/DX2                !
 ! D32   D(13,11,12,21)       -179.9998         estimate D2E/DX2                !
 ! D33   D(10,11,13,15)        171.7535         estimate D2E/DX2                !
 ! D34   D(10,11,13,16)         -8.2466         estimate D2E/DX2                !
 ! D35   D(12,11,13,15)          0.0            estimate D2E/DX2                !
 ! D36   D(12,11,13,16)        179.9999         estimate D2E/DX2                !
 ! D37   D(11,12,14,17)         -0.0002         estimate D2E/DX2                !
 ! D38   D(11,12,14,18)        179.9998         estimate D2E/DX2                !
 ! D39   D(21,12,14,17)        179.9998         estimate D2E/DX2                !
 ! D40   D(21,12,14,18)         -0.0002         estimate D2E/DX2                !
 ! D41   D(11,13,15,17)         -0.0001         estimate D2E/DX2                !
 ! D42   D(11,13,15,19)        179.9999         estimate D2E/DX2                !
 ! D43   D(16,13,15,17)        179.9999         estimate D2E/DX2                !
 ! D44   D(16,13,15,19)          0.0            estimate D2E/DX2                !
 ! D45   D(12,14,17,15)          0.0001         estimate D2E/DX2                !
 ! D46   D(12,14,17,23)       -179.9999         estimate D2E/DX2                !
 ! D47   D(18,14,17,15)       -179.9999         estimate D2E/DX2                !
 ! D48   D(18,14,17,23)          0.0001         estimate D2E/DX2                !
 ! D49   D(13,15,17,14)          0.0001         estimate D2E/DX2                !
 ! D50   D(13,15,17,23)       -179.9999         estimate D2E/DX2                !
 ! D51   D(19,15,17,14)       -180.0            estimate D2E/DX2                !
 ! D52   D(19,15,17,23)          0.0            estimate D2E/DX2                !
 --------------------------------------------------------------------------------
 Trust Radius=3.00D-01 FncErr=1.00D-07 GrdErr=1.00D-06 EigMax=2.50D+02 EigMin=1.00D-04
 Number of steps in this run=    123 maximum allowed number of steps=    138.
 GradGradGradGradGradGradGradGradGradGradGradGradGradGradGradGradGradGrad

                          Input orientation:                          
 ---------------------------------------------------------------------
 Center     Atomic      Atomic             Coordinates (Angstroms)
 Number     Number       Type             X           Y           Z
 ---------------------------------------------------------------------
      1          6           0       -4.749416   -0.230579   -0.400021
      2          6           0       -4.820199    0.238538   -1.718672
      3          6           0       -4.550247    1.584841   -1.998879
      4          6           0       -4.209510    2.462026   -0.960435
      5          6           0       -4.138728    1.992910    0.358216
      6          6           0       -4.408682    0.646607    0.638423
      7          1           0       -5.080361   -0.431212   -2.511547
      8          1           0       -3.878568    2.662660    1.151091
      9          1           0       -4.354640    0.288426    1.645243
     10          8           0       -3.910486    3.953296   -1.270814
     11          6           0       -3.817523    4.699853   -2.779363
     12          6           0       -4.131676    3.887607   -3.877310
     13          6           0       -3.303947    5.987511   -2.984541
     14          6           0       -3.932249    4.363019   -5.180435
     15          6           0       -3.104523    6.462923   -4.287666
     16          1           0       -3.064085    6.607679   -2.146234
     17          6           0       -3.418674    5.650677   -5.385613
     18          1           0       -4.172109    3.742850   -6.018741
     19          1           0       -2.712397    7.446079   -4.444324
     20          1           0       -4.604292    1.943023   -3.005698
     21          1           0       -4.523805    2.904453   -3.720651
     22          1           0       -4.955530   -1.258512   -0.186077
     23          1           0       -3.266408    6.013665   -6.380578
 ---------------------------------------------------------------------
                    Distance matrix (angstroms):
                    1          2          3          4          5
     1  C    0.000000
     2  C    1.401400   0.000000
     3  C    2.427296   1.401400   0.000000
     4  C    2.802800   2.427296   1.401400   0.000000
     5  C    2.427296   2.802800   2.427296   1.401400   0.000000
     6  C    1.401400   2.427296   2.802800   2.427296   1.401400
     7  H    2.146700   1.070000   2.146700   3.396345   3.872800
     8  H    3.396345   3.872800   3.396345   2.146700   1.070000
     9  H    2.146700   3.396345   3.872800   3.396345   2.146700
    10  O    4.355100   3.850660   2.559092   1.552300   2.559092
    11  C    5.553274   4.694012   3.293833   2.910330   4.156335
    12  C    5.425182   4.295286   3.001072   3.247537   4.640001
    13  C    6.887218   6.078827   4.680630   4.164864   5.275199
    14  C    6.679914   5.457435   4.268781   4.636706   6.027993
    15  C    7.913434   6.948831   5.578920   5.319647   6.529535
    16  H    7.256127   6.620627   5.240161   4.461452   5.359405
    17  C    7.824077   6.685954   5.411233   5.511362   6.847577
    18  H    6.905899   5.584874   4.578131   5.218081   6.612790
    19  H    8.912739   7.988783   6.611506   6.262556   7.405125
    20  H    3.396345   2.146700   1.070000   2.146700   3.396345
    21  H    4.572298   3.347069   2.169464   2.813062   4.197184
    22  H    1.070000   2.146700   3.396345   3.872800   3.396345
    23  H    8.772511   7.582857   6.360975   6.548399   7.895490
                    6          7          8          9         10
     6  C    0.000000
     7  H    3.396345   0.000000
     8  H    2.146700   4.942800   0.000000
     9  H    1.070000   4.280590   2.471400   0.000000
    10  O    3.850660   4.704459   2.744520   4.704459   0.000000
    11  C    5.334748   5.290965   4.427454   6.271070   1.685736
    12  C    5.565309   4.627906   5.181638   6.595635   2.616688
    13  C    6.547638   6.676779   5.337441   7.417441   2.728146
    14  C    6.920825   5.605869   6.556091   7.960565   3.931091
    15  C    7.732834   7.388345   6.679913   8.653706   4.006145
    16  H    6.715403   7.331085   5.205662   7.481563   2.920360
    17  C    7.893659   6.928985   7.201962   8.891721   4.478231
    18  H    7.345783   5.527036   7.256685   8.408509   4.759784
    19  H    8.657051   8.449532   7.453169   9.540010   4.868893
    20  H    3.872800   2.471400   4.280590   4.942800   2.744520
    21  H    4.910464   3.591427   4.920231   5.972021   2.734581
    22  H    2.146700   2.471400   4.280590   2.471400   5.425100
    23  H    8.909348   7.732804   8.266197   9.918488   5.547039
                   11         12         13         14         15
    11  C    0.000000
    12  C    1.401400   0.000000
    13  C    1.401400   2.427296   0.000000
    14  C    2.427296   1.401400   2.802800   0.000000
    15  C    2.427296   2.802800   1.401400   2.427296   0.000000
    16  H    2.146700   3.396345   1.070000   3.872800   2.146700
    17  C    2.802800   2.427296   2.427296   1.401400   1.401400
    18  H    3.396345   2.146700   3.872800   1.070000   3.396345
    19  H    3.396345   3.872800   2.146700   3.396345   1.070000
    20  H    2.875821   2.182769   4.248439   3.322273   4.931759
    21  H    2.146700   1.070000   3.396345   2.146700   3.872800
    22  H    6.597143   6.386429   7.941283   7.588960   8.936992
    23  H    3.872800   3.396345   3.396345   2.146700   2.146700
                   16         17         18         19         20
    16  H    0.000000
    17  C    3.396345   0.000000
    18  H    4.942800   2.146700   0.000000
    19  H    2.471400   2.146700   4.280590   0.000000
    20  H    4.986976   4.562498   3.536183   5.994376   0.000000
    21  H    4.280590   3.396345   2.471400   4.942800   1.200826
    22  H    8.324466   8.782596   7.723169   9.946568   4.280590
    23  H    4.280590   1.070000   2.471400   2.471400   5.454344
                   21         22         23
    21  H    0.000000
    22  H    5.478127   0.000000
    23  H    4.280590   9.701006   0.000000
 Stoichiometry    C12H10O
 Framework group  C1[X(C12H10O)]
 Deg. of freedom    63
 Full point group                 C1      NOp   1
 Largest Abelian subgroup         C1      NOp   1
 Largest concise Abelian subgroup C1      NOp   1
                         Standard orientation:                         
 ---------------------------------------------------------------------
 Center     Atomic      Atomic             Coordinates (Angstroms)
 Number     Number       Type             X           Y           Z
 ---------------------------------------------------------------------
      1          6           0        3.914413    0.750208    0.107121
      2          6           0        2.734377    1.499301    0.005643
      3          6           0        1.496188    0.848313   -0.078165
      4          6           0        1.438034   -0.551769   -0.060493
      5          6           0        2.618070   -1.300862    0.040984
      6          6           0        3.856259   -0.649874    0.124791
      7          1           0        2.778779    2.568294   -0.007851
      8          1           0        2.573668   -2.369855    0.054477
      9          1           0        4.757242   -1.221823    0.202269
     10          8           0        0.066519   -1.272854   -0.153322
     11          6           0       -1.470488   -0.580549   -0.158922
     12          6           0       -1.503516    0.820451   -0.164370
     13          6           0       -2.656978   -1.308796    0.001768
     14          6           0       -2.723034    1.493204   -0.009124
     15          6           0       -3.876496   -0.636042    0.157010
     16          1           0       -2.631760   -2.378491    0.005926
     17          6           0       -3.909524    0.764958    0.151565
     18          1           0       -2.748251    2.562899   -0.013281
     19          1           0       -4.782407   -1.192074    0.279700
     20          1           0        0.595205    1.420262   -0.155648
     21          1           0       -0.597605    1.376483   -0.287063
     22          1           0        4.859798    1.247252    0.171112
     23          1           0       -4.840653    1.278620    0.270097
 ---------------------------------------------------------------------
 Rotational constants (GHZ):           2.4574925           0.3881677           0.3362748
 Standard basis: 6-31+G(d) (6D, 7F)
 There are   267 symmetry adapted cartesian basis functions of A   symmetry.
 There are   267 symmetry adapted basis functions of A   symmetry.
   267 basis functions,   456 primitive gaussians,   267 cartesian basis functions
    45 alpha electrons       45 beta electrons
       nuclear repulsion energy       675.7360168025 Hartrees.
 NAtoms=   23 NActive=   23 NUniq=   23 SFac= 1.00D+00 NAtFMM=   60 NAOKFM=F Big=F
 Integral buffers will be    131072 words long.
 Raffenetti 2 integral format.
 Two-electron integral symmetry is turned on.
 Nuclear repulsion after empirical dispersion term =      675.7203485046 Hartrees.
 One-electron integrals computed using PRISM.
 NBasis=   267 RedAO= T EigKep=  1.62D-06  NBF=   267
 NBsUse=   266 1.00D-06 EigRej=  4.62D-07 NBFU=   266
 ExpMin= 4.38D-02 ExpMax= 5.48D+03 ExpMxC= 8.25D+02 IAcc=3 IRadAn=         5 AccDes= 0.00D+00
 Harris functional with IExCor=  402 and IRadAn=       5 diagonalized for initial guess.
 HarFok:  IExCor=  402 AccDes= 0.00D+00 IRadAn=         5 IDoV= 1 UseB2=F ITyADJ=14
 ICtDFT=  3500011 ScaDFX=  1.000000  1.000000  1.000000  1.000000
 FoFCou: FMM=F IPFlag=           0 FMFlag=      100000 FMFlg1=           0
         NFxFlg=           0 DoJE=T BraDBF=F KetDBF=T FulRan=T
         wScrn=  0.000000 ICntrl=       500 IOpCl=  0 I1Cent=   200000004 NGrid=           0
         NMat0=    1 NMatS0=      1 NMatT0=    0 NMatD0=    1 NMtDS0=    0 NMtDT0=    0
 Petite list used in FoFCou.
 Requested convergence on RMS density matrix=1.00D-08 within 128 cycles.
 Requested convergence on MAX density matrix=1.00D-06.
 Requested convergence on             energy=1.00D-06.
 No special actions if energy rises.
 SCF Done:  E(RB3LYP) =  -538.457602646     A.U. after   14 cycles
            NFock= 14  Conv=0.98D-08     -V/T= 2.0105

 **********************************************************************

            Population analysis using the SCF Density.

 **********************************************************************

 Orbital symmetries:
       Occupied  (A) (A) (A) (A) (A) (A) (A) (A) (A) (A) (A) (A)
                 (A) (A) (A) (A) (A) (A) (A) (A) (A) (A) (A) (A)
                 (A) (A) (A) (A) (A) (A) (A) (A) (A) (A) (A) (A)
                 (A) (A) (A) (A) (A) (A) (A) (A) (A)
       Virtual   (A) (A) (A) (A) (A) (A) (A) (A) (A) (A) (A) (A)
                 (A) (A) (A) (A) (A) (A) (A) (A) (A) (A) (A) (A)
                 (A) (A) (A) (A) (A) (A) (A) (A) (A) (A) (A) (A)
                 (A) (A) (A) (A) (A) (A) (A) (A) (A) (A) (A) (A)
                 (A) (A) (A) (A) (A) (A) (A) (A) (A) (A) (A) (A)
                 (A) (A) (A) (A) (A) (A) (A) (A) (A) (A) (A) (A)
                 (A) (A) (A) (A) (A) (A) (A) (A) (A) (A) (A) (A)
                 (A) (A) (A) (A) (A) (A) (A) (A) (A) (A) (A) (A)
                 (A) (A) (A) (A) (A) (A) (A) (A) (A) (A) (A) (A)
                 (A) (A) (A) (A) (A) (A) (A) (A) (A) (A) (A) (A)
                 (A) (A) (A) (A) (A) (A) (A) (A) (A) (A) (A) (A)
                 (A) (A) (A) (A) (A) (A) (A) (A) (A) (A) (A) (A)
                 (A) (A) (A) (A) (A) (A) (A) (A) (A) (A) (A) (A)
                 (A) (A) (A) (A) (A) (A) (A) (A) (A) (A) (A) (A)
                 (A) (A) (A) (A) (A) (A) (A) (A) (A) (A) (A) (A)
                 (A) (A) (A) (A) (A) (A) (A) (A) (A) (A) (A) (A)
                 (A) (A) (A) (A) (A) (A) (A) (A) (A) (A) (A) (A)
                 (A) (A) (A) (A) (A) (A) (A) (A) (A) (A) (A) (A)
                 (A) (A) (A) (A) (A)
 The electronic state is 1-A.
 Alpha  occ. eigenvalues --  -19.18268 -10.28027 -10.26780 -10.21724 -10.21446
 Alpha  occ. eigenvalues --  -10.21144 -10.20809 -10.20723 -10.20477 -10.20356
 Alpha  occ. eigenvalues --  -10.20322 -10.19878 -10.19695  -0.96823  -0.87178
 Alpha  occ. eigenvalues --   -0.85699  -0.77059  -0.76388  -0.75680  -0.74232
 Alpha  occ. eigenvalues --   -0.63903  -0.61782  -0.61540  -0.60186  -0.54320
 Alpha  occ. eigenvalues --   -0.53230  -0.48349  -0.47746  -0.47160  -0.46000
 Alpha  occ. eigenvalues --   -0.45046  -0.44107  -0.42154  -0.39783  -0.39764
 Alpha  occ. eigenvalues --   -0.37971  -0.37969  -0.36767  -0.34282  -0.32770
 Alpha  occ. eigenvalues --   -0.31519  -0.27192  -0.26935  -0.26191  -0.23104
 Alpha virt. eigenvalues --   -0.03317  -0.03101  -0.01931  -0.01674  -0.00707
 Alpha virt. eigenvalues --    0.00645   0.00960   0.01892   0.02790   0.03166
 Alpha virt. eigenvalues --    0.04652   0.05135   0.05621   0.05951   0.06827
 Alpha virt. eigenvalues --    0.07134   0.07505   0.07959   0.08289   0.09167
 Alpha virt. eigenvalues --    0.09650   0.10270   0.11306   0.12089   0.12578
 Alpha virt. eigenvalues --    0.12895   0.12956   0.13140   0.13940   0.14034
 Alpha virt. eigenvalues --    0.14562   0.15195   0.15529   0.15855   0.16553
 Alpha virt. eigenvalues --    0.17040   0.17956   0.18375   0.18915   0.19795
 Alpha virt. eigenvalues --    0.20322   0.20512   0.20610   0.21170   0.21618
 Alpha virt. eigenvalues --    0.21785   0.22291   0.22753   0.23152   0.24359
 Alpha virt. eigenvalues --    0.25037   0.25321   0.26026   0.26231   0.26723
 Alpha virt. eigenvalues --    0.27400   0.27774   0.28512   0.28838   0.29786
 Alpha virt. eigenvalues --    0.29962   0.30969   0.31274   0.31887   0.31944
 Alpha virt. eigenvalues --    0.32934   0.33968   0.34674   0.35495   0.37085
 Alpha virt. eigenvalues --    0.38057   0.39409   0.39844   0.40998   0.42448
 Alpha virt. eigenvalues --    0.44992   0.49668   0.55041   0.57618   0.59347
 Alpha virt. eigenvalues --    0.60334   0.61194   0.64182   0.66064   0.66610
 Alpha virt. eigenvalues --    0.66977   0.68823   0.69984   0.71456   0.72147
 Alpha virt. eigenvalues --    0.72442   0.73157   0.73427   0.73815   0.74116
 Alpha virt. eigenvalues --    0.75961   0.76284   0.76752   0.77407   0.77765
 Alpha virt. eigenvalues --    0.79063   0.80455   0.81491   0.83747   0.87123
 Alpha virt. eigenvalues --    0.89646   0.90402   0.93075   0.93730   0.93928
 Alpha virt. eigenvalues --    0.94557   0.94908   0.96011   1.00460   1.01369
 Alpha virt. eigenvalues --    1.02482   1.07376   1.07615   1.08866   1.09598
 Alpha virt. eigenvalues --    1.12133   1.12559   1.14376   1.15343   1.17865
 Alpha virt. eigenvalues --    1.19334   1.19531   1.20229   1.21499   1.23343
 Alpha virt. eigenvalues --    1.24228   1.24779   1.27742   1.29208   1.32792
 Alpha virt. eigenvalues --    1.33166   1.35952   1.37169   1.41195   1.42633
 Alpha virt. eigenvalues --    1.43386   1.44279   1.45888   1.46395   1.47054
 Alpha virt. eigenvalues --    1.47979   1.48301   1.48857   1.49949   1.51158
 Alpha virt. eigenvalues --    1.56051   1.63472   1.70697   1.76627   1.78167
 Alpha virt. eigenvalues --    1.79373   1.81131   1.82223   1.85670   1.90332
 Alpha virt. eigenvalues --    1.94717   1.95805   1.96606   1.97145   1.97649
 Alpha virt. eigenvalues --    1.98188   2.00537   2.03550   2.08667   2.10620
 Alpha virt. eigenvalues --    2.11166   2.12673   2.13427   2.13923   2.15347
 Alpha virt. eigenvalues --    2.15780   2.16642   2.20338   2.21889   2.25214
 Alpha virt. eigenvalues --    2.28351   2.28581   2.28905   2.29360   2.31506
 Alpha virt. eigenvalues --    2.38633   2.43764   2.48932   2.59361   2.61344
 Alpha virt. eigenvalues --    2.62300   2.62350   2.63161   2.65548   2.69745
 Alpha virt. eigenvalues --    2.71110   2.72140   2.74911   2.76822   2.77570
 Alpha virt. eigenvalues --    2.79443   2.80146   2.91280   3.00849   3.05100
 Alpha virt. eigenvalues --    3.07211   3.39059   3.41103   4.21423   4.23576
 Alpha virt. eigenvalues --    4.25387   4.26616   4.28203   4.32324   4.37263
 Alpha virt. eigenvalues --    4.38662   4.41075   4.41384   4.46679   4.69553
 Alpha virt. eigenvalues --    4.73325
          Condensed to atoms (all electrons):
               1          2          3          4          5          6
     1  C    5.334313   0.220306   0.101462  -0.629574   0.261746   0.423148
     2  C    0.220306   8.833746  -3.275872   0.391824  -0.154450   0.310279
     3  C    0.101462  -3.275872  10.813871  -0.547726  -1.080441  -0.575927
     4  C   -0.629574   0.391824  -0.547726   9.075425  -2.598610   0.068473
     5  C    0.261746  -0.154450  -1.080441  -2.598610   9.884820   0.234315
     6  C    0.423148   0.310279  -0.575927   0.068473   0.234315   5.387337
     7  H   -0.040066   0.342746  -0.021030   0.038698  -0.037261   0.010497
     8  H    0.019438  -0.035946   0.075855   0.016744   0.282818  -0.065207
     9  H   -0.010182   0.020696  -0.022244   0.025020  -0.037140   0.319564
    10  O   -0.020161   0.027868  -0.133825   0.328614  -0.204966   0.029742
    11  C    0.032338  -0.200426  -0.022127  -0.354859   0.643181  -0.062802
    12  C   -0.023492   0.213166   0.002393   0.270580  -0.478623   0.062292
    13  C    0.009649  -0.362284  -0.312559   0.248542   0.292308  -0.031888
    14  C   -0.020556   0.087656   0.348080  -0.220708  -0.496574   0.024713
    15  C    0.000662   0.016304   0.059384  -0.035239  -0.038079  -0.002513
    16  H    0.000021  -0.000041   0.003774  -0.002064  -0.003098  -0.000194
    17  C   -0.001202  -0.009778  -0.009313   0.005283   0.005368   0.001059
    18  H    0.000156   0.003977  -0.001609  -0.004135  -0.000692   0.000029
    19  H   -0.000002   0.000040   0.000014   0.000273  -0.000062   0.000006
    20  H    0.008800   0.008839   0.106893   0.040128   0.051485   0.006040
    21  H   -0.007410  -0.019898  -0.038079   0.063541   0.008706   0.003694
    22  H    0.296335  -0.026406   0.051087  -0.008912   0.014387  -0.034105
    23  H    0.000002  -0.000052  -0.000282   0.000311   0.000024  -0.000002
               7          8          9         10         11         12
     1  C   -0.040066   0.019438  -0.010182  -0.020161   0.032338  -0.023492
     2  C    0.342746  -0.035946   0.020696   0.027868  -0.200426   0.213166
     3  C   -0.021030   0.075855  -0.022244  -0.133825  -0.022127   0.002393
     4  C    0.038698   0.016744   0.025020   0.328614  -0.354859   0.270580
     5  C   -0.037261   0.282818  -0.037140  -0.204966   0.643181  -0.478623
     6  C    0.010497  -0.065207   0.319564   0.029742  -0.062802   0.062292
     7  H    0.540386   0.000016  -0.000180  -0.000293  -0.004043  -0.001409
     8  H    0.000016   0.519770  -0.005356  -0.004389  -0.003307   0.001968
     9  H   -0.000180  -0.005356   0.529675  -0.000162   0.000301   0.000114
    10  O   -0.000293  -0.004389  -0.000162   8.395293   0.289995  -0.025776
    11  C   -0.004043  -0.003307   0.000301   0.289995   9.438376  -0.204180
    12  C   -0.001409   0.001968   0.000114  -0.025776  -0.204180  10.226355
    13  C   -0.000510   0.000236  -0.000103  -0.229331  -2.792783  -0.306426
    14  C    0.004168   0.000041   0.000055   0.003319  -0.260888  -3.331750
    15  C    0.000019  -0.000105   0.000004   0.016394   0.177991  -0.704096
    16  H    0.000000  -0.000001   0.000000  -0.001919  -0.001969   0.051865
    17  C    0.000157   0.000023  -0.000002  -0.014038  -0.638313  -0.122816
    18  H    0.000000   0.000000   0.000000  -0.000187   0.030642  -0.042208
    19  H    0.000000   0.000000   0.000000  -0.000129   0.030187  -0.015714
    20  H   -0.008974  -0.000196   0.000015  -0.011899   0.057707  -0.030406
    21  H    0.000293   0.000005   0.000000  -0.011638   0.009179   0.107921
    22  H   -0.004650  -0.000152  -0.004828   0.000067   0.000615  -0.000481
    23  H    0.000000   0.000000   0.000000   0.000049  -0.006046   0.038458
              13         14         15         16         17         18
     1  C    0.009649  -0.020556   0.000662   0.000021  -0.001202   0.000156
     2  C   -0.362284   0.087656   0.016304  -0.000041  -0.009778   0.003977
     3  C   -0.312559   0.348080   0.059384   0.003774  -0.009313  -0.001609
     4  C    0.248542  -0.220708  -0.035239  -0.002064   0.005283  -0.004135
     5  C    0.292308  -0.496574  -0.038079  -0.003098   0.005368  -0.000692
     6  C   -0.031888   0.024713  -0.002513  -0.000194   0.001059   0.000029
     7  H   -0.000510   0.004168   0.000019   0.000000   0.000157   0.000000
     8  H    0.000236   0.000041  -0.000105  -0.000001   0.000023   0.000000
     9  H   -0.000103   0.000055   0.000004   0.000000  -0.000002   0.000000
    10  O   -0.229331   0.003319   0.016394  -0.001919  -0.014038  -0.000187
    11  C   -2.792783  -0.260888   0.177991  -0.001969  -0.638313   0.030642
    12  C   -0.306426  -3.331750  -0.704096   0.051865  -0.122816  -0.042208
    13  C   10.123222  -0.850955   0.038494   0.300376   0.353751  -0.039110
    14  C   -0.850955   9.750822   0.491677  -0.022681   0.374524   0.364102
    15  C    0.038494   0.491677   5.373439  -0.051003   0.432178   0.014724
    16  H    0.300376  -0.022681  -0.051003   0.511591   0.015917   0.000016
    17  C    0.353751   0.374524   0.432178   0.015917   5.361486  -0.032432
    18  H   -0.039110   0.364102   0.014724   0.000016  -0.032432   0.534223
    19  H   -0.035937   0.017169   0.320155  -0.005451  -0.018124  -0.000176
    20  H    0.011165  -0.037020   0.001849   0.000004  -0.004106   0.000328
    21  H    0.030082   0.046306   0.009253  -0.000200   0.011400  -0.008998
    22  H    0.000058  -0.000121  -0.000002   0.000000   0.000000   0.000000
    23  H    0.011573  -0.012782  -0.032418  -0.000147   0.294540  -0.004608
              19         20         21         22         23
     1  C   -0.000002   0.008800  -0.007410   0.296335   0.000002
     2  C    0.000040   0.008839  -0.019898  -0.026406  -0.000052
     3  C    0.000014   0.106893  -0.038079   0.051087  -0.000282
     4  C    0.000273   0.040128   0.063541  -0.008912   0.000311
     5  C   -0.000062   0.051485   0.008706   0.014387   0.000024
     6  C    0.000006   0.006040   0.003694  -0.034105  -0.000002
     7  H    0.000000  -0.008974   0.000293  -0.004650   0.000000
     8  H    0.000000  -0.000196   0.000005  -0.000152   0.000000
     9  H    0.000000   0.000015   0.000000  -0.004828   0.000000
    10  O   -0.000129  -0.011899  -0.011638   0.000067   0.000049
    11  C    0.030187   0.057707   0.009179   0.000615  -0.006046
    12  C   -0.015714  -0.030406   0.107921  -0.000481   0.038458
    13  C   -0.035937   0.011165   0.030082   0.000058   0.011573
    14  C    0.017169  -0.037020   0.046306  -0.000121  -0.012782
    15  C    0.320155   0.001849   0.009253  -0.000002  -0.032418
    16  H   -0.005451   0.000004  -0.000200   0.000000  -0.000147
    17  C   -0.018124  -0.004106   0.011400   0.000000   0.294540
    18  H   -0.000176   0.000328  -0.008998   0.000000  -0.004608
    19  H    0.522719   0.000000   0.000013   0.000000  -0.004691
    20  H    0.000000   0.668728  -0.003420  -0.000200   0.000001
    21  H    0.000013  -0.003420   0.647145   0.000001  -0.000189
    22  H    0.000000  -0.000200   0.000001   0.540804   0.000000
    23  H   -0.004691   0.000001  -0.000189   0.000000   0.535026
 Mulliken charges:
               1
     1  C    0.044271
     2  C   -0.392293
     3  C    0.478224
     4  C   -0.171630
     5  C   -0.549160
     6  C   -0.108550
     7  H    0.181435
     8  H    0.197744
     9  H    0.184754
    10  O   -0.432628
    11  C   -0.158770
    12  C    0.312265
    13  C   -0.457570
    14  C   -0.258596
    15  C   -0.089072
    16  H    0.205204
    17  C   -0.005562
    18  H    0.185961
    19  H    0.189709
    20  H    0.134238
    21  H    0.152294
    22  H    0.176501
    23  H    0.181231
 Sum of Mulliken charges =   0.00000
 Mulliken charges with hydrogens summed into heavy atoms:
               1
     1  C    0.220772
     2  C   -0.210858
     3  C    0.612462
     4  C   -0.171630
     5  C   -0.351417
     6  C    0.076204
    10  O   -0.432628
    11  C   -0.158770
    12  C    0.464559
    13  C   -0.252366
    14  C   -0.072635
    15  C    0.100637
    17  C    0.175669
 Electronic spatial extent (au):  <R**2>=           3124.3272
 Charge=              0.0000 electrons
 Dipole moment (field-independent basis, Debye):
    X=             -0.8180    Y=              1.5129    Z=              0.2605  Tot=              1.7395
 Quadrupole moment (field-independent basis, Debye-Ang):
   XX=            -60.2366   YY=            -69.5382   ZZ=            -83.5858
   XY=              0.0686   XZ=             -0.4049   YZ=             -0.6715
 Traceless Quadrupole moment (field-independent basis, Debye-Ang):
   XX=             10.8836   YY=              1.5820   ZZ=            -12.4656
   XY=              0.0686   XZ=             -0.4049   YZ=             -0.6715
 Octapole moment (field-independent basis, Debye-Ang**2):
  XXX=            -10.2535  YYY=              2.5457  ZZZ=             -0.7598  XYY=             -2.2060
  XXY=             -9.3035  XXZ=              9.4137  XZZ=             -0.8164  YZZ=             -2.3771
  YYZ=              0.6961  XYZ=             -0.3400
 Hexadecapole moment (field-independent basis, Debye-Ang**3):
 XXXX=          -3227.0449 YYYY=           -602.7936 ZZZZ=           -110.0142 XXXY=             -1.5015
 XXXZ=            -13.8787 YYYX=              0.1013 YYYZ=             -2.0212 ZZZX=             -0.8380
 ZZZY=              0.4282 XXYY=           -632.7052 XXZZ=           -705.4850 YYZZ=           -140.3587
 XXYZ=             -1.0195 YYXZ=             -0.7150 ZZXY=             -0.4398
 N-N= 6.757203485046D+02 E-N=-2.599826297950D+03  KE= 5.328443823749D+02
 Evaluate density.
 Using the total density.
 Monte-Carlo method of calculating molar volume:
 based on  0.001 e/bohr**3 density envelope.
 Number of points per bohr**3 =   20 CutOff= 1.00D-04
 Using the SCF density.
 There are       381 points.  Will hold       381 in memory.
 LenV=  4026357033 MDV=  4026531840.
 Box volume = 6950.355 fraction occupied=0.231
 Integrated density= 7.4108225892744755D+01 error=-1.5891774107255245D+01
 Molar volume = 1605.331 bohr**3/mol (143.258 cm**3/mol)
 Recommended a0 for SCRF calculation =  4.73 angstrom (  8.94 bohr)
 Calling FoFJK, ICntrl=      2127 FMM=F ISym2X=0 I1Cent= 0 IOpClX= 0 NMat=1 NMatS=1 NMatT=0.
 ***** Axes restored to original set *****
 -------------------------------------------------------------------
 Center     Atomic                   Forces (Hartrees/Bohr)
 Number     Number              X              Y              Z
 -------------------------------------------------------------------
      1        6           0.002037692    0.010440301   -0.003321326
      2        6           0.004640657    0.010390133    0.016823826
      3        6          -0.001260871   -0.011316935    0.014472014
      4        6           0.007021445    0.047202996   -0.040541925
      5        6           0.000891950    0.008581744   -0.007175999
      6        6          -0.001796642    0.005732438   -0.021206576
      7        1          -0.002879043   -0.006725945   -0.009591078
      8        1           0.003089290    0.008684061    0.007470206
      9        1           0.001060406   -0.002200598    0.011447954
     10        8          -0.002722550   -0.004742628   -0.024891261
     11        6          -0.002981003   -0.059294938    0.029561085
     12        6           0.002528187    0.016756376   -0.004785279
     13        6          -0.004138685   -0.011450317    0.018060877
     14        6           0.003453518    0.014827311    0.013487916
     15        6          -0.010578424   -0.020356621   -0.000819135
     16        1           0.003687063    0.005823179    0.009964693
     17        6          -0.001398612   -0.004789514    0.011198860
     18        1          -0.003125398   -0.007785902   -0.008561319
     19        1           0.004081792    0.010840723    0.000665436
     20        1          -0.002259599   -0.021336076    0.012731337
     21        1           0.000800000    0.018232751   -0.016406967
     22        1          -0.002317898   -0.011611835    0.002518847
     23        1           0.002166724    0.004099297   -0.011102187
 -------------------------------------------------------------------
 Cartesian Forces:  Max     0.059294938 RMS     0.014594332

 GradGradGradGradGradGradGradGradGradGradGradGradGradGradGradGradGradGrad
 Berny optimization.
 FormGI is forming the generalized inverse of G from B-inverse, IUseBI=4.
 Internal  Forces:  Max     0.167541292 RMS     0.025978786
 Search for a local minimum.
 Step number   1 out of a maximum of  123
 All quantities printed in internal units (Hartrees-Bohrs-Radians)
 Mixed Optimization -- RFO/linear search
 Second derivative matrix not updated -- first step.
 ITU=  0
     Eigenvalues ---    0.00230   0.00230   0.01736   0.01786   0.02070
     Eigenvalues ---    0.02070   0.02070   0.02070   0.02070   0.02070
     Eigenvalues ---    0.02070   0.02070   0.02070   0.02070   0.02070
     Eigenvalues ---    0.02070   0.02070   0.02070   0.02070   0.02070
     Eigenvalues ---    0.16000   0.16000   0.16000   0.16000   0.16000
     Eigenvalues ---    0.16000   0.16000   0.16000   0.16000   0.16000
     Eigenvalues ---    0.18708   0.22000   0.22000   0.22000   0.22000
     Eigenvalues ---    0.23439   0.23485   0.24759   0.25000   0.25000
     Eigenvalues ---    0.27457   0.37230   0.37230   0.37230   0.37230
     Eigenvalues ---    0.37230   0.37230   0.37230   0.37230   0.37230
     Eigenvalues ---    0.37230   0.41268   0.41268   0.41450   0.41459
     Eigenvalues ---    0.45389   0.45389   0.45389   0.45389   0.45389
     Eigenvalues ---    0.45389   0.45389   0.45389
 RFO step:  Lambda=-1.78985036D-01 EMin= 2.30000000D-03
 Linear search not attempted -- first point.
 Maximum step size (   0.300) exceeded in Quadratic search.
    -- Step size scaled by   0.466
 Iteration  1 RMS(Cart)=  0.24296730 RMS(Int)=  0.01374086
 Iteration  2 RMS(Cart)=  0.12452408 RMS(Int)=  0.00271208
 Iteration  3 RMS(Cart)=  0.00596054 RMS(Int)=  0.00015236
 Iteration  4 RMS(Cart)=  0.00000313 RMS(Int)=  0.00015236
 Iteration  5 RMS(Cart)=  0.00000000 RMS(Int)=  0.00015236
 Variable       Old X    -DE/DX   Delta X   Delta X   Delta X     New X
                                 (Linear)    (Quad)   (Total)
    R1        2.64826  -0.00970   0.00000  -0.00717  -0.00717   2.64109
    R2        2.64826  -0.00953   0.00000  -0.00720  -0.00720   2.64106
    R3        2.02201   0.01211   0.00000   0.01022   0.01022   2.03223
    R4        2.64826  -0.00119   0.00000  -0.00071  -0.00072   2.64754
    R5        2.02201   0.01202   0.00000   0.01015   0.01015   2.03216
    R6        2.64826   0.00398   0.00000   0.00312   0.00312   2.65138
    R7        2.02201  -0.01901   0.00000  -0.01605  -0.01605   2.00595
    R8        2.64826  -0.00638   0.00000  -0.00466  -0.00466   2.64361
    R9        2.93342  -0.04121   0.00000  -0.04231  -0.04231   2.89112
   R10        2.64826  -0.00541   0.00000  -0.00414  -0.00413   2.64413
   R11        2.02201   0.01172   0.00000   0.00990   0.00990   2.03191
   R12        2.02201   0.01156   0.00000   0.00977   0.00977   2.03177
   R13        3.18558  -0.05189   0.00000  -0.06600  -0.06600   3.11958
   R14        2.64826  -0.00291   0.00000  -0.00212  -0.00212   2.64614
   R15        2.64826  -0.01188   0.00000  -0.00885  -0.00885   2.63941
   R16        2.64826  -0.00164   0.00000  -0.00107  -0.00108   2.64719
   R17        2.02201  -0.01945   0.00000  -0.01643  -0.01643   2.00558
   R18        2.64826  -0.00473   0.00000  -0.00361  -0.00361   2.64465
   R19        2.02201   0.01201   0.00000   0.01014   0.01014   2.03215
   R20        2.64826  -0.00902   0.00000  -0.00653  -0.00653   2.64173
   R21        2.02201   0.01192   0.00000   0.01007   0.01007   2.03207
   R22        2.64826  -0.00938   0.00000  -0.00692  -0.00692   2.64134
   R23        2.02201   0.01136   0.00000   0.00959   0.00959   2.03160
   R24        2.02201   0.01202   0.00000   0.01015   0.01015   2.03216
    A1        2.09440  -0.00717   0.00000  -0.00892  -0.00893   2.08546
    A2        2.09440   0.00369   0.00000   0.00460   0.00461   2.09900
    A3        2.09440   0.00348   0.00000   0.00432   0.00433   2.09872
    A4        2.09440   0.00585   0.00000   0.00684   0.00683   2.10123
    A5        2.09440  -0.00186   0.00000  -0.00196  -0.00196   2.09244
    A6        2.09440  -0.00399   0.00000  -0.00488  -0.00488   2.08952
    A7        2.09440   0.00269   0.00000   0.00352   0.00352   2.09791
    A8        2.09440  -0.01766   0.00000  -0.02417  -0.02416   2.07023
    A9        2.09440   0.01497   0.00000   0.02065   0.02065   2.11504
   A10        2.09440  -0.01397   0.00000  -0.01500  -0.01499   2.07941
   A11        2.09440   0.10323   0.00000   0.11196   0.11195   2.20635
   A12        2.09440  -0.08926   0.00000  -0.09696  -0.09697   1.99743
   A13        2.09440   0.00919   0.00000   0.01033   0.01034   2.10474
   A14        2.09440  -0.00644   0.00000  -0.00770  -0.00771   2.08669
   A15        2.09440  -0.00274   0.00000  -0.00263  -0.00263   2.09176
   A16        2.09440   0.00342   0.00000   0.00323   0.00323   2.09763
   A17        2.09440   0.00014   0.00000   0.00092   0.00092   2.09532
   A18        2.09440  -0.00356   0.00000  -0.00415  -0.00415   2.09024
   A19        2.23319   0.16754   0.00000   0.18184   0.18184   2.41504
   A20        2.01758   0.10515   0.00000   0.11517   0.11525   2.13283
   A21        2.16295  -0.09756   0.00000  -0.10609  -0.10621   2.05675
   A22        2.09440  -0.00697   0.00000  -0.00745  -0.00745   2.08694
   A23        2.09440   0.00074   0.00000   0.00095   0.00094   2.09534
   A24        2.09440   0.01344   0.00000   0.01850   0.01849   2.11289
   A25        2.09440  -0.01418   0.00000  -0.01945  -0.01945   2.07494
   A26        2.09440   0.00524   0.00000   0.00556   0.00556   2.09996
   A27        2.09440  -0.00351   0.00000  -0.00400  -0.00400   2.09039
   A28        2.09440  -0.00173   0.00000  -0.00156  -0.00156   2.09284
   A29        2.09440   0.00435   0.00000   0.00530   0.00530   2.09969
   A30        2.09440  -0.00344   0.00000  -0.00439  -0.00439   2.09001
   A31        2.09440  -0.00091   0.00000  -0.00091  -0.00091   2.09349
   A32        2.09440   0.00323   0.00000   0.00335   0.00335   2.09775
   A33        2.09440  -0.00400   0.00000  -0.00495  -0.00495   2.08945
   A34        2.09440   0.00077   0.00000   0.00160   0.00160   2.09599
   A35        2.09440  -0.00659   0.00000  -0.00771  -0.00771   2.08668
   A36        2.09440   0.00350   0.00000   0.00414   0.00414   2.09853
   A37        2.09440   0.00309   0.00000   0.00358   0.00357   2.09797
    D1        0.00000  -0.00006   0.00000  -0.00013  -0.00013  -0.00013
    D2       -3.14159  -0.00009   0.00000  -0.00022  -0.00022   3.14138
    D3       -3.14159  -0.00001   0.00000  -0.00002  -0.00002   3.14157
    D4        0.00000  -0.00005   0.00000  -0.00011  -0.00011  -0.00011
    D5        0.00000   0.00000   0.00000  -0.00001  -0.00001  -0.00001
    D6        3.14159   0.00004   0.00000   0.00010   0.00010  -3.14149
    D7        3.14159  -0.00005   0.00000  -0.00012  -0.00012   3.14147
    D8        0.00000   0.00000   0.00000   0.00000   0.00000   0.00000
    D9        0.00000   0.00002   0.00000   0.00005   0.00005   0.00005
   D10       -3.14159  -0.00032   0.00000  -0.00075  -0.00073   3.14086
   D11        3.14159   0.00006   0.00000   0.00014   0.00014  -3.14145
   D12        0.00000  -0.00028   0.00000  -0.00066  -0.00065  -0.00065
   D13        0.00000   0.00007   0.00000   0.00016   0.00016   0.00016
   D14        3.14159   0.00016   0.00000   0.00038   0.00039  -3.14120
   D15        3.14159   0.00041   0.00000   0.00096   0.00097  -3.14063
   D16        0.00000   0.00051   0.00000   0.00118   0.00120   0.00120
   D17        0.00000  -0.00013   0.00000  -0.00030  -0.00030  -0.00030
   D18       -3.14159  -0.00005   0.00000  -0.00011  -0.00011   3.14148
   D19       -3.14159  -0.00022   0.00000  -0.00052  -0.00050   3.14109
   D20        0.00000  -0.00014   0.00000  -0.00033  -0.00031  -0.00031
   D21       -0.09171   0.00108   0.00000   0.00278   0.00278  -0.08893
   D22        3.04988   0.00117   0.00000   0.00300   0.00300   3.05288
   D23        0.00000   0.00010   0.00000   0.00022   0.00023   0.00023
   D24       -3.14159   0.00005   0.00000   0.00011   0.00011  -3.14148
   D25       -3.14159   0.00001   0.00000   0.00003   0.00003  -3.14156
   D26        0.00000  -0.00004   0.00000  -0.00008  -0.00008  -0.00008
   D27        0.07603   0.01126   0.00000   0.02848   0.02815   0.10419
   D28       -2.92738   0.00530   0.00000   0.01406   0.01439  -2.91300
   D29       -3.00924   0.00355   0.00000  -0.00123  -0.00210  -3.01134
   D30        0.13235   0.00549   0.00000   0.00490   0.00424   0.13660
   D31        0.00000   0.00106   0.00000   0.00364   0.00375   0.00376
   D32       -3.14159   0.00300   0.00000   0.00977   0.01010  -3.13149
   D33        2.99766   0.01146   0.00000   0.01799   0.01729   3.01495
   D34       -0.14393   0.01046   0.00000   0.01736   0.01680  -0.12713
   D35        0.00000  -0.00263   0.00000  -0.00565  -0.00562  -0.00562
   D36        3.14159  -0.00363   0.00000  -0.00628  -0.00611   3.13548
   D37        0.00000   0.00121   0.00000   0.00102   0.00085   0.00085
   D38        3.14159   0.00045   0.00000   0.00097   0.00094  -3.14066
   D39        3.14159  -0.00073   0.00000  -0.00512  -0.00536   3.13623
   D40        0.00000  -0.00149   0.00000  -0.00517  -0.00527  -0.00527
   D41        0.00000   0.00194   0.00000   0.00301   0.00289   0.00289
   D42        3.14159   0.00052   0.00000   0.00130   0.00132  -3.14028
   D43        3.14159   0.00294   0.00000   0.00364   0.00338  -3.13822
   D44        0.00000   0.00152   0.00000   0.00193   0.00181   0.00181
   D45        0.00000  -0.00190   0.00000  -0.00366  -0.00359  -0.00359
   D46       -3.14159  -0.00080   0.00000  -0.00102  -0.00094   3.14066
   D47       -3.14159  -0.00114   0.00000  -0.00361  -0.00368   3.13791
   D48        0.00000  -0.00005   0.00000  -0.00096  -0.00103  -0.00102
   D49        0.00000   0.00032   0.00000   0.00165   0.00173   0.00174
   D50       -3.14159  -0.00077   0.00000  -0.00100  -0.00092   3.14067
   D51       -3.14159   0.00175   0.00000   0.00336   0.00331  -3.13828
   D52        0.00000   0.00065   0.00000   0.00071   0.00066   0.00066
         Item               Value     Threshold  Converged?
 Maximum Force            0.167541     0.000450     NO 
 RMS     Force            0.025979     0.000300     NO 
 Maximum Displacement     1.160645     0.001800     NO 
 RMS     Displacement     0.361019     0.001200     NO 
 Predicted change in Energy=-7.215721D-02
 GradGradGradGradGradGradGradGradGradGradGradGradGradGradGradGradGradGrad

                          Input orientation:                          
 ---------------------------------------------------------------------
 Center     Atomic      Atomic             Coordinates (Angstroms)
 Number     Number       Type             X           Y           Z
 ---------------------------------------------------------------------
      1          6           0       -4.736635   -0.280425   -0.059575
      2          6           0       -4.874501   -0.068335   -1.434095
      3          6           0       -4.641131    1.199574   -1.982548
      4          6           0       -4.266368    2.268583   -1.154702
      5          6           0       -4.129752    2.050000    0.220282
      6          6           0       -4.363319    0.783205    0.766608
      7          1           0       -5.161268   -0.882232   -2.075779
      8          1           0       -3.842749    2.864472    0.860909
      9          1           0       -4.254514    0.630203    1.825257
     10          8           0       -3.978366    3.703871   -1.599264
     11          6           0       -3.863167    4.560382   -3.005784
     12          6           0       -4.172815    3.997265   -4.249890
     13          6           0       -3.297989    5.836337   -2.948131
     14          6           0       -3.911815    4.710177   -5.427158
     15          6           0       -3.035670    6.546662   -4.125076
     16          1           0       -3.064145    6.274139   -1.994160
     17          6           0       -3.340997    5.984899   -5.368005
     18          1           0       -4.152364    4.273395   -6.379884
     19          1           0       -2.599324    7.527631   -4.069471
     20          1           0       -4.753391    1.328836   -3.030156
     21          1           0       -4.611185    3.033324   -4.320772
     22          1           0       -4.916294   -1.254503    0.359235
     23          1           0       -3.140296    6.530879   -6.272468
 ---------------------------------------------------------------------
                    Distance matrix (angstroms):
                    1          2          3          4          5
     1  C    0.000000
     2  C    1.397603   0.000000
     3  C    2.428445   1.401019   0.000000
     4  C    2.813875   2.430858   1.403052   0.000000
     5  C    2.424357   2.789078   2.416028   1.398936   0.000000
     6  C    1.397588   2.414440   2.794352   2.430469   1.399213
     7  H    2.146523   1.075371   2.147825   3.402479   3.864441
     8  H    3.396572   3.864313   3.390361   2.144114   1.075239
     9  H    2.148086   3.390533   3.869500   3.400674   2.146470
    10  O    4.338229   3.880706   2.618715   1.529913   2.463525
    11  C    5.733803   4.991795   3.598231   2.973452   4.096411
    12  C    6.014587   4.995013   3.631422   3.546446   4.876077
    13  C    6.915796   6.296256   4.923002   4.108895   5.006697
    14  C    7.375458   6.301229   4.972079   4.933656   6.246408
    15  C    8.125927   7.374337   5.979906   5.351607   6.348158
    16  H    7.035776   6.619519   5.313965   4.265502   4.886984
    17  C    8.329557   7.380306   6.004249   5.693790   6.880008
    18  H    7.811847   6.620644   5.387377   5.597749   6.964638
    19  H    9.033996   8.355856   6.969112   6.239591   7.123806
    20  H    3.378513   2.124656   1.061505   2.153518   3.387380
    21  H    5.399487   4.245294   2.971670   3.275320   4.671174
    22  H    1.075410   2.150529   3.403257   3.889286   3.399661
    23  H    9.356399   8.364624   7.005621   6.754756   7.950666
                    6          7          8          9         10
     6  C    0.000000
     7  H    3.389626   0.000000
     8  H    2.147454   4.939678   0.000000
     9  H    1.075167   4.281091   2.468092   0.000000
    10  O    3.778337   4.760112   2.602966   4.609885   0.000000
    11  C    5.361731   5.672038   4.222303   6.240065   1.650812
    12  C    5.960849   5.432613   5.245229   6.946307   2.673893
    13  C    6.361474   7.026520   4.861844   7.127693   2.613382
    14  C    7.347632   6.638367   6.553715   8.328334   3.958516
    15  C    7.675197   7.994138   6.250595   8.479182   3.917889
    16  H    6.281723   7.457763   4.514805   6.918015   2.756450
    17  C    8.107789   7.830047   6.984854   9.013895   4.451150
    18  H    7.956021   6.791443   7.383089   8.978174   4.817568
    19  H    8.484492   9.014663   6.899260   9.222905   4.756555
    20  H    3.855552   2.442544   4.281102   4.930720   2.879046
    21  H    5.568295   4.546885   5.241070   6.608772   2.873447
    22  H    2.150346   2.475457   4.286039   2.477759   5.413031
    23  H    9.169522   8.755041   8.051152  10.081300   5.525682
                   11         12         13         14         15
    11  C    0.000000
    12  C    1.400279   0.000000
    13  C    1.396715   2.417040   0.000000
    14  C    2.426490   1.400830   2.791164   0.000000
    15  C    2.425464   2.794298   1.399490   2.415724   0.000000
    16  H    2.144478   3.391404   1.075367   3.866523   2.148461
    17  C    2.807490   2.427508   2.424812   1.397945   1.397739
    18  H    3.398609   2.147916   3.866481   1.075328   3.391004
    19  H    3.396071   3.869355   2.146161   3.391754   1.075077
    20  H    3.352011   2.990874   4.737351   4.229342   5.601350
    21  H    2.149565   1.061308   3.386076   2.127215   3.855397
    22  H    6.800391   7.026938   7.989843   8.370706   9.192603
    23  H    3.882863   3.402370   3.399775   2.150522   2.149997
                   16         17         18         19         20
    16  H    0.000000
    17  C    3.397519   0.000000
    18  H    4.941839   2.147432   0.000000
    19  H    2.468647   2.148555   4.282522   0.000000
    20  H    5.327557   5.398085   4.500260   6.644188   0.000000
    21  H    4.278941   3.379626   2.447087   4.930470   2.142706
    22  H    8.102430   9.364389   8.749684  10.104833   4.264756
    23  H    4.286681   1.075373   2.476298   2.477774   6.338447
                   21         22         23
    21  H    0.000000
    22  H    6.354605   0.000000
    23  H    4.266793  10.380068   0.000000
 Stoichiometry    C12H10O
 Framework group  C1[X(C12H10O)]
 Deg. of freedom    63
 Full point group                 C1      NOp   1
 Largest Abelian subgroup         C1      NOp   1
 Largest concise Abelian subgroup C1      NOp   1
                         Standard orientation:                         
 ---------------------------------------------------------------------
 Center     Atomic      Atomic             Coordinates (Angstroms)
 Number     Number       Type             X           Y           Z
 ---------------------------------------------------------------------
      1          6           0        4.167124    0.461951    0.117855
      2          6           0        3.157031    1.426390    0.064354
      3          6           0        1.813205    1.040975   -0.027528
      4          6           0        1.470063   -0.318909   -0.066579
      5          6           0        2.485559   -1.279564   -0.012422
      6          6           0        3.827226   -0.893123    0.079164
      7          1           0        3.411284    2.470854    0.093874
      8          1           0        2.230162   -2.323619   -0.041778
      9          1           0        4.596951   -1.642692    0.119848
     10          8           0        0.056841   -0.896480   -0.165814
     11          6           0       -1.501634   -0.352120   -0.163156
     12          6           0       -1.815413    1.012543   -0.167369
     13          6           0       -2.521111   -1.293350   -0.003259
     14          6           0       -3.143789    1.427467   -0.007435
     15          6           0       -3.847544   -0.877498    0.158652
     16          1           0       -2.284456   -2.342352   -0.005195
     17          6           0       -4.162306    0.484338    0.158035
     18          1           0       -3.379326    2.476671   -0.012299
     19          1           0       -4.624467   -1.610247    0.282181
     20          1           0        1.068981    1.796930   -0.065700
     21          1           0       -1.060714    1.747524   -0.296236
     22          1           0        5.197973    0.760092    0.188349
     23          1           0       -5.181583    0.804082    0.281586
 ---------------------------------------------------------------------
 Rotational constants (GHZ):           2.6296019           0.3544913           0.3132954
 Standard basis: 6-31+G(d) (6D, 7F)
 There are   267 symmetry adapted cartesian basis functions of A   symmetry.
 There are   267 symmetry adapted basis functions of A   symmetry.
   267 basis functions,   456 primitive gaussians,   267 cartesian basis functions
    45 alpha electrons       45 beta electrons
       nuclear repulsion energy       667.1741711198 Hartrees.
 NAtoms=   23 NActive=   23 NUniq=   23 SFac= 1.00D+00 NAtFMM=   60 NAOKFM=F Big=F
 Integral buffers will be    131072 words long.
 Raffenetti 2 integral format.
 Two-electron integral symmetry is turned on.
 Nuclear repulsion after empirical dispersion term =      667.1591651481 Hartrees.
 One-electron integrals computed using PRISM.
 NBasis=   267 RedAO= T EigKep=  2.51D-06  NBF=   267
 NBsUse=   266 1.00D-06 EigRej=  8.71D-07 NBFU=   266
 Initial guess from the checkpoint file:  "molecule_93.chk"
 B after Tr=     0.000000    0.000000    0.000000
         Rot=    0.999773   -0.021307   -0.000519    0.000185 Ang=  -2.44 deg.
 ExpMin= 4.38D-02 ExpMax= 5.48D+03 ExpMxC= 8.25D+02 IAcc=3 IRadAn=         5 AccDes= 0.00D+00
 Harris functional with IExCor=  402 and IRadAn=       5 diagonalized for initial guess.
 HarFok:  IExCor=  402 AccDes= 0.00D+00 IRadAn=         5 IDoV= 1 UseB2=F ITyADJ=14
 ICtDFT=  3500011 ScaDFX=  1.000000  1.000000  1.000000  1.000000
 FoFCou: FMM=F IPFlag=           0 FMFlag=      100000 FMFlg1=           0
         NFxFlg=           0 DoJE=T BraDBF=F KetDBF=T FulRan=T
         wScrn=  0.000000 ICntrl=       500 IOpCl=  0 I1Cent=   200000004 NGrid=           0
         NMat0=    1 NMatS0=      1 NMatT0=    0 NMatD0=    1 NMtDS0=    0 NMtDT0=    0
 Petite list used in FoFCou.
 Requested convergence on RMS density matrix=1.00D-08 within 128 cycles.
 Requested convergence on MAX density matrix=1.00D-06.
 Requested convergence on             energy=1.00D-06.
 No special actions if energy rises.
 SCF Done:  E(RB3LYP) =  -538.485232827     A.U. after   15 cycles
            NFock= 15  Conv=0.61D-08     -V/T= 2.0107
 Calling FoFJK, ICntrl=      2127 FMM=F ISym2X=0 I1Cent= 0 IOpClX= 0 NMat=1 NMatS=1 NMatT=0.
 ***** Axes restored to original set *****
 -------------------------------------------------------------------
 Center     Atomic                   Forces (Hartrees/Bohr)
 Number     Number              X              Y              Z
 -------------------------------------------------------------------
      1        6           0.000758301    0.005117078   -0.003729259
      2        6           0.003493605    0.008845715    0.009672313
      3        6           0.002749357    0.006082625    0.009299191
      4        6           0.006399494    0.040445170   -0.034441745
      5        6           0.001065017    0.005910836   -0.002037912
      6        6          -0.001465006    0.002476892   -0.013777727
      7        1          -0.002078695   -0.005131758   -0.005958846
      8        1           0.002157600    0.006966954    0.002919204
      9        1           0.001195062    0.000313427    0.008007567
     10        8          -0.001937198    0.003707739   -0.021166296
     11        6          -0.001634592   -0.054520211    0.028773265
     12        6           0.002914331    0.007149402    0.008650678
     13        6          -0.002816049   -0.007995203    0.015661372
     14        6           0.001918666    0.008005580    0.010592320
     15        6          -0.008148902   -0.012171544   -0.002338710
     16        1           0.002580350    0.001389425    0.007491101
     17        6          -0.001310761   -0.004317125    0.005723935
     18        1          -0.002349028   -0.004466002   -0.006287756
     19        1           0.003088541    0.007030784    0.002241775
     20        1          -0.001139694    0.004010207   -0.016276012
     21        1          -0.005919817   -0.015420032    0.000648606
     22        1          -0.001360109   -0.007268974    0.003019423
     23        1           0.001839528    0.003839015   -0.006686487
 -------------------------------------------------------------------
 Cartesian Forces:  Max     0.054520211 RMS     0.011856418

 GradGradGradGradGradGradGradGradGradGradGradGradGradGradGradGradGradGrad
 Berny optimization.
 Using GEDIIS/GDIIS optimizer.
 FormGI is forming the generalized inverse of G from B-inverse, IUseBI=4.
 Internal  Forces:  Max     0.092700876 RMS     0.013768672
 Search for a local minimum.
 Step number   2 out of a maximum of  123
 All quantities printed in internal units (Hartrees-Bohrs-Radians)
 Mixed Optimization -- RFO/linear search
 Update second derivatives using D2CorX and points    1    2
 DE= -2.76D-02 DEPred=-7.22D-02 R= 3.83D-01
 Trust test= 3.83D-01 RLast= 3.03D-01 DXMaxT set to 3.00D-01
 ITU=  0  0
 Use linear search instead of GDIIS.
     Eigenvalues ---    0.00230   0.00232   0.01728   0.01777   0.02070
     Eigenvalues ---    0.02070   0.02070   0.02070   0.02070   0.02070
     Eigenvalues ---    0.02070   0.02070   0.02070   0.02070   0.02070
     Eigenvalues ---    0.02070   0.02070   0.02070   0.02070   0.02073
     Eigenvalues ---    0.15253   0.16000   0.16000   0.16000   0.16000
     Eigenvalues ---    0.16000   0.16000   0.16000   0.16000   0.16040
     Eigenvalues ---    0.16107   0.21979   0.22000   0.22000   0.22003
     Eigenvalues ---    0.22975   0.23472   0.24121   0.24937   0.26339
     Eigenvalues ---    0.36787   0.36982   0.37230   0.37230   0.37230
     Eigenvalues ---    0.37230   0.37230   0.37230   0.37230   0.37230
     Eigenvalues ---    0.41193   0.41220   0.41274   0.41480   0.45261
     Eigenvalues ---    0.45379   0.45389   0.45389   0.45389   0.45389
     Eigenvalues ---    0.45389   0.45389   1.24073
 RFO step:  Lambda=-1.32253925D-01 EMin= 2.29998124D-03
 Quartic linear search produced a step of  0.55204.
 Maximum step size (   0.300) exceeded in Quadratic search.
    -- Step size scaled by   0.472
 Iteration  1 RMS(Cart)=  0.22417014 RMS(Int)=  0.01268009
 Iteration  2 RMS(Cart)=  0.04388609 RMS(Int)=  0.00056245
 Iteration  3 RMS(Cart)=  0.00040293 RMS(Int)=  0.00053921
 Iteration  4 RMS(Cart)=  0.00000014 RMS(Int)=  0.00053921
 Variable       Old X    -DE/DX   Delta X   Delta X   Delta X     New X
                                 (Linear)    (Quad)   (Total)
    R1        2.64109   0.00060  -0.00396  -0.00077  -0.00474   2.63635
    R2        2.64106   0.00261  -0.00398   0.00149  -0.00250   2.63856
    R3        2.03223   0.00799   0.00564   0.01340   0.01905   2.05128
    R4        2.64754  -0.00194  -0.00040  -0.00235  -0.00275   2.64479
    R5        2.03216   0.00799   0.00560   0.01339   0.01899   2.05115
    R6        2.65138  -0.00980   0.00172  -0.01062  -0.00889   2.64250
    R7        2.00595   0.01667  -0.00886   0.01752   0.00866   2.01461
    R8        2.64361  -0.00798  -0.00257  -0.01043  -0.01300   2.63061
    R9        2.89112  -0.07838  -0.02335  -0.14319  -0.16655   2.72457
   R10        2.64413  -0.00316  -0.00228  -0.00460  -0.00689   2.63724
   R11        2.03191   0.00759   0.00547   0.01279   0.01826   2.05016
   R12        2.03177   0.00796   0.00539   0.01324   0.01863   2.05040
   R13        3.11958  -0.09270  -0.03643  -0.22326  -0.25969   2.85989
   R14        2.64614  -0.01082  -0.00117  -0.01319  -0.01429   2.63185
   R15        2.63941  -0.01324  -0.00489  -0.01760  -0.02243   2.61698
   R16        2.64719  -0.00224  -0.00059  -0.00273  -0.00332   2.64386
   R17        2.00558   0.01641  -0.00907   0.01707   0.00800   2.01358
   R18        2.64465  -0.00247  -0.00199  -0.00373  -0.00572   2.63893
   R19        2.03215   0.00777   0.00560   0.01310   0.01870   2.05084
   R20        2.64173   0.00105  -0.00360   0.00009  -0.00358   2.63816
   R21        2.03207   0.00791   0.00556   0.01326   0.01882   2.05089
   R22        2.64134   0.00233  -0.00382   0.00139  -0.00249   2.63885
   R23        2.03160   0.00778   0.00530   0.01296   0.01826   2.04986
   R24        2.03216   0.00792   0.00561   0.01329   0.01890   2.05106
    A1        2.08546  -0.00054  -0.00493  -0.00358  -0.00853   2.07693
    A2        2.09900   0.00017   0.00254   0.00163   0.00418   2.10318
    A3        2.09872   0.00037   0.00239   0.00195   0.00435   2.10307
    A4        2.10123   0.00034   0.00377   0.00418   0.00794   2.10917
    A5        2.09244   0.00136  -0.00108   0.00212   0.00104   2.09348
    A6        2.08952  -0.00170  -0.00269  -0.00630  -0.00898   2.08054
    A7        2.09791  -0.00709   0.00194  -0.01205  -0.01010   2.08781
    A8        2.07023   0.00563  -0.01334  -0.00035  -0.01370   2.05653
    A9        2.11504   0.00146   0.01140   0.01240   0.02380   2.13884
   A10        2.07941   0.01439  -0.00827   0.01892   0.01066   2.09007
   A11        2.20635  -0.00512   0.06180   0.03335   0.09515   2.30150
   A12        1.99743  -0.00926  -0.05353  -0.05227  -0.10581   1.89162
   A13        2.10474  -0.00802   0.00571  -0.01116  -0.00545   2.09929
   A14        2.08669   0.00196  -0.00426  -0.00035  -0.00461   2.08208
   A15        2.09176   0.00606  -0.00145   0.01151   0.01006   2.10182
   A16        2.09763   0.00093   0.00178   0.00370   0.00548   2.10310
   A17        2.09532   0.00106   0.00051   0.00290   0.00341   2.09873
   A18        2.09024  -0.00200  -0.00229  -0.00660  -0.00889   2.08135
   A19        2.41504  -0.05805   0.10038  -0.03289   0.06749   2.48253
   A20        2.13283   0.00351   0.06362   0.05085   0.11446   2.24729
   A21        2.05675  -0.02250  -0.05863  -0.07844  -0.13759   1.91916
   A22        2.08694   0.01935  -0.00411   0.03061   0.02643   2.11337
   A23        2.09534  -0.00937   0.00052  -0.01760  -0.01699   2.07835
   A24        2.11289   0.00289   0.01021   0.01412   0.02426   2.13714
   A25        2.07494   0.00648  -0.01074   0.00343  -0.00741   2.06753
   A26        2.09996  -0.01065   0.00307  -0.01844  -0.01529   2.08467
   A27        2.09039   0.00388  -0.00221   0.00531   0.00306   2.09346
   A28        2.09284   0.00677  -0.00086   0.01313   0.01223   2.10506
   A29        2.09969  -0.00055   0.00292   0.00231   0.00521   2.10491
   A30        2.09001  -0.00131  -0.00242  -0.00562  -0.00804   2.08197
   A31        2.09349   0.00185  -0.00050   0.00332   0.00282   2.09631
   A32        2.09775   0.00106   0.00185   0.00422   0.00604   2.10378
   A33        2.08945  -0.00240  -0.00273  -0.00799  -0.01071   2.07874
   A34        2.09599   0.00134   0.00088   0.00377   0.00467   2.10066
   A35        2.08668   0.00016  -0.00426  -0.00112  -0.00548   2.08120
   A36        2.09853  -0.00010   0.00228   0.00065   0.00298   2.10151
   A37        2.09797  -0.00006   0.00197   0.00047   0.00248   2.10045
    D1       -0.00013  -0.00002  -0.00007  -0.00019  -0.00027  -0.00039
    D2        3.14138   0.00000  -0.00012  -0.00021  -0.00032   3.14106
    D3        3.14157  -0.00002  -0.00001  -0.00009  -0.00011   3.14146
    D4       -0.00011   0.00000  -0.00006  -0.00011  -0.00016  -0.00027
    D5       -0.00001  -0.00002  -0.00001  -0.00010  -0.00011  -0.00012
    D6       -3.14149   0.00001   0.00006   0.00015   0.00021  -3.14128
    D7        3.14147  -0.00002  -0.00006  -0.00020  -0.00027   3.14120
    D8        0.00000   0.00001   0.00000   0.00004   0.00005   0.00004
    D9        0.00005   0.00003   0.00003   0.00016   0.00020   0.00025
   D10        3.14086  -0.00001  -0.00041  -0.00073  -0.00110   3.13976
   D11       -3.14145   0.00001   0.00008   0.00018   0.00025  -3.14120
   D12       -0.00065  -0.00002  -0.00036  -0.00072  -0.00105  -0.00170
   D13        0.00016   0.00000   0.00009   0.00016   0.00025   0.00041
   D14       -3.14120   0.00010   0.00022   0.00082   0.00107  -3.14014
   D15       -3.14063   0.00004   0.00053   0.00109   0.00163  -3.13899
   D16        0.00120   0.00013   0.00066   0.00175   0.00245   0.00365
   D17       -0.00030  -0.00004  -0.00017  -0.00045  -0.00062  -0.00092
   D18        3.14148  -0.00001  -0.00006  -0.00013  -0.00020   3.14128
   D19        3.14109  -0.00012  -0.00028  -0.00102  -0.00124   3.13985
   D20       -0.00031  -0.00009  -0.00017  -0.00070  -0.00082  -0.00114
   D21       -0.08893   0.00036   0.00154   0.00488   0.00642  -0.08251
   D22        3.05288   0.00045   0.00166   0.00550   0.00716   3.06004
   D23        0.00023   0.00005   0.00013   0.00042   0.00056   0.00078
   D24       -3.14148   0.00002   0.00006   0.00018   0.00024  -3.14124
   D25       -3.14156   0.00001   0.00002   0.00009   0.00013  -3.14143
   D26       -0.00008  -0.00002  -0.00004  -0.00015  -0.00018  -0.00026
   D27        0.10419   0.00190   0.01554   0.03640   0.05113   0.15531
   D28       -2.91300  -0.00270   0.00794   0.00654   0.01531  -2.89769
   D29       -3.01134  -0.00214  -0.00116  -0.01945  -0.02349  -3.03484
   D30        0.13660  -0.00176   0.00234  -0.01044  -0.01025   0.12635
   D31        0.00376  -0.00037   0.00207   0.00344   0.00574   0.00950
   D32       -3.13149   0.00001   0.00558   0.01245   0.01899  -3.11250
   D33        3.01495   0.00375   0.00954   0.02678   0.03352   3.04847
   D34       -0.12713   0.00326   0.00927   0.02558   0.03252  -0.09461
   D35       -0.00562   0.00034  -0.00310  -0.00404  -0.00686  -0.01247
   D36        3.13548  -0.00015  -0.00337  -0.00524  -0.00786   3.12763
   D37        0.00085   0.00038   0.00047   0.00077   0.00080   0.00164
   D38       -3.14066   0.00016   0.00052   0.00135   0.00188  -3.13878
   D39        3.13623   0.00000  -0.00296  -0.00800  -0.01180   3.12443
   D40       -0.00527  -0.00021  -0.00291  -0.00742  -0.01072  -0.01599
   D41        0.00289  -0.00033   0.00159   0.00045   0.00146   0.00434
   D42       -3.14028  -0.00021   0.00073   0.00061   0.00128  -3.13900
   D43       -3.13822   0.00017   0.00186   0.00165   0.00247  -3.13575
   D44        0.00181   0.00028   0.00100   0.00181   0.00229   0.00409
   D45       -0.00359  -0.00029  -0.00198  -0.00425  -0.00592  -0.00952
   D46        3.14066  -0.00028  -0.00052  -0.00139  -0.00167   3.13899
   D47        3.13791  -0.00007  -0.00203  -0.00483  -0.00702   3.13089
   D48       -0.00102  -0.00006  -0.00057  -0.00197  -0.00276  -0.00378
   D49        0.00174   0.00025   0.00096   0.00362   0.00479   0.00652
   D50        3.14067   0.00024  -0.00051   0.00076   0.00053   3.14120
   D51       -3.13828   0.00014   0.00183   0.00348   0.00498  -3.13330
   D52        0.00066   0.00013   0.00036   0.00062   0.00073   0.00139
         Item               Value     Threshold  Converged?
 Maximum Force            0.092701     0.000450     NO 
 RMS     Force            0.013769     0.000300     NO 
 Maximum Displacement     0.802519     0.001800     NO 
 RMS     Displacement     0.253776     0.001200     NO 
 Predicted change in Energy=-2.304323D-02
 GradGradGradGradGradGradGradGradGradGradGradGradGradGradGradGradGradGrad

                          Input orientation:                          
 ---------------------------------------------------------------------
 Center     Atomic      Atomic             Coordinates (Angstroms)
 Number     Number       Type             X           Y           Z
 ---------------------------------------------------------------------
      1          6           0       -4.687675   -0.163853    0.074355
      2          6           0       -4.861616   -0.144265   -1.309715
      3          6           0       -4.667322    1.033253   -2.040798
      4          6           0       -4.293759    2.205618   -1.376426
      5          6           0       -4.118163    2.191107    0.004438
      6          6           0       -4.314415    1.013033    0.726408
      7          1           0       -5.151156   -1.050463   -1.832317
      8          1           0       -3.827997    3.104838    0.512283
      9          1           0       -4.173293    1.020706    1.802190
     10          8           0       -4.029838    3.540049   -1.854309
     11          6           0       -3.917030    4.355687   -3.124095
     12          6           0       -4.233538    3.985862   -4.428975
     13          6           0       -3.318843    5.574553   -2.851444
     14          6           0       -3.928440    4.861232   -5.476851
     15          6           0       -3.014652    6.440588   -3.903847
     16          1           0       -3.092043    5.849464   -1.826371
[...]
 014127,-0.00020303,-0.00095679,-0.00029055,0.00015648,-0.00003545,0.00
 008664,0.00001352,0.00016271,0.00006856,-0.00002764,0.00002626,-0.0000
 1271,-0.00003282,-0.00000846,-0.00000682,0.00001259,0.00000370,-0.0000
 0313,-0.00849091,0.00386120,-0.00223811,0.04489311,0.02782464,0.011659
 71,-0.04236533,-0.12804300,0.08477300,-0.01566455,-0.02765246,0.025006
 81,0.23549411,0.36958696,-0.00042598,0.00011956,0.00048948,0.00036328,
 0.00061567,-0.00005954,0.00067963,-0.00066601,0.00031728,-0.00052928,-
 0.00099186,0.00043334,0.00036956,0.00058293,-0.00063219,0.00006048,-0.
 00073671,-0.00003693,0.00008518,-0.00001321,0.00001044,-0.00005812,0.0
 0000427,-0.00003716,-0.00000605,-0.00001149,0.00002523,0.00069360,0.00
 149539,0.00222971,-0.05363344,-0.01712623,-0.04449139,0.01337784,0.120
 13313,-0.29328776,0.01730533,0.02445289,-0.02784028,0.13828650,-0.1299
 9139,0.63197059,0.00015868,-0.00001843,-0.00021699,-0.00012616,-0.0002
 7441,0.00002427,-0.00015187,0.00026414,0.00015524,-0.00026935,-0.00027
 004,0.00129275,-0.00002810,-0.00062303,0.00008440,-0.00012821,0.000276
 61,0.00013707,-0.00005120,-0.00002145,-0.00001212,0.00001423,0.0000163
 6,0.00002196,-0.00001940,-0.00004206,0.00000482,-0.00251372,-0.0071843
 8,-0.00127070,0.02692165,0.00556138,0.02800989,-0.01308280,0.00373238,
 -0.02449918,-0.10729521,-0.04120524,0.01034947,-0.03781249,-0.03525084
 ,0.00397778,0.53480679,-0.00006666,0.00004051,0.00008999,0.00012393,0.
 00016819,0.00003290,0.00026985,-0.00003333,-0.00010518,-0.00157018,0.0
 0106483,0.00085535,0.00006230,-0.00029341,0.00000341,0.00000039,-0.000
 09788,0.00008047,0.00001834,0.00002387,-0.00000260,-0.00003551,-0.0000
 1789,-0.00003088,-0.00000610,-0.00002355,0.00000535,-0.00297830,0.0007
 1410,0.00077817,-0.01345676,-0.01720062,0.02031679,0.00351094,-0.00341
 019,0.00494298,-0.01987428,-0.12774480,0.11855609,-0.01840014,0.000641
 40,-0.01635455,0.25932332,0.39911012,0.00035070,-0.00018828,-0.0004246
 9,-0.00037247,-0.00057437,0.00011695,-0.00031843,0.00041384,-0.0003535
 5,0.00131255,0.00138783,-0.00104042,-0.00020190,-0.00061958,0.00051165
 ,-0.00001422,0.00054599,0.00010355,-0.00007979,-0.00003692,-0.00002536
 ,0.00003122,0.00001431,-0.00003550,-0.00001362,-0.00002609,0.00002140,
 -0.00792802,-0.00159833,0.00539621,0.06864600,0.04852407,0.00307200,-0
 .02280615,0.00580517,-0.05245389,-0.03566230,0.08259817,-0.29572439,-0
 .03138558,-0.04222514,0.04784837,0.09214958,-0.15046769,0.60596231,-0.
 00000044,0.00003143,0.00000819,-0.00002346,0.00004240,0.00004765,0.000
 13068,0.00014805,-0.00009317,-0.00003485,-0.00012779,0.00018609,0.0000
 4934,0.00006516,-0.00006717,-0.00001185,-0.00003652,0.00000622,-0.0000
 0056,0.00002112,-0.00000275,-0.00002120,-0.00001175,0.00000834,0.00000
 234,0.00000281,-0.00000172,0.00005114,0.00284578,0.00045134,-0.0121053
 7,-0.00430061,-0.01807894,-0.00044013,-0.00497851,0.00134207,-0.192238
 24,-0.05343958,-0.13909726,-0.00010360,0.00007502,0.00094504,0.0045064
 1,0.00053336,0.00221091,0.19839444,0.00000578,0.00004580,-0.00001511,0
 .00000745,-0.00005502,-0.00003604,-0.00002779,0.00010862,0.00019313,0.
 00017247,-0.00083442,0.00021856,0.00005707,0.00013834,-0.00010204,-0.0
 0003754,-0.00000816,-0.00002702,-0.00001274,0.00000365,-0.00000040,0.0
 0000036,-0.00000092,0.00001292,0.00000438,0.00000748,-0.00001303,0.002
 86298,-0.00085512,-0.00141539,-0.01522372,0.00089794,-0.01580501,-0.00
 467398,0.00014334,0.00315388,-0.05307640,-0.05868248,-0.03362485,0.000
 12076,-0.00090521,0.00056899,0.01126072,0.00649646,0.00914576,0.059492
 58,0.05258381,-0.00000059,-0.00003049,-0.00000821,0.00000546,-0.000024
 26,-0.00003411,-0.00003718,-0.00005322,0.00010493,0.00013400,0.0001054
 8,0.00009541,-0.00001446,-0.00009567,0.00005021,-0.00002394,0.00003555
 ,-0.00001919,-0.00000267,-0.00001504,-0.00000168,0.00002164,0.00000762
 ,-0.00000323,-0.00000419,-0.00000369,0.00000348,0.00087821,-0.00155215
 ,0.00073814,0.00567210,0.00334508,0.00678045,0.00042393,0.00225594,0.0
 0092401,-0.14100229,-0.03521737,-0.18520338,0.00072305,0.00032175,-0.0
 0026879,-0.02016328,-0.00788243,-0.01344942,0.15243544,0.03549406,0.19
 330265,-0.00034287,0.00012241,0.00043528,0.00034845,0.00052622,-0.0000
 8530,0.00032238,-0.00049851,0.00029526,-0.00079732,-0.00047157,0.00051
 241,0.00015059,0.00046640,-0.00046816,0.00002011,-0.00058051,-0.000082
 74,0.00006998,0.00000084,0.00001479,-0.00001538,-0.00000779,0.00000607
 ,0.00000572,-0.00000104,0.00000188,0.00439079,0.00157178,-0.00022169,-
 0.05285511,-0.02764394,-0.01358709,0.02431857,-0.01465395,0.06010794,0
 .02544005,0.03764212,-0.04829233,-0.21343339,-0.11382661,-0.00058305,-
 0.21055133,-0.07255125,-0.08817754,0.00333963,-0.00284091,0.00036717,0
 .49075815,-0.00018796,-0.00001289,0.00023282,0.00014481,0.00026031,-0.
 00010504,0.00004622,-0.00040848,0.00013164,0.00029657,0.00066786,0.000
 01040,0.00004578,0.00012024,-0.00017520,0.00005041,-0.00025609,-0.0000
 4845,0.00004405,-0.00002556,0.00001405,-0.00000538,0.00000842,-0.00002
 375,-0.00001252,-0.00001444,0.00001035,0.00229038,-0.00115794,0.001489
 06,-0.02926955,-0.02036246,-0.01131233,0.00097910,-0.01398240,0.047207
 07,0.02119597,0.02924623,-0.01319483,-0.13574355,-0.17817519,0.0326584
 8,-0.05018688,-0.10101982,0.00372433,-0.00260790,0.00281308,0.00474425
 ,0.22482683,0.37603905,0.00000549,0.00016512,0.,-0.00001735,0.00001471
 ,0.00007928,0.00020678,0.00035329,-0.00014389,-0.00154285,-0.00163095,
 0.00090673,0.00004556,0.00026917,-0.00010040,-0.00004153,-0.00009508,0
 .00001004,0.00000571,0.00008833,-0.00000191,-0.00002448,-0.00002957,0.
 00004409,0.00001452,0.00003246,-0.00002811,0.00323556,0.00196396,-0.00
 487626,-0.01443758,-0.01064429,-0.00174626,0.02647467,0.02133897,0.001
 90902,-0.01558126,0.01243403,-0.04202505,0.04626531,0.06754059,-0.1318
 4527,-0.13464065,-0.03134812,-0.21306040,-0.00040940,0.00433480,-0.002
 69146,0.10404037,-0.17125562,0.66447520,0.00004316,0.00001476,-0.00005
 450,-0.00004916,-0.00006449,0.00002512,0.00004538,0.00011790,-0.000085
 45,-0.00004680,-0.00018744,0.00005457,-0.00003539,0.00000532,0.0000450
 9,-0.00001246,0.00005596,0.00001227,-0.00000604,0.00002154,-0.00000194
 ,-0.00000260,-0.00000449,0.00001267,0.00000401,0.00000664,-0.00000254,
 -0.00000296,0.00010251,-0.00014334,0.00356155,-0.00270477,-0.00017235,
 0.00389119,-0.00036255,0.00158140,0.00000748,0.00015282,0.00089723,-0.
 19609125,-0.05483167,-0.13636343,-0.00032104,-0.00562436,0.00116809,-0
 .00027787,0.00038283,0.00007658,-0.01132748,-0.00313556,-0.01664531,0.
 20272637,-0.00003003,-0.00002343,0.00003997,0.00002659,0.00003718,-0.0
 0002753,-0.00004737,-0.00008659,0.00005969,0.00000644,0.00028214,-0.00
 006511,0.00000958,-0.00001255,-0.00001502,0.00000187,-0.00003790,-0.00
 001752,0.00000644,-0.00001840,0.00000291,0.00000699,0.00000081,-0.0000
 0806,-0.00000087,-0.00000361,-0.00000027,0.00076412,0.00005027,0.00089
 706,-0.00338793,0.00309924,0.00407638,0.01060001,0.00636550,0.00980725
 ,0.00019027,-0.00081676,0.00037368,-0.05455302,-0.06053719,-0.03520506
 ,-0.00516997,0.00115720,0.00348057,0.00039395,-0.00041352,-0.00028920,
 -0.01449302,-0.00045908,-0.01502661,0.06235470,0.05536397,0.00000466,0
 .00008426,0.00002282,0.00003869,0.00000886,0.00000156,0.00003010,0.000
 07437,0.00007608,-0.00025849,-0.00099369,0.00024312,0.00007727,0.00017
 268,-0.00010700,0.00001730,-0.00008380,-0.00000233,-0.00001190,0.00002
 454,-0.00000282,-0.00002239,-0.00000726,0.00000319,0.00000432,0.000013
 45,-0.00001453,-0.00098238,0.00040920,-0.00169895,0.00048451,0.0045267
 2,-0.00188814,-0.02156440,-0.00720840,-0.01476757,0.00074658,0.0003947
 1,-0.00043900,-0.13630081,-0.03494744,-0.17814387,0.00039051,0.0027587
 1,0.00143914,0.00010504,-0.00029184,-0.00007099,0.00654293,0.00224617,
 0.00907256,0.14847010,0.03520176,0.18559889,0.00000166,-0.00001692,0.0
 0000544,-0.00000205,0.00001511,-0.00000646,-0.00001696,-0.00001533,0.0
 0000745,0.00007323,0.00021686,-0.00003200,0.00001964,-0.00005862,0.000
 02957,-0.00000004,0.00001273,0.00000444,-0.00000016,-0.00000545,-0.000
 00227,0.00000108,0.00000492,-0.00000611,-0.00001019,-0.00000447,0.0000
 0225,-0.00016311,-0.00015079,0.00008938,0.00359953,-0.00216648,-0.0019
 2017,0.00006424,0.00072624,-0.00030599,0.00356160,0.00080021,-0.001279
 44,-0.00006523,-0.00265144,-0.00510807,-0.19818235,-0.14113320,0.04205
 766,-0.00079429,0.00196174,0.00123780,-0.01134853,-0.01467030,0.007656
 80,-0.00066718,-0.00079702,0.00038047,0.20499807,-0.00001239,-0.000029
 46,0.00000528,0.00001688,0.00001938,0.00000063,0.00003256,-0.00011318,
 -0.00000259,-0.00000298,0.00050783,-0.00000226,-0.00004067,-0.00011925
 ,0.00001886,0.00000265,0.00002113,0.00001721,-0.00000347,-0.00001540,-
 0.00000330,-0.00000127,0.00000596,-0.00001161,-0.00000020,-0.00001189,
 0.00000940,-0.00037088,-0.00095676,0.00053715,-0.00164828,0.00466175,0
 .00337227,0.00064868,-0.00018144,-0.00017301,-0.01016983,-0.00521326,0
 .00187847,-0.00303243,0.00439591,0.00009844,-0.14107414,-0.16529133,0.
 04824927,0.00222642,-0.00194842,-0.00107015,-0.00396947,-0.00090738,0.
 00271353,-0.00023221,-0.00010541,0.00019994,0.15546353,0.16766870,0.00
 000567,0.00003284,-0.00000907,-0.00000423,-0.00000899,0.00000714,0.000
 01514,0.00006632,0.00000712,0.00012594,-0.00052003,-0.00032290,0.00000
 579,0.00023417,-0.00004445,0.00002174,-0.00002987,-0.00004257,-0.00000
 277,0.00001364,0.00000144,-0.00000257,-0.00000491,0.00000625,0.0000131
 8,0.00002169,-0.00000753,0.00104199,0.00179009,-0.00053969,-0.00265984
 ,0.00283270,-0.00304046,-0.00034920,-0.00002505,-0.00113433,0.02213109
 ,0.01912914,-0.00246044,-0.00427535,0.00079201,-0.00192103,0.04201830,
 0.04809780,-0.07217968,0.00070268,-0.00153586,0.00015448,-0.01568137,-
 0.01475649,0.00958110,-0.00089863,-0.00075052,0.00035233,-0.04362729,-
 0.05414190,0.07140768,0.00554269,-0.00176635,0.00223026,-0.00076213,-0
 .00022104,0.00535598,-0.11846034,-0.02951836,0.13361813,-0.00094971,-0
 .00343316,0.00761388,0.00409558,0.00123451,0.00255511,-0.00036868,0.00
 035927,-0.00061042,-0.00283840,0.00021528,-0.00227437,-0.00000935,-0.0
 0019174,0.00038438,-0.00069151,0.00005710,-0.00036752,-0.00244893,0.00
 082223,-0.00214953,-0.00012482,0.00017502,0.00085845,0.00039647,-0.000
 27981,-0.00001310,0.00024984,0.00030634,-0.00040253,0.00016103,0.00014
 143,-0.00058787,0.00011240,-0.00014862,0.00041426,-0.00005763,-0.00001
 467,0.00000278,-0.00036945,-0.00016036,-0.00002842,0.00000829,0.000011
 94,-0.00002019,-0.00001361,-0.00002143,0.00000218,0.11687355,-0.001181
 17,-0.00520249,0.00009673,-0.01601154,-0.00054445,0.02592198,-0.030020
 51,-0.06932400,0.04324396,0.01290444,0.00970327,-0.02011569,0.00071537
 ,-0.00379092,-0.00272779,0.00013307,-0.00120950,-0.00019932,0.00043320
 ,0.00078441,-0.00008220,0.00059513,0.00032741,-0.00116958,0.00004951,0
 .00013964,0.00007707,-0.00000857,0.00160468,0.00126540,0.00023803,-0.0
 0174856,-0.00036877,0.00072733,-0.00091185,0.00052563,-0.00011683,0.00
 002212,0.00013265,0.00014423,0.00003001,-0.00014030,0.00002699,-0.0000
 8970,0.00010666,0.00000859,0.00003839,-0.00000418,-0.00011309,-0.00005
 654,-0.00003351,-0.00003349,0.00002344,-0.00003123,0.00002331,0.000005
 84,-0.00001184,0.03234416,0.07026841,0.00240396,0.00080292,0.00312664,
 0.00255620,-0.00011695,-0.00170474,0.13449310,0.04185041,-0.24863391,0
 .01059548,0.00643632,-0.01236039,0.00238638,-0.00371670,0.00075103,-0.
 00061169,-0.00038070,0.00024590,-0.00215524,0.00049122,-0.00046914,0.0
 0050907,0.00032038,-0.00057371,-0.00036132,0.00008794,-0.00027128,-0.0
 0219153,0.00122926,-0.00023750,-0.00028617,0.00034577,0.00031616,-0.00
 009869,0.00081213,-0.00008590,-0.00017052,-0.00021205,0.00017688,-0.00
 016944,-0.00000713,0.00011726,-0.00004358,-0.00000364,-0.00004688,0.00
 001806,-0.00007177,-0.00003923,0.00010599,0.00003162,-0.00003992,-0.00
 000115,-0.00000723,-0.00003121,-0.00001150,0.00001518,0.00000375,-0.14
 727282,-0.04775893,0.25984579,-0.00024216,0.00005894,0.00025027,0.0003
 0789,0.00044706,-0.00008451,0.00027900,-0.00000807,0.00021615,-0.00051
 851,-0.00047320,-0.00059149,0.00035372,0.00041887,-0.00036023,-0.00001
 428,-0.00037323,-0.00000910,0.00001187,-0.00000781,-0.00001327,-0.0000
 6047,0.00000217,0.00001689,-0.00000592,-0.00000715,0.00002885,-0.00013
 866,0.00224570,0.00109457,-0.01217696,-0.01575273,0.00833483,-0.200064
 97,-0.14258744,0.04379967,-0.00018049,-0.00209979,-0.00474583,0.003867
 41,0.00141769,-0.00087195,-0.00013413,0.00079578,-0.00061348,-0.000583
 97,-0.00082807,0.00035976,0.00344875,-0.00195956,-0.00155684,-0.000724
 71,0.00204259,0.00120381,-0.00030475,0.00034707,0.00025094,-0.00045099
 ,-0.00006779,0.00005713,0.20716003,-0.00002891,-0.00002531,-0.00000273
 ,0.00012262,-0.00008318,-0.00003837,0.00034957,-0.00055072,0.00071933,
 0.00085577,0.00021465,0.00076805,0.00000322,0.00001493,-0.00011119,0.0
 0002546,0.00005050,-0.00001636,-0.00002299,-0.00001605,-0.00000848,-0.
 00003467,-0.00000703,-0.00008014,0.00002332,-0.00000137,-0.00000247,0.
 00213119,-0.00223689,-0.00049550,-0.00520344,-0.00140159,0.00334622,-0
 .14401275,-0.16331583,0.04962934,-0.00242575,0.00359653,-0.00001166,-0
 .00900345,-0.00481553,0.00145679,0.00068759,-0.00017084,-0.00014710,-0
 .00021898,0.00000201,0.00022156,-0.00173960,0.00391795,0.00382928,0.00
 219868,-0.00198030,-0.00110504,0.00034455,-0.00053084,-0.00023317,0.00
 007931,0.00005317,-0.00003602,0.15644419,0.16740830,0.00014733,-0.0000
 8178,-0.00019875,-0.00025399,-0.00028131,0.00008392,-0.00075588,0.0008
 9777,-0.00033125,-0.00052516,0.00052612,-0.00125523,0.00005823,-0.0000
 5235,0.00008076,0.00000388,0.00028989,-0.00006069,0.00001465,-0.000053
 14,0.00000472,0.00001212,-0.00001714,0.00000909,-0.00001578,-0.0000038
 4,0.00000327,0.00186831,-0.00078004,0.00129351,-0.01547268,-0.01404854
 ,0.00997294,0.04441756,0.05036506,-0.07303656,-0.00392236,0.00068937,-
 0.00236099,0.02223130,0.01857021,-0.00206494,-0.00035305,-0.00007975,-
 0.00102730,-0.00084626,-0.00079309,0.00032625,-0.00235458,0.00339728,-
 0.00389896,0.00079518,-0.00155098,0.00018173,0.00025261,-0.00024748,0.
 00001236,0.00026391,0.00000147,-0.00000788,-0.04658940,-0.05776948,0.0
 7242255,-0.05626358,-0.06382579,0.02718957,-0.00079667,-0.01596151,0.0
 0223204,0.00324795,-0.00054023,0.00542932,-0.00053286,0.00049761,0.000
 51237,0.00456040,0.00115908,0.00380279,0.00476499,0.00917302,-0.002990
 20,-0.00266001,0.00047483,-0.00198232,0.00040859,0.00045847,0.00004299
 ,-0.00265634,0.00016858,-0.00208391,-0.00065504,0.00000796,-0.00037236
 ,-0.00010081,0.00005429,-0.00008056,0.00009060,-0.00005297,0.00001918,
 0.00003749,0.00000609,-0.00002434,0.00001021,0.00001100,-0.00006450,0.
 00002765,-0.00001369,0.00003480,-0.00000465,0.00000855,0.00000495,-0.0
 0004448,-0.00002277,0.00000926,0.00000499,0.00000166,-0.00000572,-0.00
 000278,-0.00000473,0.00000185,0.00013742,-0.00077359,0.00024743,-0.000
 02645,-0.00000032,0.00002974,0.05045746,-0.06390820,-0.30814626,0.0621
 3792,-0.00002742,-0.00153025,-0.00054814,-0.00079994,0.00163085,0.0005
 1988,0.00052324,0.00070215,-0.00069652,0.00148100,-0.00139776,-0.00388
 224,-0.00667992,-0.01758465,0.00801918,0.00010971,0.00074574,0.0005637
 0,-0.00038059,-0.00088140,0.00044588,0.00056010,0.00068575,-0.00017997
 ,-0.00004334,-0.00024507,0.00040470,-0.00001245,0.00012244,-0.00028379
 ,0.00001332,-0.00002335,0.00005915,0.00000555,-0.00003930,0.00006043,-
 0.00000310,0.00000774,-0.00002835,-0.00000481,0.00000221,-0.00001474,0
 .00000396,0.00000819,-0.00000444,-0.00000148,-0.00001259,0.00002546,0.
 00000526,-0.00000167,0.00001250,-0.00000545,-0.00000708,0.00000766,0.0
 0001772,-0.00015607,-0.00010995,-0.00002579,0.00000487,-0.00002142,0.0
 6917417,0.32612008,0.02696844,0.06216016,-0.06895893,0.00511971,0.0264
 3075,-0.00224604,0.00526186,-0.00050819,-0.00227876,0.00052020,-0.0006
 9722,-0.00117001,0.00395465,-0.00282107,-0.00040792,-0.00553991,-0.018
 99661,0.00825656,-0.00202864,-0.00014521,-0.00051343,-0.00008938,-0.00
 093425,0.00042268,-0.00199780,0.00050643,-0.00046299,-0.00060674,0.000
 21069,0.00004052,-0.00005837,0.00001257,-0.00002908,0.00004656,0.00003
 236,0.00000301,-0.00001460,-0.00002462,0.00000241,-0.00000777,0.000000
 12,0.00001456,0.00000226,-0.00000127,0.00000550,0.00000227,-0.00000295
 ,-0.00000008,0.00000233,-0.00000306,0.00000078,-0.00000099,0.00000072,
 -0.00000829,0.00000139,0.00000110,-0.00000103,0.00040264,0.00128680,-0
 .00007036,0.00001929,-0.00001442,0.00001184,-0.03195760,-0.06649547,0.
 06739190,-0.00002914,0.00000773,0.00002866,0.00002994,0.00004588,-0.00
 000278,0.00006521,-0.00003007,0.00002483,-0.00006516,-0.00000665,0.000
 01532,0.00003936,0.00003355,-0.00003232,0.00001198,-0.00004046,-0.0000
 0422,0.00000434,0.00000452,-0.00000182,-0.00000943,-0.00000143,-0.0000
 0396,-0.00000024,0.,0.00000268,-0.00008593,0.00051337,0.00020149,-0.00
 131235,-0.00061079,-0.00029944,-0.00108590,-0.00543876,-0.00058935,-0.
 00096975,-0.00401768,-0.00383272,0.00380041,-0.00902146,0.02208754,0.0
 0411954,0.01122082,-0.02080228,0.00022413,0.00039816,-0.00109427,-0.05
 152782,-0.01195783,-0.00303438,-0.00072748,0.00206208,0.00066997,-0.00
 074780,0.00184656,0.00116476,-0.00003171,-0.00001678,0.00000084,0.0001
 9876,-0.00057461,0.00099432,-0.00000408,-0.00000154,0.00000019,0.04810
 311,0.00000617,-0.00000532,-0.00001051,0.00000363,0.00000038,0.0000001
 9,-0.00005450,0.00000606,0.00004267,0.00008022,0.00000882,-0.00003410,
 -0.00000903,-0.00001957,-0.00001291,-0.00000423,0.00002365,0.00000262,
 -0.00000384,-0.00001252,-0.00000102,0.00000082,0.00000309,-0.00000202,
 -0.00000231,-0.00000227,0.00000187,0.00063916,-0.00048619,-0.00008488,
 -0.00061400,-0.00037066,-0.00067536,-0.00573880,0.00168404,0.00128249,
 -0.00368018,0.00369958,0.00052395,0.00171776,-0.00554803,0.01907863,0.
 00017618,0.00597447,-0.00809774,-0.00016900,0.00041617,-0.00028897,-0.
 01176388,-0.09622229,0.11496005,0.00176210,-0.00188334,-0.00145914,0.0
 0210625,-0.00185539,-0.00099945,-0.00000878,0.00003331,-0.00000207,-0.
 00002941,-0.00012745,0.00104315,0.00000031,-0.00000457,0.00000264,0.01
 558537,0.09468804,0.00002032,0.00002473,-0.00002185,-0.00001588,-0.000
 04749,0.00000220,-0.00003504,0.00008371,-0.00000097,-0.00002235,-0.000
 32347,0.00004849,-0.00000856,0.00005742,-0.00001907,-0.00000662,0.0000
 0456,-0.00000029,-0.00000287,0.00000915,0.00000321,0.00000054,-0.00000
 430,0.00000980,0.00000549,0.00000741,-0.00000837,0.00037795,0.00013464
 ,-0.00028707,-0.00032460,-0.00066707,0.00068224,0.00001168,0.00211991,
 0.00200164,-0.00449518,-0.00031268,0.00002520,-0.00146109,0.00118206,-
 0.00282711,0.00258124,0.00975812,-0.01465558,0.00012732,0.00061231,-0.
 00069025,-0.00289858,0.11497725,-0.28562089,0.00123132,-0.00097687,0.0
 0018330,0.00057404,-0.00146443,0.00016951,0.00002483,-0.00001501,-0.00
 001135,-0.00019607,0.00010156,-0.00016041,0.00000519,0.00000858,-0.000
 00286,0.00450694,-0.12527009,0.30118047\\-0.00000497,0.00000447,0.0000
 0875,0.00000962,0.00000792,-0.00000690,-0.00000052,-0.00000941,-0.0000
 0387,-0.00001034,-0.00001025,0.00000645,0.00001163,0.00001132,-0.00001
 121,-0.00000237,-0.00001121,-0.00000358,-0.00000113,-0.00000033,0.0000
 0007,-0.00000164,-0.00000029,0.00000191,0.00000032,-0.00000041,0.00000
 067,0.00000610,0.00000650,0.00001378,0.00001076,0.00000864,-0.00000698
 ,-0.00000735,0.00000136,-0.00002045,-0.00001561,-0.00001613,0.00001425
 ,-0.00001105,-0.00001441,0.00002208,-0.00000856,0.00000175,-0.00002280
 ,0.00000288,0.00000318,-0.00000124,0.00002296,0.00001420,0.00000349,0.
 00000054,0.00000058,-0.00000226,0.00000173,0.00000054,0.00000357,-0.00
 000139,0.00000070,0.00000370,0.00000206,0.00000323,-0.00000012,-0.0000
 0060,-0.00000022,0.00000108,-0.00000306,-0.00000173,-0.00000036\\\@


 MEMORIES ARE LIKE AN ENGLISH GRAMMER LESSON -
 PRESENT TENSE, AND PAST PERFECT.
 Job cpu time:       0 days  1 hours 35 minutes  4.4 seconds.
 Elapsed time:       0 days  0 hours  3 minutes 10.2 seconds.
 File lengths (MBytes):  RWF=    174 Int=      0 D2E=      0 Chk=      8 Scr=      1
 Normal termination of Gaussian 16 at Fri Sep 15 06:13:33 2023.
