 Entering Gaussian System, Link 0=/home/ubuntu/g16/g16
 Input=/home/ubuntu/New/molecule_85.gjf
 Output=/home/ubuntu/New/molecule_85.log
 Initial command:
 /home/ubuntu/g16/l1.exe "/home/ubuntu/Scratch/Gau-48115.inp" -scrdir="/home/ubuntu/Scratch/"
 Entering Link 1 = /home/ubuntu/g16/l1.exe PID=     48117.
  
 Copyright (c) 1988-2017, Gaussian, Inc.  All Rights Reserved.
  
 This is part of the Gaussian(R) 16 program.  It is based on
 the Gaussian(R) 09 system (copyright 2009, Gaussian, Inc.),
 the Gaussian(R) 03 system (copyright 2003, Gaussian, Inc.),
 the Gaussian(R) 98 system (copyright 1998, Gaussian, Inc.),
 the Gaussian(R) 94 system (copyright 1995, Gaussian, Inc.),
 the Gaussian 92(TM) system (copyright 1992, Gaussian, Inc.),
 the Gaussian 90(TM) system (copyright 1990, Gaussian, Inc.),
 the Gaussian 88(TM) system (copyright 1988, Gaussian, Inc.),
 the Gaussian 86(TM) system (copyright 1986, Carnegie Mellon
 University), and the Gaussian 82(TM) system (copyright 1983,
 Carnegie Mellon University). Gaussian is a federally registered
 trademark of Gaussian, Inc.
  
 This software contains proprietary and confidential information,
 including trade secrets, belonging to Gaussian, Inc.
  
 This software is provided under written license and may be
 used, copied, transmitted, or stored only in accord with that
 written license.
  
 The following legend is applicable only to US Government
 contracts under FAR:
  
                    RESTRICTED RIGHTS LEGEND
  
 Use, reproduction and disclosure by the US Government is
 subject to restrictions as set forth in subparagraphs (a)
 and (c) of the Commercial Computer Software - Restricted
 Rights clause in FAR 52.227-19.
  
 Gaussian, Inc.
 340 Quinnipiac St., Bldg. 40, Wallingford CT 06492
  
  
 ---------------------------------------------------------------
 Warning -- This program may not be used in any manner that
 competes with the business of Gaussian, Inc. or will provide
 assistance to any competitor of Gaussian, Inc.  The licensee
 of this program is prohibited from giving any competitor of
 Gaussian, Inc. access to this program.  By using this program,
 the user acknowledges that Gaussian, Inc. is engaged in the
 business of creating and licensing software in the field of
 computational chemistry and represents and warrants to the
 licensee that it is not a competitor of Gaussian, Inc. and that
 it will not use this program in any manner prohibited above.
 ---------------------------------------------------------------
  

 Cite this work as:
 Gaussian 16, Revision B.01,
 M. J. Frisch, G. W. Trucks, H. B. Schlegel, G. E. Scuseria, 
 M. A. Robb, J. R. Cheeseman, G. Scalmani, V. Barone, 
 G. A. Petersson, H. Nakatsuji, X. Li, M. Caricato, A. V. Marenich, 
 J. Bloino, B. G. Janesko, R. Gomperts, B. Mennucci, H. P. Hratchian, 
 J. V. Ortiz, A. F. Izmaylov, J. L. Sonnenberg, D. Williams-Young, 
 F. Ding, F. Lipparini, F. Egidi, J. Goings, B. Peng, A. Petrone, 
 T. Henderson, D. Ranasinghe, V. G. Zakrzewski, J. Gao, N. Rega, 
 G. Zheng, W. Liang, M. Hada, M. Ehara, K. Toyota, R. Fukuda, 
 J. Hasegawa, M. Ishida, T. Nakajima, Y. Honda, O. Kitao, H. Nakai, 
 T. Vreven, K. Throssell, J. A. Montgomery, Jr., J. E. Peralta, 
 F. Ogliaro, M. J. Bearpark, J. J. Heyd, E. N. Brothers, K. N. Kudin, 
 V. N. Staroverov, T. A. Keith, R. Kobayashi, J. Normand, 
 K. Raghavachari, A. P. Rendell, J. C. Burant, S. S. Iyengar, 
 J. Tomasi, M. Cossi, J. M. Millam, M. Klene, C. Adamo, R. Cammi, 
 J. W. Ochterski, R. L. Martin, K. Morokuma, O. Farkas, 
 J. B. Foresman, and D. J. Fox, Gaussian, Inc., Wallingford CT, 2016.
 
 ******************************************
 Gaussian 16:  EM64L-G16RevB.01 20-Dec-2017
                18-Sep-2023 
 ******************************************
 %nprocshared=30
 Will use up to   30 processors via shared memory.
 %mem=30GB
 %chk=molecule_85.chk
 ---------------------------------------------------------
 # opt freq b3lyp/6-31+g(d) empiricaldispersion=gd3 volume
 ---------------------------------------------------------
 1/18=20,19=15,26=3,38=1/1,3;
 2/9=110,12=2,17=6,18=5,40=1/2;
 3/5=1,6=6,7=11,11=2,25=1,30=1,71=1,74=-5,124=31/1,2,3;
 4//1;
 5/5=2,38=5/2;
 6/7=2,8=2,9=2,10=2,28=1,44=1/1,4;
 7//1,2,3,16;
 1/18=20,19=15,26=3/3(2);
 2/9=110/2;
 99//99;
 2/9=110/2;
 3/5=1,6=6,7=11,11=2,25=1,30=1,71=1,74=-5,124=31/1,2,3;
 4/5=5,16=3,69=1/1;
 5/5=2,38=5/2;
 7//1,2,3,16;
 1/18=20,19=15,26=3/3(-5);
 2/9=110/2;
 6/7=2,8=2,9=2,10=2,19=2,28=1,44=1/1,4;
 99/9=1/99;
 -------------
 ML molecule85
 -------------
 Symbolic Z-matrix:
 Charge =  0 Multiplicity = 1
 C                    -4.74942  -0.23058  -0.40002 
 C                    -4.8202    0.23854  -1.71867 
 C                    -4.55025   1.58484  -1.99888 
 C                    -4.20951   2.46203  -0.96044 
 C                    -4.13873   1.99291   0.35822 
 C                    -4.40868   0.64661   0.63842 
 H                    -5.08036  -0.43121  -2.51155 
 H                    -4.35464   0.28843   1.64524 
 O                    -3.91049   3.9533   -1.27081 
 C                    -3.81752   4.69985  -2.77936 
 C                    -4.13168   3.88761  -3.87731 
 C                    -3.30395   5.98751  -2.98454 
 C                    -3.93225   4.36302  -5.18043 
 C                    -3.10452   6.46292  -4.28767 
 H                    -3.06408   6.60768  -2.14623 
 C                    -3.41867   5.65068  -5.38561 
 H                    -4.17211   3.74285  -6.01874 
 H                    -2.7124    7.44608  -4.44432 
 H                    -4.60429   1.94302  -3.0057 
 H                    -4.5238    2.90445  -3.72065 
 C                    -3.19953   6.17311  -6.81762 
 N                    -3.03445   6.56663  -7.89627 
 H                    -4.95553  -1.25851  -0.18608 
 H                    -3.87857   2.66266   1.15109 
 
 Add virtual bond connecting atoms H20        and H19        Dist= 2.27D+00.

 GradGradGradGradGradGradGradGradGradGradGradGradGradGradGradGradGradGrad
 Berny optimization.
 Initialization pass.
                           ----------------------------
                           !    Initial Parameters    !
                           ! (Angstroms and Degrees)  !
 --------------------------                            --------------------------
 ! Name  Definition              Value          Derivative Info.                !
 --------------------------------------------------------------------------------
 ! R1    R(1,2)                  1.4014         estimate D2E/DX2                !
 ! R2    R(1,6)                  1.4014         estimate D2E/DX2                !
 ! R3    R(1,23)                 1.07           estimate D2E/DX2                !
 ! R4    R(2,3)                  1.4014         estimate D2E/DX2                !
 ! R5    R(2,7)                  1.07           estimate D2E/DX2                !
 ! R6    R(3,4)                  1.4014         estimate D2E/DX2                !
 ! R7    R(3,19)                 1.07           estimate D2E/DX2                !
 ! R8    R(4,5)                  1.4014         estimate D2E/DX2                !
 ! R9    R(4,9)                  1.5523         estimate D2E/DX2                !
 ! R10   R(5,6)                  1.4014         estimate D2E/DX2                !
 ! R11   R(5,24)                 1.07           estimate D2E/DX2                !
 ! R12   R(6,8)                  1.07           estimate D2E/DX2                !
 ! R13   R(10,11)                1.4014         estimate D2E/DX2                !
 ! R14   R(10,12)                1.4014         estimate D2E/DX2                !
 ! R15   R(11,13)                1.4014         estimate D2E/DX2                !
 ! R16   R(11,20)                1.07           estimate D2E/DX2                !
 ! R17   R(12,14)                1.4014         estimate D2E/DX2                !
 ! R18   R(12,15)                1.07           estimate D2E/DX2                !
 ! R19   R(13,16)                1.4014         estimate D2E/DX2                !
 ! R20   R(13,17)                1.07           estimate D2E/DX2                !
 ! R21   R(14,16)                1.4014         estimate D2E/DX2                !
 ! R22   R(14,18)                1.07           estimate D2E/DX2                !
 ! R23   R(16,21)                1.54           estimate D2E/DX2                !
 ! R24   R(19,20)                1.2008         estimate D2E/DX2                !
 ! R25   R(21,22)                1.16           estimate D2E/DX2                !
 ! A1    A(2,1,6)              120.0            estimate D2E/DX2                !
 ! A2    A(2,1,23)             120.0            estimate D2E/DX2                !
 ! A3    A(6,1,23)             120.0            estimate D2E/DX2                !
 ! A4    A(1,2,3)              120.0            estimate D2E/DX2                !
 ! A5    A(1,2,7)              120.0            estimate D2E/DX2                !
 ! A6    A(3,2,7)              120.0            estimate D2E/DX2                !
 ! A7    A(2,3,4)              120.0            estimate D2E/DX2                !
 ! A8    A(2,3,19)             120.0            estimate D2E/DX2                !
 ! A9    A(4,3,19)             120.0            estimate D2E/DX2                !
 ! A10   A(3,4,5)              120.0            estimate D2E/DX2                !
 ! A11   A(3,4,9)              120.0            estimate D2E/DX2                !
 ! A12   A(5,4,9)              120.0            estimate D2E/DX2                !
 ! A13   A(4,5,6)              120.0            estimate D2E/DX2                !
 ! A14   A(4,5,24)             120.0            estimate D2E/DX2                !
 ! A15   A(6,5,24)             120.0            estimate D2E/DX2                !
 ! A16   A(1,6,5)              120.0            estimate D2E/DX2                !
 ! A17   A(1,6,8)              120.0            estimate D2E/DX2                !
 ! A18   A(5,6,8)              120.0            estimate D2E/DX2                !
 ! A19   A(11,10,12)           120.0            estimate D2E/DX2                !
 ! A20   A(10,11,13)           120.0            estimate D2E/DX2                !
 ! A21   A(10,11,20)           120.0            estimate D2E/DX2                !
 ! A22   A(13,11,20)           120.0            estimate D2E/DX2                !
 ! A23   A(10,12,14)           120.0            estimate D2E/DX2                !
 ! A24   A(10,12,15)           120.0            estimate D2E/DX2                !
 ! A25   A(14,12,15)           120.0            estimate D2E/DX2                !
 ! A26   A(11,13,16)           120.0            estimate D2E/DX2                !
 ! A27   A(11,13,17)           120.0            estimate D2E/DX2                !
 ! A28   A(16,13,17)           120.0            estimate D2E/DX2                !
 ! A29   A(12,14,16)           120.0            estimate D2E/DX2                !
 ! A30   A(12,14,18)           120.0            estimate D2E/DX2                !
 ! A31   A(16,14,18)           120.0            estimate D2E/DX2                !
 ! A32   A(13,16,14)           120.0            estimate D2E/DX2                !
 ! A33   A(13,16,21)           120.0            estimate D2E/DX2                !
 ! A34   A(14,16,21)           120.0            estimate D2E/DX2                !
 ! A35   A(3,19,20)            145.574          estimate D2E/DX2                !
 ! A36   A(11,20,19)           147.929          estimate D2E/DX2                !
 ! A37   L(16,21,22,17,-1)     180.0            estimate D2E/DX2                !
 ! A38   L(16,21,22,17,-2)     180.0            estimate D2E/DX2                !
 ! D1    D(6,1,2,3)              0.0001         estimate D2E/DX2                !
 ! D2    D(6,1,2,7)           -179.9998         estimate D2E/DX2                !
 ! D3    D(23,1,2,3)          -179.9999         estimate D2E/DX2                !
 ! D4    D(23,1,2,7)             0.0002         estimate D2E/DX2                !
 ! D5    D(2,1,6,5)             -0.0001         estimate D2E/DX2                !
 ! D6    D(2,1,6,8)            179.9998         estimate D2E/DX2                !
 ! D7    D(23,1,6,5)           179.9999         estimate D2E/DX2                !
 ! D8    D(23,1,6,8)            -0.0002         estimate D2E/DX2                !
 ! D9    D(1,2,3,4)              0.0001         estimate D2E/DX2                !
 ! D10   D(1,2,3,19)          -179.9999         estimate D2E/DX2                !
 ! D11   D(7,2,3,4)            179.9999         estimate D2E/DX2                !
 ! D12   D(7,2,3,19)            -0.0001         estimate D2E/DX2                !
 ! D13   D(2,3,4,5)             -0.0002         estimate D2E/DX2                !
 ! D14   D(2,3,4,9)            179.9998         estimate D2E/DX2                !
 ! D15   D(19,3,4,5)           179.9998         estimate D2E/DX2                !
 ! D16   D(19,3,4,9)            -0.0002         estimate D2E/DX2                !
 ! D17   D(2,3,19,20)          176.508          estimate D2E/DX2                !
 ! D18   D(4,3,19,20)           -3.492          estimate D2E/DX2                !
 ! D19   D(3,4,5,6)              0.0001         estimate D2E/DX2                !
 ! D20   D(3,4,5,24)          -179.9999         estimate D2E/DX2                !
 ! D21   D(9,4,5,6)           -179.9999         estimate D2E/DX2                !
 ! D22   D(9,4,5,24)             0.0001         estimate D2E/DX2                !
 ! D23   D(4,5,6,1)              0.0            estimate D2E/DX2                !
 ! D24   D(4,5,6,8)           -179.9999         estimate D2E/DX2                !
 ! D25   D(24,5,6,1)          -180.0            estimate D2E/DX2                !
 ! D26   D(24,5,6,8)             0.0001         estimate D2E/DX2                !
 ! D27   D(12,10,11,13)          0.0002         estimate D2E/DX2                !
 ! D28   D(12,10,11,20)       -179.9998         estimate D2E/DX2                !
 ! D29   D(11,10,12,14)          0.0            estimate D2E/DX2                !
 ! D30   D(11,10,12,15)        179.9999         estimate D2E/DX2                !
 ! D31   D(10,11,13,16)         -0.0002         estimate D2E/DX2                !
 ! D32   D(10,11,13,17)        179.9998         estimate D2E/DX2                !
 ! D33   D(20,11,13,16)        179.9998         estimate D2E/DX2                !
 ! D34   D(20,11,13,17)         -0.0002         estimate D2E/DX2                !
 ! D35   D(10,11,20,19)        -26.6215         estimate D2E/DX2                !
 ! D36   D(13,11,20,19)        153.3785         estimate D2E/DX2                !
 ! D37   D(10,12,14,16)         -0.0001         estimate D2E/DX2                !
 ! D38   D(10,12,14,18)        179.9999         estimate D2E/DX2                !
 ! D39   D(15,12,14,16)        179.9999         estimate D2E/DX2                !
 ! D40   D(15,12,14,18)          0.0            estimate D2E/DX2                !
 ! D41   D(11,13,16,14)          0.0001         estimate D2E/DX2                !
 ! D42   D(11,13,16,21)       -179.9999         estimate D2E/DX2                !
 ! D43   D(17,13,16,14)       -179.9999         estimate D2E/DX2                !
 ! D44   D(17,13,16,21)          0.0001         estimate D2E/DX2                !
 ! D45   D(12,14,16,13)          0.0001         estimate D2E/DX2                !
 ! D46   D(12,14,16,21)       -180.0            estimate D2E/DX2                !
 ! D47   D(18,14,16,13)       -180.0            estimate D2E/DX2                !
 ! D48   D(18,14,16,21)          0.0            estimate D2E/DX2                !
 ! D49   D(3,19,20,11)          24.9605         estimate D2E/DX2                !
 --------------------------------------------------------------------------------
 Trust Radius=3.00D-01 FncErr=1.00D-07 GrdErr=1.00D-06 EigMax=2.50D+02 EigMin=1.00D-04
 Number of steps in this run=    122 maximum allowed number of steps=    144.
 GradGradGradGradGradGradGradGradGradGradGradGradGradGradGradGradGradGrad

                          Input orientation:                          
 ---------------------------------------------------------------------
 Center     Atomic      Atomic             Coordinates (Angstroms)
 Number     Number       Type             X           Y           Z
 ---------------------------------------------------------------------
      1          6           0       -4.749416   -0.230579   -0.400021
      2          6           0       -4.820199    0.238538   -1.718672
      3          6           0       -4.550247    1.584841   -1.998879
      4          6           0       -4.209510    2.462026   -0.960435
      5          6           0       -4.138728    1.992910    0.358216
      6          6           0       -4.408682    0.646607    0.638423
      7          1           0       -5.080361   -0.431212   -2.511547
      8          1           0       -4.354640    0.288426    1.645243
      9          8           0       -3.910486    3.953296   -1.270814
     10          6           0       -3.817523    4.699853   -2.779363
     11          6           0       -4.131676    3.887607   -3.877310
     12          6           0       -3.303947    5.987511   -2.984541
     13          6           0       -3.932249    4.363019   -5.180435
     14          6           0       -3.104523    6.462923   -4.287666
     15          1           0       -3.064085    6.607679   -2.146234
     16          6           0       -3.418674    5.650677   -5.385613
     17          1           0       -4.172109    3.742850   -6.018741
     18          1           0       -2.712397    7.446079   -4.444324
     19          1           0       -4.604292    1.943023   -3.005698
     20          1           0       -4.523805    2.904453   -3.720651
     21          6           0       -3.199526    6.173108   -6.817619
     22          7           0       -3.034455    6.566628   -7.896272
     23          1           0       -4.955530   -1.258512   -0.186077
     24          1           0       -3.878569    2.662660    1.151092
 ---------------------------------------------------------------------
                    Distance matrix (angstroms):
                    1          2          3          4          5
     1  C    0.000000
     2  C    1.401400   0.000000
     3  C    2.427296   1.401400   0.000000
     4  C    2.802800   2.427296   1.401400   0.000000
     5  C    2.427296   2.802800   2.427296   1.401400   0.000000
     6  C    1.401400   2.427296   2.802800   2.427296   1.401400
     7  H    2.146700   1.070000   2.146700   3.396345   3.872800
     8  H    2.146700   3.396345   3.872800   3.396345   2.146700
     9  O    4.355100   3.850660   2.559092   1.552300   2.559092
    10  C    5.553274   4.694012   3.293833   2.910330   4.156335
    11  C    5.425182   4.295286   3.001072   3.247537   4.640001
    12  C    6.887218   6.078827   4.680630   4.164864   5.275199
    13  C    6.679914   5.457435   4.268781   4.636706   6.027993
    14  C    7.913434   6.948831   5.578920   5.319647   6.529535
    15  H    7.256127   6.620627   5.240161   4.461452   5.359405
    16  C    7.824077   6.685954   5.411233   5.511362   6.847577
    17  H    6.905899   5.584874   4.578131   5.218081   6.612790
    18  H    8.912739   7.988783   6.611506   6.262556   7.405125
    19  H    3.396345   2.146700   1.070000   2.146700   3.396345
    20  H    4.572298   3.347069   2.169464   2.813062   4.197184
    21  C    9.197550   7.990304   6.789469   7.007053   8.357558
    22  N   10.263376   9.021992   7.867342   8.144590   9.501310
    23  H    1.070000   2.146700   3.396345   3.872800   3.396345
    24  H    3.396345   3.872800   3.396345   2.146700   1.070000
                    6          7          8          9         10
     6  C    0.000000
     7  H    3.396345   0.000000
     8  H    1.070000   4.280590   0.000000
     9  O    3.850660   4.704459   4.704459   0.000000
    10  C    5.334748   5.290965   6.271070   1.685736   0.000000
    11  C    5.565309   4.627906   6.595635   2.616688   1.401400
    12  C    6.547638   6.676779   7.417441   2.728146   1.401400
    13  C    6.920825   5.605869   7.960565   3.931091   2.427296
    14  C    7.732834   7.388345   8.653706   4.006145   2.427296
    15  H    6.715403   7.331085   7.481563   2.920360   2.146700
    16  C    7.893659   6.928985   8.891721   4.478231   2.802800
    17  H    7.345783   5.527036   8.408509   4.759784   3.396345
    18  H    8.657051   8.449532   9.540010   4.868893   3.396345
    19  H    3.872800   2.471400   4.942800   2.744520   2.875821
    20  H    4.910464   3.591427   5.972021   2.734581   2.146700
    21  C    9.359318   8.105358  10.372261   6.016649   4.342800
    22  N   10.477413   9.063706  11.497792   7.175906   5.502800
    23  H    2.146700   2.471400   2.471400   5.425100   6.597143
    24  H    2.146700   4.942800   2.471400   2.744520   4.427454
                   11         12         13         14         15
    11  C    0.000000
    12  C    2.427296   0.000000
    13  C    1.401400   2.802800   0.000000
    14  C    2.802800   1.401400   2.427296   0.000000
    15  H    3.396345   1.070000   3.872800   2.146700   0.000000
    16  C    2.427296   2.427296   1.401400   1.401400   3.396345
    17  H    2.146700   3.872800   1.070000   3.396345   4.942800
    18  H    3.872800   2.146700   3.396345   1.070000   2.471400
    19  H    2.182769   4.248439   3.322273   4.931759   4.986976
    20  H    1.070000   3.396345   2.146700   3.872800   4.280590
    21  C    3.838989   3.838989   2.548270   2.548270   4.693509
    22  N    4.953091   4.953091   3.610776   3.610776   5.750261
    23  H    6.386429   7.941283   7.588960   8.936992   8.324466
    24  H    5.181638   5.337441   6.556091   6.679913   5.205662
                   16         17         18         19         20
    16  C    0.000000
    17  H    2.146700   0.000000
    18  H    2.146700   4.280590   0.000000
    19  H    4.562498   3.536183   5.994376   0.000000
    20  H    3.396345   2.471400   4.942800   1.200826   0.000000
    21  C    1.540000   2.736837   2.736837   5.864957   4.693509
    22  N    2.700000   3.576744   3.576744   6.910848   5.750261
    23  H    8.782596   7.723169   9.946568   4.280590   5.478127
    24  H    7.201962   7.256685   7.453169   4.280590   4.920231
                   21         22         23         24
    21  C    0.000000
    22  N    1.160000   0.000000
    23  H   10.113845  11.152150   0.000000
    24  H    8.734110   9.889807   4.280590   0.000000
 Stoichiometry    C13H9NO
 Framework group  C1[X(C13H9NO)]
 Deg. of freedom    66
 Full point group                 C1      NOp   1
 Largest Abelian subgroup         C1      NOp   1
 Largest concise Abelian subgroup C1      NOp   1
                         Standard orientation:                         
 ---------------------------------------------------------------------
 Center     Atomic      Atomic             Coordinates (Angstroms)
 Number     Number       Type             X           Y           Z
 ---------------------------------------------------------------------
      1          6           0        4.501844   -1.101368   -0.129215
      2          6           0        3.241286   -1.694402    0.023193
      3          6           0        2.095075   -0.892418    0.106520
      4          6           0        2.209421    0.502600    0.037438
      5          6           0        3.469978    1.095633   -0.114968
      6          6           0        4.616190    0.293649   -0.198295
      7          1           0        3.153981   -2.759529    0.075939
      8          1           0        5.578654    0.746444   -0.314659
      9          8           0        0.939788    1.390940    0.129735
     10          6           0       -0.670216    0.895134    0.191146
     11          6           0       -0.875429   -0.489918    0.249819
     12          6           0       -1.761463    1.758803    0.026291
     13          6           0       -2.171888   -1.011300    0.143633
     14          6           0       -3.057923    1.237421   -0.079892
     15          1           0       -1.604778    2.816320   -0.018506
     16          6           0       -3.263135   -0.147630   -0.021222
     17          1           0       -2.328573   -2.068818    0.188427
     18          1           0       -3.891114    1.896852   -0.205762
     19          1           0        1.132612   -1.345213    0.222888
     20          1           0       -0.042238   -1.149348    0.375692
     21          6           0       -4.687816   -0.720578   -0.137907
     22          7           0       -5.760953   -1.152148   -0.225799
     23          1           0        5.377001   -1.713701   -0.192839
     24          1           0        3.557284    2.160761   -0.167712
 ---------------------------------------------------------------------
 Rotational constants (GHZ):           2.0026490           0.2425894           0.2171502
 Standard basis: 6-31+G(d) (6D, 7F)
 There are   303 symmetry adapted cartesian basis functions of A   symmetry.
 There are   303 symmetry adapted basis functions of A   symmetry.
   303 basis functions,   516 primitive gaussians,   303 cartesian basis functions
    51 alpha electrons       51 beta electrons
       nuclear repulsion energy       805.3833030375 Hartrees.
 NAtoms=   24 NActive=   24 NUniq=   24 SFac= 1.00D+00 NAtFMM=   60 NAOKFM=F Big=F
 Integral buffers will be    131072 words long.
 Raffenetti 2 integral format.
 Two-electron integral symmetry is turned on.
 Nuclear repulsion after empirical dispersion term =      805.3658803936 Hartrees.
 One-electron integrals computed using PRISM.
 NBasis=   303 RedAO= T EigKep=  1.35D-06  NBF=   303
 NBsUse=   302 1.00D-06 EigRej=  4.30D-07 NBFU=   302
 ExpMin= 4.38D-02 ExpMax= 5.48D+03 ExpMxC= 8.25D+02 IAcc=3 IRadAn=         5 AccDes= 0.00D+00
 Harris functional with IExCor=  402 and IRadAn=       5 diagonalized for initial guess.
 HarFok:  IExCor=  402 AccDes= 0.00D+00 IRadAn=         5 IDoV= 1 UseB2=F ITyADJ=14
 ICtDFT=  3500011 ScaDFX=  1.000000  1.000000  1.000000  1.000000
 FoFCou: FMM=F IPFlag=           0 FMFlag=      100000 FMFlg1=           0
         NFxFlg=           0 DoJE=T BraDBF=F KetDBF=T FulRan=T
         wScrn=  0.000000 ICntrl=       500 IOpCl=  0 I1Cent=   200000004 NGrid=           0
         NMat0=    1 NMatS0=      1 NMatT0=    0 NMatD0=    1 NMtDS0=    0 NMtDT0=    0
 Petite list used in FoFCou.
 Requested convergence on RMS density matrix=1.00D-08 within 128 cycles.
 Requested convergence on MAX density matrix=1.00D-06.
 Requested convergence on             energy=1.00D-06.
 No special actions if energy rises.
 SCF Done:  E(RB3LYP) =  -630.698495460     A.U. after   16 cycles
            NFock= 16  Conv=0.30D-08     -V/T= 2.0106

 **********************************************************************

            Population analysis using the SCF Density.

 **********************************************************************

 Orbital symmetries:
       Occupied  (A) (A) (A) (A) (A) (A) (A) (A) (A) (A) (A) (A)
                 (A) (A) (A) (A) (A) (A) (A) (A) (A) (A) (A) (A)
                 (A) (A) (A) (A) (A) (A) (A) (A) (A) (A) (A) (A)
                 (A) (A) (A) (A) (A) (A) (A) (A) (A) (A) (A) (A)
                 (A) (A) (A)
       Virtual   (A) (A) (A) (A) (A) (A) (A) (A) (A) (A) (A) (A)
                 (A) (A) (A) (A) (A) (A) (A) (A) (A) (A) (A) (A)
                 (A) (A) (A) (A) (A) (A) (A) (A) (A) (A) (A) (A)
                 (A) (A) (A) (A) (A) (A) (A) (A) (A) (A) (A) (A)
                 (A) (A) (A) (A) (A) (A) (A) (A) (A) (A) (A) (A)
                 (A) (A) (A) (A) (A) (A) (A) (A) (A) (A) (A) (A)
                 (A) (A) (A) (A) (A) (A) (A) (A) (A) (A) (A) (A)
                 (A) (A) (A) (A) (A) (A) (A) (A) (A) (A) (A) (A)
                 (A) (A) (A) (A) (A) (A) (A) (A) (A) (A) (A) (A)
                 (A) (A) (A) (A) (A) (A) (A) (A) (A) (A) (A) (A)
                 (A) (A) (A) (A) (A) (A) (A) (A) (A) (A) (A) (A)
                 (A) (A) (A) (A) (A) (A) (A) (A) (A) (A) (A) (A)
                 (A) (A) (A) (A) (A) (A) (A) (A) (A) (A) (A) (A)
                 (A) (A) (A) (A) (A) (A) (A) (A) (A) (A) (A) (A)
                 (A) (A) (A) (A) (A) (A) (A) (A) (A) (A) (A) (A)
                 (A) (A) (A) (A) (A) (A) (A) (A) (A) (A) (A) (A)
                 (A) (A) (A) (A) (A) (A) (A) (A) (A) (A) (A) (A)
                 (A) (A) (A) (A) (A) (A) (A) (A) (A) (A) (A) (A)
                 (A) (A) (A) (A) (A) (A) (A) (A) (A) (A) (A) (A)
                 (A) (A) (A) (A) (A) (A) (A) (A) (A) (A) (A) (A)
                 (A) (A) (A) (A) (A) (A) (A) (A) (A) (A) (A)
 The electronic state is 1-A.
 Alpha  occ. eigenvalues --  -19.20148 -14.35699 -10.30567 -10.28080 -10.27113
 Alpha  occ. eigenvalues --  -10.25293 -10.24518 -10.24220 -10.24217 -10.23292
 Alpha  occ. eigenvalues --  -10.21542 -10.21488 -10.21403 -10.21164 -10.20746
 Alpha  occ. eigenvalues --   -0.98620  -0.92418  -0.89946  -0.86950  -0.79765
 Alpha  occ. eigenvalues --   -0.79646  -0.77016  -0.75672  -0.66409  -0.65507
 Alpha  occ. eigenvalues --   -0.63229  -0.61539  -0.58556  -0.54902  -0.51043
 Alpha  occ. eigenvalues --   -0.50513  -0.50103  -0.47618  -0.47190  -0.46108
 Alpha  occ. eigenvalues --   -0.44128  -0.43495  -0.42559  -0.40449  -0.40006
 Alpha  occ. eigenvalues --   -0.38480  -0.37600  -0.37005  -0.36266  -0.35107
 Alpha  occ. eigenvalues --   -0.33878  -0.33293  -0.29712  -0.28805  -0.27331
 Alpha  occ. eigenvalues --   -0.24652
 Alpha virt. eigenvalues --   -0.06914  -0.05383  -0.04302  -0.02927  -0.02077
 Alpha virt. eigenvalues --   -0.00547   0.00241   0.01020   0.01397   0.02243
 Alpha virt. eigenvalues --    0.02533   0.03374   0.04285   0.04474   0.04848
 Alpha virt. eigenvalues --    0.05646   0.05709   0.06059   0.06705   0.07138
 Alpha virt. eigenvalues --    0.07258   0.07825   0.08563   0.08834   0.09741
 Alpha virt. eigenvalues --    0.10390   0.10985   0.11483   0.11752   0.12015
 Alpha virt. eigenvalues --    0.12432   0.12608   0.13167   0.13550   0.13632
 Alpha virt. eigenvalues --    0.14248   0.14373   0.15000   0.15566   0.16172
 Alpha virt. eigenvalues --    0.17257   0.17392   0.17802   0.18082   0.19289
 Alpha virt. eigenvalues --    0.19572   0.19609   0.20281   0.20632   0.20901
 Alpha virt. eigenvalues --    0.21593   0.21645   0.22351   0.22997   0.23205
 Alpha virt. eigenvalues --    0.23810   0.24318   0.24462   0.24855   0.25494
 Alpha virt. eigenvalues --    0.25741   0.26259   0.26901   0.27229   0.27698
 Alpha virt. eigenvalues --    0.27886   0.28834   0.29219   0.29696   0.29866
 Alpha virt. eigenvalues --    0.30373   0.30726   0.31013   0.31709   0.31936
 Alpha virt. eigenvalues --    0.33253   0.33952   0.34635   0.35957   0.36458
 Alpha virt. eigenvalues --    0.38017   0.38754   0.39347   0.40303   0.41720
 Alpha virt. eigenvalues --    0.43756   0.48797   0.53842   0.56123   0.57329
 Alpha virt. eigenvalues --    0.60056   0.61031   0.63094   0.64595   0.65559
 Alpha virt. eigenvalues --    0.65682   0.67360   0.68713   0.69406   0.69878
 Alpha virt. eigenvalues --    0.70782   0.71771   0.72248   0.72557   0.73152
 Alpha virt. eigenvalues --    0.73192   0.74382   0.75050   0.75578   0.75923
 Alpha virt. eigenvalues --    0.76339   0.77025   0.77925   0.79442   0.80536
 Alpha virt. eigenvalues --    0.82645   0.84914   0.86901   0.87919   0.89112
 Alpha virt. eigenvalues --    0.91657   0.92187   0.92659   0.93586   0.94363
 Alpha virt. eigenvalues --    0.95999   0.98843   1.00274   1.00426   1.01651
 Alpha virt. eigenvalues --    1.04367   1.04734   1.07338   1.08048   1.10904
 Alpha virt. eigenvalues --    1.11336   1.11558   1.11971   1.14518   1.14939
 Alpha virt. eigenvalues --    1.16998   1.17732   1.19052   1.19691   1.20708
 Alpha virt. eigenvalues --    1.21030   1.23235   1.23347   1.26528   1.27750
 Alpha virt. eigenvalues --    1.28613   1.31685   1.32417   1.33922   1.35949
 Alpha virt. eigenvalues --    1.38325   1.40676   1.41410   1.42240   1.42418
 Alpha virt. eigenvalues --    1.43524   1.45300   1.46274   1.46927   1.47585
 Alpha virt. eigenvalues --    1.48826   1.48999   1.51733   1.53066   1.54592
 Alpha virt. eigenvalues --    1.57937   1.67962   1.71401   1.74409   1.74718
 Alpha virt. eigenvalues --    1.75698   1.77604   1.80106   1.80922   1.83939
 Alpha virt. eigenvalues --    1.85331   1.88931   1.94220   1.94369   1.94821
 Alpha virt. eigenvalues --    1.95165   1.96310   1.96771   1.96943   1.99173
 Alpha virt. eigenvalues --    2.01606   2.05030   2.07172   2.07640   2.09614
 Alpha virt. eigenvalues --    2.10355   2.11553   2.12448   2.13232   2.15001
 Alpha virt. eigenvalues --    2.15735   2.19401   2.20159   2.23644   2.25696
 Alpha virt. eigenvalues --    2.26268   2.26673   2.28188   2.29185   2.37070
 Alpha virt. eigenvalues --    2.40632   2.47606   2.51006   2.58959   2.59334
 Alpha virt. eigenvalues --    2.60136   2.61577   2.62010   2.63209   2.66323
 Alpha virt. eigenvalues --    2.71202   2.71915   2.72162   2.73479   2.76507
 Alpha virt. eigenvalues --    2.77384   2.78808   2.84466   2.91274   3.00054
 Alpha virt. eigenvalues --    3.03727   3.06127   3.08608   3.20088   3.39752
 Alpha virt. eigenvalues --    3.40554   4.17259   4.20297   4.22509   4.23704
 Alpha virt. eigenvalues --    4.27063   4.28356   4.32091   4.35625   4.36370
 Alpha virt. eigenvalues --    4.37744   4.39911   4.45300   4.56030   4.72012
 Alpha virt. eigenvalues --    4.74984
          Condensed to atoms (all electrons):
               1          2          3          4          5          6
     1  C    5.323391   0.173795   0.121536  -0.689059   0.369597   0.413518
     2  C    0.173795   9.263268  -3.511751   0.497984  -0.419436   0.378814
     3  C    0.121536  -3.511751  11.144320  -0.616833  -1.156076  -0.639030
     4  C   -0.689059   0.497984  -0.616833   9.633052  -3.088512   0.105793
     5  C    0.369597  -0.419436  -1.156076  -3.088512  10.801238   0.210298
     6  C    0.413518   0.378814  -0.639030   0.105793   0.210298   5.385518
     7  H   -0.041316   0.356169  -0.031095   0.039799  -0.040403   0.012131
     8  H   -0.011187   0.019967  -0.020862   0.028862  -0.040538   0.320272
     9  O   -0.019139   0.030275  -0.145641   0.325871  -0.184011   0.027204
    10  C    0.011604  -0.209063   0.190820  -0.344193   0.362523  -0.043803
    11  C   -0.002747   0.150013  -0.272818   0.552269  -0.066819   0.040891
    12  C    0.006925  -0.430345  -0.314404   0.239925   0.132328  -0.036090
    13  C   -0.027676   0.160240   0.500032  -0.597344  -0.664648   0.027908
    14  C    0.001768   0.055055   0.119011   0.008538  -0.027267  -0.002846
    15  H    0.000020  -0.000046   0.003150  -0.002539  -0.002971  -0.000217
    16  C    0.002244  -0.026661  -0.094866   0.019946   0.026016  -0.001974
    17  H    0.000124   0.003486  -0.002324  -0.001893  -0.000439   0.000022
    18  H   -0.000002   0.000040   0.000119   0.000424  -0.000032   0.000006
    19  H    0.009309  -0.006220   0.092831   0.057584   0.069470   0.004189
    20  H   -0.007678  -0.009821  -0.019200   0.051828   0.002612   0.004267
    21  C   -0.000251   0.006509   0.023105  -0.075775  -0.010045   0.000082
    22  N    0.000001  -0.000118  -0.000505   0.000713   0.000045  -0.000001
    23  H    0.297748  -0.029142   0.053824  -0.009728   0.015656  -0.035037
    24  H    0.019258  -0.035850   0.075045   0.011516   0.284951  -0.061309
               7          8          9         10         11         12
     1  C   -0.041316  -0.011187  -0.019139   0.011604  -0.002747   0.006925
     2  C    0.356169   0.019967   0.030275  -0.209063   0.150013  -0.430345
     3  C   -0.031095  -0.020862  -0.145641   0.190820  -0.272818  -0.314404
     4  C    0.039799   0.028862   0.325871  -0.344193   0.552269   0.239925
     5  C   -0.040403  -0.040538  -0.184011   0.362523  -0.066819   0.132328
     6  C    0.012131   0.320272   0.027204  -0.043803   0.040891  -0.036090
     7  H    0.535225  -0.000178  -0.000292  -0.003765  -0.002826  -0.000519
     8  H   -0.000178   0.524762  -0.000159   0.000368   0.000159  -0.000097
     9  O   -0.000292  -0.000159   8.373988   0.302375   0.035946  -0.261980
    10  C   -0.003765   0.000368   0.302375  10.464753  -0.304255  -3.625204
    11  C   -0.002826   0.000159   0.035946  -0.304255  14.215700  -1.715701
    12  C   -0.000519  -0.000097  -0.261980  -3.625204  -1.715701  11.914863
    13  C    0.004765   0.000065  -0.047656  -0.061143  -8.036501   0.523952
    14  C    0.000035   0.000003   0.041468   1.276858   0.836650  -1.749817
    15  H    0.000000   0.000000  -0.001709   0.036611   0.049464   0.310060
    16  C    0.000077  -0.000001  -0.025845  -1.529765   1.692819   1.086705
    17  H    0.000000   0.000000  -0.000155   0.010228  -0.006250  -0.037567
    18  H    0.000000   0.000000  -0.000097   0.031233  -0.011077  -0.079679
    19  H   -0.008943   0.000015  -0.011729   0.037514   0.008227   0.005100
    20  H    0.000273   0.000000  -0.010838   0.064482   0.072391   0.022621
    21  C   -0.000003   0.000000  -0.003228  -0.423854  -1.606839   0.352599
    22  N    0.000000   0.000000  -0.000015   0.001765   0.061255  -0.004925
    23  H   -0.004591  -0.004753   0.000066   0.000636  -0.000463   0.000067
    24  H    0.000016  -0.005313  -0.004215  -0.002870   0.001636   0.000490
              13         14         15         16         17         18
     1  C   -0.027676   0.001768   0.000020   0.002244   0.000124  -0.000002
     2  C    0.160240   0.055055  -0.000046  -0.026661   0.003486   0.000040
     3  C    0.500032   0.119011   0.003150  -0.094866  -0.002324   0.000119
     4  C   -0.597344   0.008538  -0.002539   0.019946  -0.001893   0.000424
     5  C   -0.664648  -0.027267  -0.002971   0.026016  -0.000439  -0.000032
     6  C    0.027908  -0.002846  -0.000217  -0.001974   0.000022   0.000006
     7  H    0.004765   0.000035   0.000000   0.000077   0.000000   0.000000
     8  H    0.000065   0.000003   0.000000  -0.000001   0.000000   0.000000
     9  O   -0.047656   0.041468  -0.001709  -0.025845  -0.000155  -0.000097
    10  C   -0.061143   1.276858   0.036611  -1.529765   0.010228   0.031233
    11  C   -8.036501   0.836650   0.049464   1.692819  -0.006250  -0.011077
    12  C    0.523952  -1.749817   0.310060   1.086705  -0.037567  -0.079679
    13  C   17.339599  -2.858334  -0.027362  -2.305521   0.228554   0.052138
    14  C   -2.858334   9.328766  -0.071604  -0.332892   0.058368   0.285214
    15  H   -0.027362  -0.071604   0.493234   0.000193   0.000015  -0.004784
    16  C   -2.305521  -0.332892   0.000193   9.154412   0.068578   0.049305
    17  H    0.228554   0.058368   0.000015   0.068578   0.507580  -0.000155
    18  H    0.052138   0.285214  -0.004784   0.049305  -0.000155   0.496130
    19  H   -0.069099   0.005689   0.000004   0.003405   0.000315   0.000000
    20  H    0.079539   0.010960  -0.000196  -0.034938  -0.007920   0.000014
    21  C    2.123859  -0.701277   0.000892  -3.149647  -0.031607  -0.035323
    22  N   -0.138973  -0.013274  -0.000007   0.425386   0.000862   0.000559
    23  H   -0.000142  -0.000002   0.000000  -0.000002   0.000000   0.000000
    24  H    0.000003  -0.000126   0.000000   0.000060   0.000000   0.000000
              19         20         21         22         23         24
     1  C    0.009309  -0.007678  -0.000251   0.000001   0.297748   0.019258
     2  C   -0.006220  -0.009821   0.006509  -0.000118  -0.029142  -0.035850
     3  C    0.092831  -0.019200   0.023105  -0.000505   0.053824   0.075045
     4  C    0.057584   0.051828  -0.075775   0.000713  -0.009728   0.011516
     5  C    0.069470   0.002612  -0.010045   0.000045   0.015656   0.284951
     6  C    0.004189   0.004267   0.000082  -0.000001  -0.035037  -0.061309
     7  H   -0.008943   0.000273  -0.000003   0.000000  -0.004591   0.000016
     8  H    0.000015   0.000000   0.000000   0.000000  -0.004753  -0.005313
     9  O   -0.011729  -0.010838  -0.003228  -0.000015   0.000066  -0.004215
    10  C    0.037514   0.064482  -0.423854   0.001765   0.000636  -0.002870
    11  C    0.008227   0.072391  -1.606839   0.061255  -0.000463   0.001636
    12  C    0.005100   0.022621   0.352599  -0.004925   0.000067   0.000490
    13  C   -0.069099   0.079539   2.123859  -0.138973  -0.000142   0.000003
    14  C    0.005689   0.010960  -0.701277  -0.013274  -0.000002  -0.000126
    15  H    0.000004  -0.000196   0.000892  -0.000007   0.000000   0.000000
    16  C    0.003405  -0.034938  -3.149647   0.425386  -0.000002   0.000060
    17  H    0.000315  -0.007920  -0.031607   0.000862   0.000000   0.000000
    18  H    0.000000   0.000014  -0.035323   0.000559   0.000000   0.000000
    19  H    0.672539  -0.001511  -0.000891   0.000002  -0.000199  -0.000196
    20  H   -0.001511   0.624444  -0.004646   0.000002   0.000001   0.000004
    21  C   -0.000891  -0.004646   9.910332  -0.071169   0.000000   0.000002
    22  N    0.000002   0.000002  -0.071169   7.232106   0.000000   0.000000
    23  H   -0.000199   0.000001   0.000000   0.000000   0.535580  -0.000150
    24  H   -0.000196   0.000004   0.000002   0.000000  -0.000150   0.516338
 Mulliken charges:
               1
     1  C    0.048216
     2  C   -0.417162
     3  C    0.501611
     4  C   -0.148226
     5  C   -0.573538
     6  C   -0.110606
     7  H    0.185442
     8  H    0.188614
     9  O   -0.420486
    10  C   -0.243855
    11  C    0.308874
    12  C   -0.339309
    13  C   -0.206252
    14  C   -0.270942
    15  H    0.217794
    16  C    0.972964
    17  H    0.210178
    18  H    0.215968
    19  H    0.132595
    20  H    0.163310
    21  C   -0.302826
    22  N   -0.493709
    23  H    0.180633
    24  H    0.200712
 Sum of Mulliken charges =   0.00000
 Mulliken charges with hydrogens summed into heavy atoms:
               1
     1  C    0.228849
     2  C   -0.231720
     3  C    0.634206
     4  C   -0.148226
     5  C   -0.372826
     6  C    0.078009
     9  O   -0.420486
    10  C   -0.243855
    11  C    0.472184
    12  C   -0.121515
    13  C    0.003925
    14  C   -0.054974
    16  C    0.972964
    21  C   -0.302826
    22  N   -0.493709
 Electronic spatial extent (au):  <R**2>=           4623.3679
 Charge=              0.0000 electrons
 Dipole moment (field-independent basis, Debye):
    X=              4.0191    Y=              0.2905    Z=              0.1475  Tot=              4.0323
 Quadrupole moment (field-independent basis, Debye-Ang):
   XX=           -106.6654   YY=            -79.6392   ZZ=            -92.8792
   XY=            -12.9722   XZ=             -2.3714   YZ=             -1.7476
 Traceless Quadrupole moment (field-independent basis, Debye-Ang):
   XX=            -13.6042   YY=             13.4221   ZZ=              0.1821
   XY=            -12.9722   XZ=             -2.3714   YZ=             -1.7476
 Octapole moment (field-independent basis, Debye-Ang**2):
  XXX=            295.7516  YYY=              6.1440  ZZZ=              0.2192  XYY=             10.4169
  XXY=             72.2146  XXZ=              2.2830  XZZ=             -5.4706  YZZ=              1.9306
  YYZ=              0.1098  XYZ=              2.6507
 Hexadecapole moment (field-independent basis, Debye-Ang**3):
 XXXX=          -6808.4541 YYYY=           -710.6897 ZZZZ=           -122.4197 XXXY=           -402.0809
 XXXZ=           -100.0294 YYYX=            -53.7357 YYYZ=             -7.6172 ZZZX=              3.4218
 ZZZY=              0.0406 XXYY=          -1047.6815 XXZZ=          -1037.1283 YYZZ=           -162.2917
 XXYZ=            -25.1114 YYXZ=             -4.3739 ZZXY=              6.7268
 N-N= 8.053658803936D+02 E-N=-3.072682557445D+03  KE= 6.240623351842D+02
 Evaluate density.
 Using the total density.
 Monte-Carlo method of calculating molar volume:
 based on  0.001 e/bohr**3 density envelope.
 Number of points per bohr**3 =   20 CutOff= 1.00D-04
 Using the SCF density.
 There are       409 points.  Will hold       409 in memory.
 LenV=  4026314165 MDV=  4026531840.
 Box volume = 8572.140 fraction occupied=0.186
 Integrated density= 4.1629645241676762D+01 error=-6.0370354758323238D+01
 Molar volume = 1592.867 bohr**3/mol (142.146 cm**3/mol)
 Recommended a0 for SCRF calculation =  4.72 angstrom (  8.92 bohr)
 Calling FoFJK, ICntrl=      2127 FMM=F ISym2X=0 I1Cent= 0 IOpClX= 0 NMat=1 NMatS=1 NMatT=0.
 ***** Axes restored to original set *****
 -------------------------------------------------------------------
 Center     Atomic                   Forces (Hartrees/Bohr)
 Number     Number              X              Y              Z
 -------------------------------------------------------------------
      1        6           0.002101143    0.010827074   -0.003406325
      2        6           0.004558896    0.010132791    0.016603023
      3        6          -0.001001966   -0.010299837    0.014547751
      4        6           0.006117625    0.043260256   -0.040030774
      5        6           0.001075891    0.009547392   -0.007314115
      6        6          -0.001849752    0.005533972   -0.021387853
      7        1          -0.002845770   -0.006623996   -0.009527258
      8        1           0.001077407   -0.002082895    0.011369736
      9        8          -0.001857287   -0.000449867   -0.028751064
     10        6          -0.002934976   -0.061797455    0.034207983
     11        6           0.003444553    0.019958608   -0.007221044
     12        6          -0.004530772   -0.011649123    0.014234981
     13        6           0.000859176    0.007951277    0.010770388
     14        6          -0.007937093   -0.013673702    0.002477467
     15        1           0.003782506    0.006178309    0.009048859
     16        6           0.007004535    0.015238765   -0.043859612
     17        1          -0.002707559   -0.006880496   -0.008337658
     18        1           0.003877271    0.010064128    0.000144369
     19        1          -0.002459464   -0.021892049    0.012662440
     20        1           0.000823671    0.017968710   -0.016874112
     21        6          -0.008160539   -0.020494258    0.056401468
     22        7           0.000786412    0.002061255   -0.005734651
     23        1          -0.002297658   -0.011488250    0.002449248
     24        1           0.003073749    0.008609391    0.007526752
 -------------------------------------------------------------------
 Cartesian Forces:  Max     0.061797455 RMS     0.016743683

 GradGradGradGradGradGradGradGradGradGradGradGradGradGradGradGradGradGrad
 Berny optimization.
 FormGI is forming the generalized inverse of G from B-inverse, IUseBI=4.
 Internal  Forces:  Max     0.463612851 RMS     0.069763911
 Search for a local minimum.
 Step number   1 out of a maximum of  122
 All quantities printed in internal units (Hartrees-Bohrs-Radians)
 Mixed Optimization -- RFO/linear search
 Second derivative matrix not updated -- first step.
 ITU=  0
     Eigenvalues ---    0.00230   0.00499   0.00499   0.01714   0.01785
     Eigenvalues ---    0.02070   0.02070   0.02070   0.02070   0.02070
     Eigenvalues ---    0.02070   0.02070   0.02070   0.02070   0.02070
     Eigenvalues ---    0.02070   0.02070   0.02070   0.02070   0.02070
     Eigenvalues ---    0.04867   0.04867   0.10923   0.16000   0.16000
     Eigenvalues ---    0.16000   0.16000   0.16000   0.16000   0.16000
     Eigenvalues ---    0.16000   0.16000   0.16000   0.16000   0.22000
     Eigenvalues ---    0.22000   0.22000   0.22835   0.23485   0.23883
     Eigenvalues ---    0.25000   0.25000   0.27457   0.28519   0.37230
     Eigenvalues ---    0.37230   0.37230   0.37230   0.37230   0.37230
     Eigenvalues ---    0.37230   0.37230   0.37230   0.41268   0.41268
     Eigenvalues ---    0.41459   0.42077   0.45389   0.45389   0.45389
     Eigenvalues ---    0.45389   0.45389   0.45389   0.45389   0.45389
     Eigenvalues ---    1.27794
 RFO step:  Lambda=-6.59920861D-01 EMin= 2.30000000D-03
 Linear search not attempted -- first point.
 Maximum step size (   0.300) exceeded in Quadratic search.
    -- Step size scaled by   0.337
 Iteration  1 RMS(Cart)=  0.20898956 RMS(Int)=  0.01806169
 Iteration  2 RMS(Cart)=  0.24569079 RMS(Int)=  0.00961333
 Iteration  3 RMS(Cart)=  0.09318661 RMS(Int)=  0.00083568
 Iteration  4 RMS(Cart)=  0.00162889 RMS(Int)=  0.00002802
 Iteration  5 RMS(Cart)=  0.00000067 RMS(Int)=  0.00002802
 Variable       Old X    -DE/DX   Delta X   Delta X   Delta X     New X
                                 (Linear)    (Quad)   (Total)
    R1        2.64826   0.00218   0.00000   0.00080   0.00080   2.64906
    R2        2.64826   0.02131   0.00000   0.00678   0.00677   2.65503
    R3        2.02201   0.01197   0.00000   0.00390   0.00390   2.02591
    R4        2.64826  -0.02025   0.00000  -0.00632  -0.00630   2.64196
    R5        2.02201   0.01190   0.00000   0.00388   0.00388   2.02589
    R6        2.64826  -0.03737   0.00000  -0.01163  -0.01162   2.63664
    R7        2.02201  -0.07316   0.00000  -0.02386  -0.02386   1.99815
    R8        2.64826  -0.01916   0.00000  -0.00593  -0.00593   2.64233
    R9        2.93342   0.00496   0.00000   0.00179   0.00179   2.93521
   R10        2.64826   0.01328   0.00000   0.00421   0.00419   2.65246
   R11        2.02201   0.01171   0.00000   0.00382   0.00382   2.02583
   R12        2.02201   0.01145   0.00000   0.00373   0.00373   2.02574
   R13        2.64826  -0.01297   0.00000  -0.00413  -0.00412   2.64414
   R14        2.64826  -0.01951   0.00000  -0.00598  -0.00598   2.64228
   R15        2.64826  -0.02126   0.00000  -0.00656  -0.00654   2.64172
   R16        2.02201  -0.06022   0.00000  -0.01964  -0.01964   2.00237
   R17        2.64826   0.00740   0.00000   0.00236   0.00235   2.65061
   R18        2.02201   0.01152   0.00000   0.00376   0.00376   2.02576
   R19        2.64826   0.00154   0.00000   0.00055   0.00055   2.64881
   R20        2.02201   0.01113   0.00000   0.00363   0.00363   2.02564
   R21        2.64826   0.01725   0.00000   0.00542   0.00541   2.65367
   R22        2.02201   0.01065   0.00000   0.00347   0.00347   2.02548
   R23        2.91018  -0.05442   0.00000  -0.01938  -0.01938   2.89080
   R24        2.26923  -0.05541   0.00000  -0.02425  -0.02425   2.24498
   R25        2.19208   0.00614   0.00000   0.00107   0.00107   2.19315
    A1        2.09440  -0.00208   0.00000  -0.00019  -0.00020   2.09419
    A2        2.09440   0.00110   0.00000   0.00012   0.00012   2.09452
    A3        2.09440   0.00098   0.00000   0.00007   0.00008   2.09447
    A4        2.09440  -0.04022   0.00000  -0.01548  -0.01546   2.07894
    A5        2.09440   0.02121   0.00000   0.00819   0.00818   2.10258
    A6        2.09440   0.01901   0.00000   0.00729   0.00728   2.10167
    A7        2.09440   0.05468   0.00000   0.02021   0.02024   2.11464
    A8        2.09440   0.16857   0.00000   0.07033   0.07031   2.16471
    A9        2.09440  -0.22325   0.00000  -0.09053  -0.09055   2.00384
   A10        2.09440  -0.00408   0.00000  -0.00212  -0.00210   2.09229
   A11        2.09440  -0.03948   0.00000  -0.01430  -0.01431   2.08009
   A12        2.09440   0.04356   0.00000   0.01642   0.01641   2.11081
   A13        2.09440  -0.02344   0.00000  -0.00890  -0.00892   2.08547
   A14        2.09440   0.00997   0.00000   0.00373   0.00374   2.09814
   A15        2.09440   0.01347   0.00000   0.00517   0.00518   2.09957
   A16        2.09440   0.01513   0.00000   0.00648   0.00644   2.10084
   A17        2.09440  -0.00563   0.00000  -0.00244  -0.00243   2.09197
   A18        2.09440  -0.00950   0.00000  -0.00403  -0.00402   2.09038
   A19        2.09440  -0.00605   0.00000  -0.00275  -0.00274   2.09166
   A20        2.09440   0.04493   0.00000   0.01677   0.01679   2.11119
   A21        2.09440  -0.18109   0.00000  -0.07351  -0.07353   2.02087
   A22        2.09440   0.13616   0.00000   0.05674   0.05672   2.15112
   A23        2.09440  -0.01723   0.00000  -0.00651  -0.00652   2.08787
   A24        2.09440   0.00859   0.00000   0.00324   0.00325   2.09765
   A25        2.09440   0.00864   0.00000   0.00326   0.00327   2.09767
   A26        2.09440  -0.03651   0.00000  -0.01401  -0.01399   2.08040
   A27        2.09440   0.01764   0.00000   0.00675   0.00674   2.10114
   A28        2.09440   0.01888   0.00000   0.00726   0.00725   2.10165
   A29        2.09440   0.01115   0.00000   0.00473   0.00470   2.09910
   A30        2.09440  -0.00732   0.00000  -0.00308  -0.00307   2.09133
   A31        2.09440  -0.00383   0.00000  -0.00165  -0.00164   2.09276
   A32        2.09440   0.00372   0.00000   0.00176   0.00175   2.09615
   A33        2.09440  -0.00167   0.00000  -0.00081  -0.00081   2.09359
   A34        2.09440  -0.00205   0.00000  -0.00095  -0.00095   2.09345
   A35        2.54074  -0.46361   0.00000  -0.19034  -0.19034   2.35040
   A36        2.58185  -0.40357   0.00000  -0.16569  -0.16569   2.41616
   A37        3.14159  -0.00013   0.00000  -0.00006  -0.00006   3.14153
   A38        3.14159  -0.00013   0.00000  -0.00006  -0.00006   3.14153
    D1        0.00000  -0.00037   0.00000  -0.00018  -0.00019  -0.00019
    D2       -3.14159   0.00000   0.00000   0.00000  -0.00001   3.14159
    D3       -3.14159  -0.00032   0.00000  -0.00016  -0.00016   3.14144
    D4        0.00000   0.00005   0.00000   0.00003   0.00002   0.00003
    D5        0.00000  -0.00031   0.00000  -0.00015  -0.00015  -0.00015
    D6        3.14159   0.00015   0.00000   0.00008   0.00008  -3.14152
    D7        3.14159  -0.00036   0.00000  -0.00018  -0.00018   3.14141
    D8        0.00000   0.00010   0.00000   0.00005   0.00005   0.00004
    D9        0.00000   0.00096   0.00000   0.00047   0.00048   0.00048
   D10       -3.14159  -0.00023   0.00000  -0.00011  -0.00014   3.14146
   D11        3.14159   0.00058   0.00000   0.00029   0.00030  -3.14130
   D12        0.00000  -0.00060   0.00000  -0.00030  -0.00032  -0.00032
   D13        0.00000  -0.00086   0.00000  -0.00043  -0.00043  -0.00043
   D14        3.14159  -0.00202   0.00000  -0.00100  -0.00099   3.14060
   D15        3.14159   0.00032   0.00000   0.00016   0.00014  -3.14146
   D16        0.00000  -0.00084   0.00000  -0.00042  -0.00043  -0.00043
   D17        3.08065  -0.00623   0.00000  -0.00316  -0.00316   3.07748
   D18       -0.06095  -0.00741   0.00000  -0.00374  -0.00374  -0.06469
   D19        0.00000   0.00018   0.00000   0.00009   0.00008   0.00008
   D20       -3.14159  -0.00015   0.00000  -0.00008  -0.00008   3.14152
   D21       -3.14159   0.00134   0.00000   0.00066   0.00066  -3.14093
   D22        0.00000   0.00101   0.00000   0.00050   0.00050   0.00050
   D23        0.00000   0.00041   0.00000   0.00020   0.00020   0.00020
   D24       -3.14159  -0.00005   0.00000  -0.00003  -0.00002   3.14157
   D25       -3.14159   0.00074   0.00000   0.00036   0.00036  -3.14123
   D26        0.00000   0.00028   0.00000   0.00014   0.00013   0.00014
   D27        0.00000   0.00450   0.00000   0.00224   0.00222   0.00223
   D28       -3.14159  -0.00478   0.00000  -0.00238  -0.00219   3.13941
   D29        0.00000  -0.00136   0.00000  -0.00068  -0.00062  -0.00062
   D30        3.14159  -0.00062   0.00000  -0.00031  -0.00029   3.14131
   D31        0.00000  -0.00469   0.00000  -0.00233  -0.00234  -0.00234
   D32        3.14159  -0.00393   0.00000  -0.00196  -0.00199   3.13960
   D33        3.14159   0.00460   0.00000   0.00229   0.00241  -3.13919
   D34        0.00000   0.00535   0.00000   0.00266   0.00276   0.00276
   D35       -0.46463   0.03191   0.00000   0.01611   0.01607  -0.44857
   D36        2.67696   0.02262   0.00000   0.01149   0.01154   2.68850
   D37        0.00000  -0.00160   0.00000  -0.00079  -0.00081  -0.00082
   D38        3.14159   0.00019   0.00000   0.00010   0.00007  -3.14152
   D39        3.14159  -0.00234   0.00000  -0.00116  -0.00115   3.14044
   D40        0.00000  -0.00055   0.00000  -0.00027  -0.00026  -0.00026
   D41        0.00000   0.00173   0.00000   0.00086   0.00088   0.00088
   D42       -3.14159   0.00114   0.00000   0.00057   0.00056  -3.14103
   D43       -3.14159   0.00097   0.00000   0.00049   0.00053  -3.14106
   D44        0.00000   0.00038   0.00000   0.00019   0.00021   0.00021
   D45        0.00000   0.00141   0.00000   0.00070   0.00068   0.00069
   D46       -3.14159   0.00201   0.00000   0.00100   0.00100  -3.14059
   D47       -3.14159  -0.00038   0.00000  -0.00019  -0.00020   3.14139
   D48        0.00000   0.00022   0.00000   0.00011   0.00011   0.00011
   D49        0.43564  -0.03109   0.00000  -0.01580  -0.01580   0.41984
         Item               Value     Threshold  Converged?
 Maximum Force            0.463613     0.000450     NO 
 RMS     Force            0.069764     0.000300     NO 
 Maximum Displacement     1.871707     0.001800     NO 
 RMS     Displacement     0.542508     0.001200     NO 
 Predicted change in Energy=-2.146834D-01
 GradGradGradGradGradGradGradGradGradGradGradGradGradGradGradGradGradGrad

                          Input orientation:                          
 ---------------------------------------------------------------------
 Center     Atomic      Atomic             Coordinates (Angstroms)
 Number     Number       Type             X           Y           Z
 ---------------------------------------------------------------------
      1          6           0       -4.606387    0.107274   -0.290883
      2          6           0       -4.828813    0.231049   -1.669403
      3          6           0       -4.650711    1.477033   -2.277999
      4          6           0       -4.256645    2.592254   -1.537916
      5          6           0       -4.033844    2.472418   -0.162731
      6          6           0       -4.209772    1.226742    0.459755
      7          1           0       -5.131614   -0.618071   -2.249580
      8          1           0       -4.040176    1.129760    1.513777
      9          8           0       -4.071174    3.954208   -2.261279
     10          6           0       -3.989823    4.104593   -2.742608
     11          6           0       -4.302913    3.580275   -4.001530
     12          6           0       -3.387508    5.362509   -2.642958
     13          6           0       -4.019997    4.295238   -5.169013
     14          6           0       -3.101346    6.088551   -3.808456
     15          1           0       -3.145521    5.769590   -1.681249
     16          6           0       -3.416342    5.556339   -5.069203
     17          1           0       -4.262165    3.883946   -6.128807
     18          1           0       -2.639612    7.053099   -3.735761
     19          1           0       -4.796541    1.657970   -3.309520
     20          1           0       -4.755519    2.622196   -4.002278
     21          6           0       -3.099780    6.353990   -6.335559
     22          7           0       -2.859691    6.959112   -7.296337
     23          1           0       -4.738863   -0.841422    0.190522
     24          1           0       -3.730872    3.325755    0.411077
 ---------------------------------------------------------------------
                    Distance matrix (angstroms):
                    1          2          3          4          5
     1  C    0.000000
     2  C    1.401823   0.000000
     3  C    2.413883   1.398065   0.000000
     4  C    2.802238   2.433096   1.395252   0.000000
     5  C    2.436829   2.815275   2.417783   1.398261   0.000000
     6  C    1.404980   2.430623   2.784307   2.420229   1.403620
     7  H    2.153713   1.072053   2.149776   3.402679   3.887307
     8  H    2.150087   3.400333   3.856283   3.390956   2.147895
     9  O    4.355205   3.845289   2.544118   1.553245   2.569241
    10  C    4.729658   4.106096   2.748947   1.951832   3.053146
    11  C    5.091437   4.114937   2.741377   2.654754   4.004513
    12  C    5.885185   5.418214   4.101926   3.106578   3.862887
    13  C    6.455931   5.423937   4.086324   4.017589   5.327825
    14  C    7.100291   6.470705   5.099895   4.325986   5.218934
    15  H    6.010746   5.788700   4.587783   3.369066   3.737159
    16  C    7.344444   6.473981   5.094627   4.686352   5.827979
    17  H    6.961544   5.792325   4.557732   4.769149   6.135031
    18  H    7.998742   7.456729   6.104269   5.229192   5.974367
    19  H    3.398968   2.174197   1.057375   2.074356   3.338759
    20  H    4.485702   3.341447   2.072565   2.514528   3.909651
    21  C    8.822099   7.890055   6.530995   6.205350   7.351386
    22  N    9.953643   8.989253   7.644911   7.360730   8.508666
    23  H    1.072066   2.148861   3.387712   3.874295   3.406372
    24  H    3.408503   3.887296   3.390428   2.147797   1.072021
                    6          7          8          9         10
     6  C    0.000000
     7  H    3.404940   0.000000
     8  H    1.071976   4.290572   0.000000
     9  O    3.855166   4.693656   4.714819   0.000000
    10  C    4.311094   4.883679   5.193167   0.510795   0.000000
    11  C    5.044884   4.624087   6.040916   1.794994   1.399221
    12  C    5.235218   6.242114   5.968298   1.611331   1.398236
    13  C    6.413634   5.822318   7.394616   2.928111   2.434069
    14  C    6.563796   7.178500   7.334655   2.808869   2.421056
    15  H    5.133614   6.713403   5.704088   2.118698   2.147451
    16  C    7.067129   7.001127   7.957349   3.298495   2.801694
    17  H    7.104409   6.006039   8.126741   3.872879   3.404291
    18  H    7.349435   8.201564   8.037734   3.718413   3.391623
    19  H    3.838969   2.533004   4.910732   2.626342   2.637830
    20  H    4.706896   3.703070   5.758989   2.296445   2.090589
    21  C    8.584698   8.332659   9.475706   4.827247   4.331427
    22  N    9.738570   9.383235  10.629817   5.987399   5.491987
    23  H    2.151679   2.481579   2.474819   5.427264   5.798912
    24  H    2.153501   4.959327   2.476693   2.766269   3.258738
                   11         12         13         14         15
    11  C    0.000000
    12  C    2.420752   0.000000
    13  C    1.397938   2.814260   0.000000
    14  C    2.787919   1.402644   2.431256   0.000000
    15  H    3.393577   1.071988   3.886247   2.151440   0.000000
    16  C    2.414698   2.434146   1.401691   1.404264   3.405445
    17  H    2.149229   3.886170   1.071920   3.404676   4.958158
    18  H    3.859756   2.147478   3.400804   1.071837   2.474744
    19  H    2.101857   4.019115   3.319023   4.769976   4.720440
    20  H    1.059607   3.350898   2.168256   3.845709   4.229109
    21  C    3.819518   3.834205   2.538915   2.541006   4.691079
    22  N    4.935097   4.947896   3.601117   3.602998   5.746815
    23  H    6.108580   6.952950   7.458328   8.166872   7.053208
    24  H    4.456805   3.686922   5.671057   5.082696   3.269984
                   16         17         18         19         20
    16  C    0.000000
    17  H    2.152923   0.000000
    18  H    2.149806   4.289858   0.000000
    19  H    4.494298   3.631653   5.825928   0.000000
    20  H    3.397193   2.521416   4.917418   1.187993   0.000000
    21  C    1.529744   2.737700   2.731201   5.838537   4.702335
    22  N    2.690308   3.575851   3.568609   6.910008   5.766613
    23  H    8.387199   7.905078   9.063443   4.301230   5.438428
    24  H    5.925192   6.585130   5.681567   4.214261   4.585041
                   21         22         23         24
    21  C    0.000000
    22  N    1.160565   0.000000
    23  H    9.851409  10.974182   0.000000
    24  H    7.421966   8.565306   4.293023   0.000000
 Stoichiometry    C13H9NO
 Framework group  C1[X(C13H9NO)]
 Deg. of freedom    66
 Full point group                 C1      NOp   1
 Largest Abelian subgroup         C1      NOp   1
 Largest concise Abelian subgroup C1      NOp   1
                         Standard orientation:                         
 ---------------------------------------------------------------------
 Center     Atomic      Atomic             Coordinates (Angstroms)
 Number     Number       Type             X           Y           Z
 ---------------------------------------------------------------------
      1          6           0        4.373052   -0.572117   -0.239691
      2          6           0        3.357629   -1.527534   -0.094077
      3          6           0        2.038488   -1.097442    0.077600
      4          6           0        1.719753    0.260632    0.105380
      5          6           0        2.730048    1.216359   -0.039619
      6          6           0        4.058357    0.796891   -0.212217
      7          1           0        3.589069   -2.574120   -0.113863
      8          1           0        4.836455    1.525752   -0.323834
      9          8           0        0.238600    0.687111    0.297395
     10          6           0       -0.217159    0.466308    0.230746
     11          6           0       -0.685044   -0.851771    0.270395
     12          6           0       -1.119661    1.520091    0.057268
     13          6           0       -2.047237   -1.135740    0.136152
     14          6           0       -2.488674    1.245632   -0.076468
     15          1           0       -0.767242    2.532021    0.026343
     16          6           0       -2.952059   -0.079404   -0.037597
     17          1           0       -2.395369   -2.149111    0.166087
     18          1           0       -3.183287    2.050994   -0.209662
     19          1           0        1.214084   -1.749176    0.194404
     20          1           0        0.054048   -1.599500    0.402348
     21          6           0       -4.446573   -0.370366   -0.185527
     22          7           0       -5.580404   -0.591174   -0.297696
     23          1           0        5.389565   -0.885985   -0.372020
     24          1           0        2.491192    2.261232   -0.019166
 ---------------------------------------------------------------------
 Rotational constants (GHZ):           2.4913212           0.2874010           0.2595296
 Standard basis: 6-31+G(d) (6D, 7F)
 There are   303 symmetry adapted cartesian basis functions of A   symmetry.
 There are   303 symmetry adapted basis functions of A   symmetry.
   303 basis functions,   516 primitive gaussians,   303 cartesian basis functions
    51 alpha electrons       51 beta electrons
       nuclear repulsion energy       890.0645179980 Hartrees.
 NAtoms=   24 NActive=   24 NUniq=   24 SFac= 1.00D+00 NAtFMM=   60 NAOKFM=F Big=F
 Integral buffers will be    131072 words long.
 Raffenetti 2 integral format.
 Two-electron integral symmetry is turned on.
 Nuclear repulsion after empirical dispersion term =      890.0466750718 Hartrees.
 One-electron integrals computed using PRISM.
 NBasis=   303 RedAO= T EigKep=  1.02D-06  NBF=   303
 NBsUse=   302 1.00D-06 EigRej=  3.36D-07 NBFU=   302
 Initial guess from the checkpoint file:  "molecule_85.chk"
 B after Tr=     0.000000    0.000000    0.000000
         Rot=    0.998746   -0.049751   -0.000183   -0.005552 Ang=  -5.74 deg.
 ExpMin= 4.38D-02 ExpMax= 5.48D+03 ExpMxC= 8.25D+02 IAcc=3 IRadAn=         5 AccDes= 0.00D+00
 Harris functional with IExCor=  402 and IRadAn=       5 diagonalized for initial guess.
 HarFok:  IExCor=  402 AccDes= 0.00D+00 IRadAn=         5 IDoV= 1 UseB2=F ITyADJ=14
 ICtDFT=  3500011 ScaDFX=  1.000000  1.000000  1.000000  1.000000
 FoFCou: FMM=F IPFlag=           0 FMFlag=      100000 FMFlg1=           0
         NFxFlg=           0 DoJE=T BraDBF=F KetDBF=T FulRan=T
         wScrn=  0.000000 ICntrl=       500 IOpCl=  0 I1Cent=   200000004 NGrid=           0
         NMat0=    1 NMatS0=      1 NMatT0=    0 NMatD0=    1 NMtDS0=    0 NMtDT0=    0
 Petite list used in FoFCou.
 Requested convergence on RMS density matrix=1.00D-08 within 128 cycles.
 Requested convergence on MAX density matrix=1.00D-06.
 Requested convergence on             energy=1.00D-06.
 No special actions if energy rises.
 EnCoef did     4 forward-backward iterations
 Restarting incremental Fock formation.
 SCF Done:  E(RB3LYP) =  -624.767482700     A.U. after   21 cycles
            NFock= 21  Conv=0.46D-08     -V/T= 1.9795
 Calling FoFJK, ICntrl=      2127 FMM=F ISym2X=0 I1Cent= 0 IOpClX= 0 NMat=1 NMatS=1 NMatT=0.
 ***** Axes restored to original set *****
 -------------------------------------------------------------------
 Center     Atomic                   Forces (Hartrees/Bohr)
 Number     Number              X              Y              Z
 -------------------------------------------------------------------
      1        6           0.001841678    0.013794479   -0.006676388
      2        6           0.006849434    0.010702733    0.016529218
      3        6          -0.000999212   -0.006065949    0.006367712
      4        6          -0.025989208   -0.070445568    0.078978105
      5        6          -0.003693840   -0.000567690   -0.014131730
      6        6          -0.000980218   -0.000252330   -0.015587058
      7        1          -0.002931794   -0.006611270   -0.006957466
      8        1           0.002217694    0.000197399    0.009903046
      9        8          -3.093291811   -5.890119349   17.994889404
     10        6           2.998084136    5.676692878  -17.770844730
     11        6          -0.000007261    0.012829800   -0.166430949
     12        6           0.129124995    0.279345849   -0.169455943
     13        6           0.000484090   -0.001780972    0.027332010
     14        6          -0.000834680   -0.005461313    0.032274029
     15        1          -0.005354736   -0.009460688    0.017447582
     16        6           0.011768322    0.029683917   -0.058963547
     17        1          -0.002821481   -0.003791379   -0.009834724
     18        1           0.006032926    0.013741971   -0.003803537
     19        1          -0.005906654   -0.036094061    0.007080271
     20        1          -0.003177428    0.021759248   -0.024971868
     21        6          -0.014042419   -0.035996306    0.056658909
     22        7           0.002757277    0.007061929   -0.011250967
     23        1          -0.001436911   -0.008678408    0.005029596
     24        1           0.002307099    0.009515079    0.006419026
 -------------------------------------------------------------------
 Cartesian Forces:  Max    17.994889404 RMS     3.173837440

 GradGradGradGradGradGradGradGradGradGradGradGradGradGradGradGradGradGrad
 Berny optimization.
 Using GEDIIS/GDIIS optimizer.
 FormGI is forming the generalized inverse of G from B-inverse, IUseBI=4.
 Internal  Forces:  Max    91.663979695 RMS    13.346233415
 Search for a local minimum.
 Step number   2 out of a maximum of  122
 All quantities printed in internal units (Hartrees-Bohrs-Radians)
 Mixed Optimization -- RFO/linear search
 Update second derivatives using D2CorX and points    2    1
 DE=  5.93D+00 DEPred=-2.15D-01 R=-2.76D+01
 Trust test=-2.76D+01 RLast= 3.01D-01 DXMaxT set to 1.50D-01
 ITU= -1  0
 Use linear search instead of GDIIS.
     Eigenvalues ---    0.00226   0.00492   0.00501   0.01728   0.01791
     Eigenvalues ---    0.02066   0.02070   0.02070   0.02070   0.02070
     Eigenvalues ---    0.02070   0.02070   0.02070   0.02070   0.02070
     Eigenvalues ---    0.02070   0.02070   0.02070   0.02070   0.02070
     Eigenvalues ---    0.04867   0.04867   0.10932   0.15618   0.16000
     Eigenvalues ---    0.16000   0.16000   0.16000   0.16000   0.16000
     Eigenvalues ---    0.16000   0.16000   0.16000   0.21827   0.21960
     Eigenvalues ---    0.22000   0.22816   0.23467   0.23854   0.24601
     Eigenvalues ---    0.25000   0.27234   0.28340   0.36629   0.37102
     Eigenvalues ---    0.37230   0.37230   0.37230   0.37230   0.37230
     Eigenvalues ---    0.37230   0.37230   0.41056   0.41195   0.41430
     Eigenvalues ---    0.41911   0.45171   0.45346   0.45389   0.45389
     Eigenvalues ---    0.45389   0.45389   0.45389   0.45389   1.27781
     Eigenvalues ---  496.74187
 RFO could not converge Lambda in  999 iterations.
 Quartic linear search produced a step of -0.47354.
 Iteration  1 RMS(Cart)=  0.20012111 RMS(Int)=  0.00553423
 Iteration  2 RMS(Cart)=  0.06519893 RMS(Int)=  0.00052906
 Iteration  3 RMS(Cart)=  0.00119860 RMS(Int)=  0.00000689
 Iteration  4 RMS(Cart)=  0.00000015 RMS(Int)=  0.00000689
 Variable       Old X    -DE/DX   Delta X   Delta X   Delta X     New X
                                 (Linear)    (Quad)   (Total)
    R1        2.64906  -1.52657  -0.00038   0.00000  -0.00038   2.64868
    R2        2.65503  -5.17141  -0.00320   0.00000  -0.00320   2.65183
    R3        2.02591   0.01012  -0.00185   0.00000  -0.00185   2.02406
    R4        2.64196   3.70076   0.00298   0.00000   0.00298   2.64494
    R5        2.02589   0.00983  -0.00184   0.00000  -0.00184   2.02405
    R6        2.63664   9.11836   0.00550   0.00000   0.00550   2.64214
    R7        1.99815  18.22097   0.01130   0.00000   0.01130   2.00945
    R8        2.64233   1.52420   0.00281   0.00000   0.00281   2.64514
    R9        2.93521 -13.91449  -0.00085   0.00000  -0.00085   2.93436
   R10        2.65246  -3.67317  -0.00199   0.00000  -0.00198   2.65048
   R11        2.02583   0.01166  -0.00181   0.00000  -0.00181   2.02402
   R12        2.02574   0.01007  -0.00177   0.00000  -0.00177   2.02397
   R13        2.64414 -10.98161   0.00195   0.00000   0.00195   2.64609
   R14        2.64228   0.43561   0.00283   0.00000   0.00283   2.64511
   R15        2.64172   2.05832   0.00310   0.00000   0.00310   2.64481
   R16        2.00237   6.71368   0.00930   0.00000   0.00930   2.01167
   R17        2.65061  -2.07279  -0.00111   0.00000  -0.00111   2.64950
   R18        2.02576   0.01085  -0.00178   0.00000  -0.00178   2.02398
   R19        2.64881  -0.13853  -0.00026   0.00000  -0.00026   2.64855
   R20        2.02564   0.01090  -0.00172   0.00000  -0.00172   2.02392
   R21        2.65367  -2.18239  -0.00256   0.00000  -0.00256   2.65111
   R22        2.02548   0.01471  -0.00164   0.00000  -0.00164   2.02383
   R23        2.89080  -0.05501   0.00918   0.00000   0.00918   2.89997
   R24        2.24498  15.50930   0.01148   0.00000   0.01148   2.25647
   R25        2.19315   0.01357  -0.00051   0.00000  -0.00051   2.19264
    A1        2.09419  -0.10258   0.00010   0.00000   0.00010   2.09429
    A2        2.09452   0.05178  -0.00006   0.00000  -0.00006   2.09446
    A3        2.09447   0.05080  -0.00004   0.00000  -0.00004   2.09443
    A4        2.07894   8.88078   0.00732   0.00000   0.00731   2.08625
    A5        2.10258  -4.43828  -0.00387   0.00000  -0.00387   2.09870
    A6        2.10167  -4.44239  -0.00345   0.00000  -0.00344   2.09823
    A7        2.11464 -12.48014  -0.00959   0.00000  -0.00959   2.10504
    A8        2.16471 -35.84100  -0.03329   0.00000  -0.03329   2.13142
    A9        2.00384  48.32196   0.04288   0.00000   0.04288   2.04673
   A10        2.09229   1.45064   0.00100   0.00000   0.00099   2.09328
   A11        2.08009  17.33939   0.00678   0.00000   0.00678   2.08686
   A12        2.11081 -18.78860  -0.00777   0.00000  -0.00777   2.10304
   A13        2.08547   4.51973   0.00422   0.00000   0.00423   2.08970
   A14        2.09814  -2.26000  -0.00177   0.00000  -0.00177   2.09636
   A15        2.09957  -2.25964  -0.00245   0.00000  -0.00246   2.09712
   A16        2.10084  -2.26777  -0.00305   0.00000  -0.00304   2.09780
   A17        2.09197   1.13526   0.00115   0.00000   0.00114   2.09311
   A18        2.09038   1.13265   0.00190   0.00000   0.00190   2.09228
   A19        2.09166   5.83937   0.00130   0.00000   0.00129   2.09295
   A20        2.11119  -6.24098  -0.00795   0.00000  -0.00796   2.10323
   A21        2.02087  21.54785   0.03482   0.00000   0.03482   2.05569
   A22        2.15112 -15.30917  -0.02686   0.00000  -0.02686   2.12426
   A23        2.08787  -0.16537   0.00309   0.00000   0.00309   2.09097
   A24        2.09765   0.06509  -0.00154   0.00000  -0.00154   2.09610
   A25        2.09767   0.10028  -0.00155   0.00000  -0.00155   2.09612
   A26        2.08040   3.73294   0.00663   0.00000   0.00662   2.08703
   A27        2.10114  -1.86627  -0.00319   0.00000  -0.00319   2.09795
   A28        2.10165  -1.86668  -0.00343   0.00000  -0.00343   2.09821
   A29        2.09910  -2.56256  -0.00223   0.00000  -0.00222   2.09688
   A30        2.09133   1.28614   0.00145   0.00000   0.00145   2.09278
   A31        2.09276   1.27637   0.00077   0.00000   0.00077   2.09353
   A32        2.09615  -0.60393  -0.00083   0.00000  -0.00083   2.09532
   A33        2.09359   0.30162   0.00038   0.00000   0.00038   2.09397
   A34        2.09345   0.30231   0.00045   0.00000   0.00045   2.09390
   A35        2.35040  91.66398   0.09013   0.00000   0.09013   2.44054
   A36        2.41616  64.19668   0.07846   0.00000   0.07846   2.49462
   A37        3.14153  -0.00008   0.00003   0.00000   0.00003   3.14156
   A38        3.14153  -0.00007   0.00003   0.00000   0.00003   3.14156
    D1       -0.00019   0.66680   0.00009   0.00000   0.00009  -0.00010
    D2        3.14159   0.02584   0.00000   0.00000   0.00000  -3.14159
    D3        3.14144   0.52364   0.00007   0.00000   0.00007   3.14151
    D4        0.00003  -0.11732  -0.00001   0.00000  -0.00001   0.00002
    D5       -0.00015   0.44732   0.00007   0.00000   0.00007  -0.00008
    D6       -3.14152  -0.32675  -0.00004   0.00000  -0.00004  -3.14156
    D7        3.14141   0.59048   0.00009   0.00000   0.00009   3.14150
    D8        0.00004  -0.18359  -0.00002   0.00000  -0.00002   0.00002
    D9        0.00048  -1.54673  -0.00023   0.00000  -0.00023   0.00025
   D10        3.14146   0.17446   0.00007   0.00000   0.00007   3.14153
   D11       -3.14130  -0.90611  -0.00014   0.00000  -0.00014  -3.14144
   D12       -0.00032   0.81508   0.00015   0.00000   0.00016  -0.00016
   D13       -0.00043   1.29345   0.00020   0.00000   0.00020  -0.00023
   D14        3.14060   4.13322   0.00047   0.00000   0.00047   3.14106
   D15       -3.14146  -0.25196  -0.00006   0.00000  -0.00006  -3.14152
   D16       -0.00043   2.58781   0.00020   0.00000   0.00021  -0.00023
   D17        3.07748  10.66122   0.00150   0.00000   0.00150   3.07898
   D18       -0.06469  12.26656   0.00177   0.00000   0.00177  -0.06292
   D19        0.00008  -0.14772  -0.00004   0.00000  -0.00004   0.00005
   D20        3.14152   0.49002   0.00004   0.00000   0.00004   3.14155
   D21       -3.14093  -3.05053  -0.00031   0.00000  -0.00031  -3.14124
   D22        0.00050  -2.41279  -0.00024   0.00000  -0.00024   0.00027
   D23        0.00020  -0.71005  -0.00010   0.00000  -0.00010   0.00011
   D24        3.14157   0.06332   0.00001   0.00000   0.00001   3.14158
   D25       -3.14123  -1.34832  -0.00017   0.00000  -0.00017  -3.14140
   D26        0.00014  -0.57496  -0.00006   0.00000  -0.00006   0.00007
   D27        0.00223   0.26295  -0.00105   0.00000  -0.00105   0.00118
   D28        3.13941  -0.33833   0.00104   0.00000   0.00099   3.14040
   D29       -0.00062  -0.12279   0.00029   0.00000   0.00028  -0.00034
   D30        3.14131  -0.08820   0.00014   0.00000   0.00013   3.14144
   D31       -0.00234  -0.24990   0.00111   0.00000   0.00111  -0.00123
   D32        3.13960  -0.22177   0.00094   0.00000   0.00095   3.14055
   D33       -3.13919   0.30034  -0.00114   0.00000  -0.00117  -3.14036
   D34        0.00276   0.32847  -0.00131   0.00000  -0.00133   0.00143
   D35       -0.44857   1.63096  -0.00761   0.00000  -0.00760  -0.45616
   D36        2.68850   1.04289  -0.00547   0.00000  -0.00548   2.68303
   D37       -0.00082  -0.03802   0.00039   0.00000   0.00039  -0.00043
   D38       -3.14152   0.02174  -0.00004   0.00000  -0.00003  -3.14155
   D39        3.14044  -0.07261   0.00054   0.00000   0.00054   3.14098
   D40       -0.00026  -0.01285   0.00012   0.00000   0.00012  -0.00014
   D41        0.00088   0.09804  -0.00042   0.00000  -0.00042   0.00046
[...]
 .03789291,0.01887416,0.05921737,-0.10798981,-0.11570974,-0.03473824,-0
 .16780195,-0.00170656,0.00478918,-0.00085867,0.16178432,-0.16539202,0.
 53986831,0.00004235,-0.00001424,-0.00002826,-0.00004535,-0.00003194,0.
 00002455,0.00003448,0.00006305,-0.00006477,-0.00000599,-0.00019263,0.0
 0002254,-0.00001922,-0.00001184,0.00006156,0.00000458,0.00005408,-0.00
 000223,-0.00000120,0.00001294,-0.00000331,0.00000193,0.00000425,-0.000
 00042,-0.00031757,0.00015327,-0.00003277,0.00419323,-0.00211289,-0.001
 99725,0.00099003,-0.00192839,-0.00164074,0.00002112,0.00040525,0.00071
 375,-0.20561515,-0.06620457,-0.13622216,0.00145065,-0.00472581,0.00023
 434,-0.00032199,0.00029876,0.00018647,-0.00856024,-0.00324305,-0.01164
 634,0.21089748,-0.00004491,-0.00000417,0.00002619,0.00002993,0.0000207
 5,-0.00002738,-0.00002884,-0.00007876,0.00002403,0.00010351,0.00037268
 ,-0.00008944,-0.00002382,0.00001404,-0.00004050,-0.00001096,-0.0000446
 4,-0.00000108,0.00000497,-0.00001282,0.00000514,-0.00000024,-0.0000028
 7,0.00000305,0.00093929,-0.00004347,0.00073823,-0.00256992,0.00101412,
 0.00486684,0.01282411,0.00835264,0.01124771,0.00043312,-0.00069177,0.0
 0030470,-0.06529726,-0.07292831,-0.04089239,-0.00414647,-0.00173610,0.
 00376559,0.00030030,-0.00019876,-0.00028376,-0.01838466,-0.00284430,-0
 .01597387,0.07411387,0.07073621,0.00000692,0.00006065,0.00001799,0.000
 03286,0.00002735,-0.00000632,0.00005078,0.00000556,0.00004337,-0.00033
 940,-0.00059726,0.00030225,0.00005670,0.00009659,-0.00004614,0.0000047
 3,-0.00004924,0.00000200,-0.00000162,0.00001408,-0.00000651,0.00000720
 ,0.00000987,-0.00001527,-0.00085307,-0.00015063,-0.00129332,-0.0015593
 6,0.00535625,-0.00082575,-0.01951806,-0.00772888,-0.01157424,0.0006482
 0,0.00024351,-0.00038629,-0.13726076,-0.04186697,-0.16324021,-0.000448
 76,0.00303434,0.00150466,0.00019535,-0.00028013,-0.00015818,0.00661371
 ,0.00334067,0.00799230,0.14870561,0.04055351,0.16769439,-0.00001707,0.
 00001588,0.00001024,0.00002019,0.00002307,0.00000215,0.00001677,0.0000
 0922,-0.00001414,-0.00015232,0.00017997,0.00002569,0.00001845,-0.00002
 818,-0.00000208,-0.00000232,-0.00001769,0.00001531,0.00000484,0.000003
 00,0.00000085,-0.00000525,-0.00000307,-0.00000330,0.00026896,0.0002709
 5,-0.00008427,0.00351809,-0.00182516,-0.00371906,-0.00019932,0.0007510
 2,-0.00011921,0.00737919,0.00535191,-0.00218988,-0.00035852,-0.0020024
 7,-0.00520494,-0.14477065,-0.13720801,0.02830785,-0.00135656,0.0018757
 1,0.00179282,-0.00877086,-0.01792057,0.00620367,-0.00031109,-0.0010586
 5,0.00025525,0.14619491,0.00001020,-0.00002573,-0.00000503,-0.00001329
 ,-0.00001856,-0.00001086,-0.00004425,-0.00004845,0.00006060,0.00029090
 ,0.00011177,-0.00007175,-0.00001547,-0.00005100,0.00002213,-0.00000302
 ,0.00002534,-0.00001194,-0.00000874,-0.00001317,-0.00000155,-0.0000035
 2,-0.00000428,0.00000628,-0.00056796,-0.00083650,0.00031811,-0.0014140
 6,0.00326608,0.00402936,0.00069981,0.00005184,-0.00015370,-0.00956677,
 -0.00791512,0.00216812,-0.00255264,0.00275208,0.00012787,-0.13793491,-
 0.22968562,0.05529164,0.00214707,-0.00109832,-0.00136183,-0.00298557,-
 0.00236802,0.00299658,-0.00026145,-0.00001027,0.00026742,0.15040027,0.
 23689271,0.00001543,0.00001256,-0.00002515,0.00000215,-0.00001213,0.00
 002823,0.00002204,0.00005559,-0.00003172,-0.00005942,-0.00028549,-0.00
 028083,0.00001555,0.00013991,-0.00002442,0.00003968,-0.00000245,0.0000
 0212,-0.00000064,0.00001043,-0.00000228,0.00001347,0.00001395,-0.00000
 341,0.00088233,0.00152464,-0.00034184,-0.00416127,0.00350244,-0.001608
 99,-0.00011427,-0.00008314,-0.00083439,0.01600979,0.02137309,-0.001349
 36,-0.00455345,0.00084045,-0.00135066,0.02919163,0.05625892,-0.0683003
 4,0.00147288,-0.00171191,-0.00053538,-0.01199863,-0.01635459,0.0076090
 5,-0.00072283,-0.00077255,0.00049941,-0.02707557,-0.06244013,0.0666691
 7,0.00310370,-0.00303090,0.00289106,-0.00642436,0.00211578,0.00797868,
 -0.21604589,0.00333545,0.15106874,-0.00452165,-0.00327656,0.00722046,0
 .00290987,0.00145876,0.00233282,0.00006281,0.00005254,-0.00075097,-0.0
 0121639,0.00006027,-0.00241078,-0.00040928,0.00007300,-0.00040286,-0.0
 0090382,0.00037558,-0.00299652,0.00032123,0.00050703,0.00030081,0.0002
 5606,-0.00013969,-0.00006782,0.00000431,0.00017937,-0.00022503,0.00002
 929,0.00003380,-0.00020840,0.00008536,-0.00003678,0.00011324,-0.000020
 99,-0.00001060,0.00001221,-0.00012166,-0.00005236,0.00000307,-0.000008
 37,0.00001108,-0.00000465,-0.00000638,-0.00000008,-0.00000490,0.223613
 12,-0.00236634,-0.00446183,0.00043119,-0.02098699,0.00596037,0.0180650
 6,0.00173622,-0.05934564,-0.00481921,0.02211612,0.00387705,-0.01840385
 ,0.00065374,-0.00500726,-0.00194213,-0.00020653,-0.00123847,0.00010277
 ,0.00058259,0.00073914,0.00014836,0.00007638,0.00015459,0.00008729,-0.
 00032952,0.00292625,0.00062022,0.00040603,-0.00080479,0.00047666,-0.00
 005657,0.00008409,-0.00002823,-0.00004269,0.00009710,0.00002541,0.0000
 0754,-0.00008148,0.00005003,0.00002089,-0.00004167,0.00004039,0.000005
 53,-0.00002694,-0.00001609,-0.00002658,0.00007356,-0.00006324,-0.00000
 684,0.00000674,-0.00001741,0.00000477,0.00000473,-0.00000672,-0.001652
 96,0.05677341,0.00309443,0.00095969,0.00469981,0.00478113,-0.00130137,
 -0.00149905,0.15074445,-0.00585320,-0.16159315,0.01052623,0.00151586,-
 0.00388993,0.00231012,-0.00267819,0.00315376,-0.00075798,0.00001884,-0
 .00017967,-0.00235469,0.00060133,-0.00209648,-0.00040839,0.00008243,-0
 .00054807,-0.00304085,0.00125680,-0.00182138,0.00018087,0.00004612,0.0
 0032526,0.00012600,0.00012337,-0.00006918,0.00005449,0.00003359,-0.000
 14172,-0.00004833,-0.00002749,-0.00005355,0.00003127,-0.00000790,0.000
 07095,-0.00000028,-0.00002884,-0.00000185,-0.00003085,-0.00001052,-0.0
 0002450,-0.00000209,0.00000620,-0.00001467,-0.00001005,0.00000781,0.00
 000202,-0.16594328,0.00542436,0.16368446,-0.00023144,0.00001197,0.0000
 5188,0.00026503,0.00038149,-0.00001556,0.00008484,0.00032054,0.0001913
 4,-0.00055016,-0.00015232,-0.00017899,0.00050362,0.00005168,-0.0002135
 3,-0.00011295,-0.00020966,0.00004904,0.00000828,-0.00000638,-0.0000115
 9,-0.00002390,-0.00001643,0.00003535,-0.00007181,0.00140261,0.00172014
 ,-0.00892565,-0.01901785,0.00696475,-0.14551469,-0.14046809,0.02694812
 ,-0.00043687,-0.00198208,-0.00492628,0.00678358,0.00596357,-0.00134970
 ,-0.00051150,0.00068046,-0.00062304,-0.00050088,-0.00088657,0.00038936
 ,0.00342003,-0.00100291,-0.00324426,-0.00123041,0.00188490,0.00170140,
 -0.00030553,0.00026563,0.00031087,-0.00028084,0.00005265,-0.00009477,0
 .14722239,-0.00010207,-0.00013989,-0.00005244,0.00006890,-0.00014777,-
 0.00000023,0.00037895,-0.00037330,0.00097500,0.00126116,-0.00019438,0.
 00134229,0.00041191,-0.00012495,0.00039631,0.00018267,0.00019679,-0.00
 000744,-0.00001473,-0.00001831,-0.00000079,0.00000691,0.00000367,-0.00
 001547,0.00095690,-0.00167997,-0.00012453,-0.00467262,-0.00308811,0.00
 213685,-0.14117481,-0.22733986,0.05440755,-0.00244769,0.00240235,0.000
 28426,-0.00871023,-0.00871130,0.00209815,0.00052258,0.00017884,-0.0003
 5955,-0.00004508,-0.00016920,0.00019525,-0.00089773,0.00276125,0.00382
 999,0.00205451,-0.00099913,-0.00135277,0.00027173,-0.00031243,-0.00022
 814,-0.00004564,0.00001562,-0.00007838,0.15264486,0.23801201,0.0001194
 3,-0.00005688,-0.00011820,-0.00027802,-0.00020718,0.00005140,-0.000527
 04,0.00090270,-0.00056182,-0.00124461,-0.00006189,-0.00194842,0.000031
 13,0.00025089,-0.00042038,0.00017206,0.00021304,-0.00012774,0.00001451
 ,-0.00005398,0.00001032,-0.00001672,0.00000830,0.00000634,0.00224543,0
 .00025819,0.00012645,-0.01080986,-0.01659661,0.00996803,0.02742923,0.0
 5507616,-0.06553839,-0.00433785,0.00089629,-0.00150796,0.01662519,0.02
 111289,-0.00210444,-0.00039157,-0.00016142,-0.00094944,-0.00061918,-0.
 00090722,0.00026946,-0.00344075,0.00367492,-0.00199210,0.00149214,-0.0
 0163200,-0.00047065,0.00029808,-0.00024013,-0.00011288,0.00021407,-0.0
 0007453,0.00009436,-0.02743112,-0.06347759,0.06546266,-0.00004760,-0.0
 0000281,0.00001907,0.00004701,0.00006173,-0.00000055,0.00001763,-0.000
 07068,0.00005945,0.00006626,0.00046285,-0.00001968,0.00001453,-0.00009
 613,-0.00002823,-0.00000638,-0.00002194,0.00001054,0.00000172,-0.00001
 178,-0.00000138,-0.00000903,-0.00001550,0.00001687,0.00014098,-0.00014
 600,0.00103551,-0.00255025,-0.00067594,-0.00117622,0.00146147,-0.00617
 785,0.00030017,-0.00109970,-0.00484530,-0.00428473,0.00827478,-0.00355
 419,0.01615196,-0.00338816,0.01731584,-0.02432615,0.00034803,0.0004079
 2,-0.00121777,-0.07633559,0.00518223,-0.03706237,-0.00152754,0.0007971
 6,0.00194646,-0.00137739,0.00174379,0.00068843,-0.00003277,0.00002249,
 -0.00001408,0.00068322,-0.00073806,0.00055396,0.14173692,0.00006697,0.
 00004796,-0.00003274,-0.00006058,-0.00003345,0.00004016,0.00012487,0.0
 0029433,-0.00005295,-0.00073019,-0.00154438,0.00040360,0.00016861,0.00
 028101,-0.00001008,0.00002898,-0.00000137,-0.00003842,0.00000300,0.000
 05084,-0.00000598,0.00003064,0.00003618,-0.00003743,0.00035150,0.00216
 929,-0.00296615,-0.00047674,-0.00329494,0.00230861,-0.00775118,-0.0004
 0653,-0.00096904,-0.00325694,0.00558480,-0.00268756,0.00337697,-0.0239
 7637,0.03252938,0.01013068,0.00639260,0.00425874,-0.00035935,0.0007228
 7,-0.00023186,0.00545230,-0.12560923,0.09596019,0.00189213,-0.00097818
 ,-0.00094538,0.00065964,-0.00105189,-0.00220437,0.00002531,-0.00006266
 ,-0.00000817,0.00000584,-0.00010361,0.00127761,-0.10854812,0.48873148,
 -0.00007812,-0.00009514,0.00002365,0.00006944,0.00000856,-0.00006750,-
 0.00028606,-0.00039947,0.00015791,0.00142192,0.00213691,-0.00090683,-0
 .00018979,-0.00036464,0.00008414,0.00001185,0.00005629,0.00003208,-0.0
 0000424,-0.00009261,0.00001762,-0.00004742,-0.00004428,0.00004998,0.00
 045244,-0.00341974,0.00449727,-0.00135108,0.00188881,-0.00530622,0.002
 13892,0.00122024,0.00848016,-0.00616388,-0.00496023,0.00457663,0.00760
 244,0.02336068,-0.01949690,-0.01565725,0.01354712,-0.03770194,-0.00027
 918,0.00075854,-0.00036572,-0.03727672,0.09579460,-0.21762570,0.000607
 33,-0.00238332,-0.00015795,0.00201303,-0.00078668,0.00004373,-0.000045
 40,0.00010148,0.00000223,-0.00034395,0.00029951,0.00014116,0.20583578,
 -0.63300942,1.12405056,0.00002489,0.00001117,-0.00000967,-0.00001630,-
 0.00001943,0.00000821,0.00001529,0.00005702,-0.00002486,-0.00015312,-0
 .00032089,0.00009303,0.00001540,0.00006089,0.00000228,0.00000565,0.000
 00299,-0.00000370,-0.00000294,0.00001036,-0.00000197,0.00000647,0.0000
 0979,-0.00001416,-0.00001836,0.00039132,-0.00062244,0.00073484,-0.0000
 4214,0.00073560,-0.00026690,0.00131413,-0.00043815,0.00020904,0.001017
 12,0.00050835,-0.00174160,-0.00241210,-0.00193590,0.00108335,-0.002364
 72,0.00166890,-0.00013986,-0.00001121,0.00020562,0.01685637,0.00571548
 ,-0.00493348,0.00033128,0.00011417,-0.00021759,0.00021202,-0.00018746,
 0.00003587,0.00001308,-0.00001787,0.00000068,-0.00021565,0.00018059,-0
 .00012293,-0.06641486,0.09889691,-0.15845919,0.04946945,-0.00004020,-0
 .00003425,0.00002028,0.00004001,0.00002627,-0.00002378,-0.00009371,-0.
 00017900,0.00007762,0.00054037,0.00095636,-0.00031621,-0.00007394,-0.0
 0018688,0.00001942,-0.00000115,0.00001179,0.00001890,-0.00000413,-0.00
 003488,0.00000095,-0.00002515,-0.00002352,0.00002410,-0.00001205,-0.00
 144931,0.00193969,-0.00016833,0.00154951,-0.00190968,0.00157985,-0.000
 43286,0.00116299,0.00078397,-0.00157734,0.00148228,0.00105237,0.005373
 22,-0.00270168,-0.00571150,-0.00203617,-0.00245063,0.00009626,-0.00031
 654,0.00015464,0.00555328,0.00560453,0.01902294,-0.00032131,0.00006058
 ,-0.00002286,0.00025007,0.00033423,0.00036593,-0.00003132,0.00004677,-
 0.00000499,0.00007194,-0.00011274,-0.00011922,0.09891419,-0.34726104,0
 .50641112,-0.10240941,0.33969090,0.00006384,0.00006937,-0.00002134,-0.
 00005751,-0.00002876,0.00004171,0.00018791,0.00028305,-0.00013184,-0.0
 0094092,-0.00155118,0.00056713,0.00011427,0.00028324,-0.00005399,-0.00
 001079,-0.00003466,-0.00002219,0.00000310,0.00006938,-0.00001035,0.000
 03662,0.00003323,-0.00003699,-0.00011958,0.00237664,-0.00310776,0.0008
 4438,-0.00165971,0.00351171,-0.00072594,0.00076318,-0.00313460,0.00077
 569,0.00189096,-0.00231000,-0.00614679,-0.00716061,0.00279466,0.005763
 82,0.00188360,0.00719362,0.00007383,0.00001798,-0.00021514,-0.00475202
 ,0.01918067,-0.01430198,0.00030746,0.00055447,0.00015324,-0.00049813,-
 0.00020907,-0.00004330,0.00003756,-0.00007913,-0.00000006,0.00000884,0
 .00002178,-0.00031278,-0.15847001,0.50639472,-0.86045815,0.16352279,-0
 .52312205,0.86984206,-0.10947284,-0.11085219,0.04690731,-0.00696964,-0
 .02154512,0.00517432,-0.00025786,0.00088657,0.00607283,-0.00058532,0.0
 0091225,0.00045710,0.00271431,0.00161551,0.00380384,0.00792615,0.00941
 900,-0.00314546,-0.00120556,0.00057513,-0.00220627,-0.00118333,0.00008
 532,-0.00233896,-0.00033424,-0.00017216,-0.00051341,0.00001096,0.00017
 358,-0.00021879,0.00004384,0.00001037,0.00003045,-0.00001062,-0.000013
 44,-0.00000066,0.00000241,0.00000789,-0.00003293,0.00000495,0.00000223
 ,-0.00000677,-0.00000029,0.00000493,0.00000319,-0.00000977,-0.00001347
 ,0.00002399,0.00000214,0.00000133,-0.00000193,-0.00000171,-0.00000112,
 0.00000053,-0.00030987,-0.00110141,0.00032757,-0.00002027,-0.00000378,
 0.00002019,-0.00000799,0.00001507,-0.00002523,0.00000377,-0.00001375,0
 .00002022,0.10928333,-0.11092402,-0.26001718,0.06254614,0.00224668,0.0
 0502551,-0.00154782,0.00021509,0.00141919,-0.00091147,0.00101782,0.000
 25671,-0.00078141,0.00224745,-0.00299230,-0.00330811,-0.01421808,-0.01
 833810,0.00916105,0.00003650,0.00072351,0.00060379,0.00061723,0.000639
 86,0.00011908,-0.00009029,-0.00017264,0.00046703,-0.00009326,0.0001585
 8,-0.00027906,0.00004582,-0.00001722,0.00007273,0.00000347,-0.00005793
 ,0.00005987,-0.00001115,0.00002931,-0.00003298,-0.00001942,0.00000679,
 -0.00002587,0.00000512,0.00000470,-0.00000371,0.00000893,-0.00003329,0
 .00003972,0.00000215,-0.00000294,0.00000749,-0.00000043,-0.00000427,0.
 00000441,0.00015730,0.00016479,-0.00014766,-0.00001791,-0.00000440,-0.
 00003752,-0.00000933,0.00002742,-0.00004736,0.00000817,-0.00002057,0.0
 0003638,0.11952893,0.27410581,0.04691732,0.06263625,-0.06666154,0.0083
 7939,0.01849590,-0.00192429,0.00594313,-0.00150138,0.00163807,0.000390
 49,-0.00088868,-0.00060171,0.00396823,-0.00265784,0.00317637,-0.006411
 82,-0.01106428,0.00654851,-0.00226940,0.00013166,-0.00198865,-0.002264
 27,0.00058454,-0.00196463,-0.00070756,0.00032642,-0.00054670,0.0000638
 5,0.00006911,0.00001506,0.00000885,0.00003492,-0.00003517,-0.00000624,
 0.00001550,-0.00005123,-0.00000435,-0.00000780,0.00001841,0.00001016,0
 .00000369,0.00001571,0.00000109,-0.00000479,0.00000181,0.00000145,0.00
 000717,-0.00002162,-0.00000114,0.00000523,-0.00000769,-0.00000095,0.00
 000220,-0.00000339,0.00047682,0.00090723,-0.00002420,0.00002735,-0.000
 02455,0.00002928,0.00000378,-0.00001161,0.00001779,-0.00000533,0.00000
 619,-0.00001309,-0.05431162,-0.06647936,0.06201357,0.00165547,-0.00305
 956,0.00417910,-0.00083400,-0.00062230,-0.00008706,-0.00119927,-0.0013
 2539,0.00545792,-0.00261291,0.02241950,0.00953569,-0.07263432,0.069655
 29,0.04160057,0.00835830,-0.01360446,-0.00670386,-0.00028665,0.0001242
 2,-0.00048826,-0.00125588,0.00061326,-0.00233044,-0.00005789,0.0006264
 4,-0.00407335,0.00028003,-0.00009813,0.00066980,0.00004029,0.00014938,
 -0.00012059,0.00001510,0.00016832,-0.00016960,-0.00007415,-0.00002979,
 0.00000405,0.00004755,-0.00003008,0.00009864,-0.00002921,-0.00001123,0
 .00002068,-0.00003518,0.00001602,-0.00008613,-0.00000515,0.00000798,-0
 .00001998,0.00000156,0.00000263,-0.00000967,-0.00009656,0.00110935,0.0
 0052839,-0.00003843,-0.00008923,0.00000425,0.00000471,-0.00004633,0.00
 005436,-0.00001131,0.00002363,-0.00003864,0.00037746,-0.00075679,-0.00
 020924,0.06839044,-0.00376858,-0.00213783,0.00183026,-0.00047024,0.000
 23583,0.00053935,-0.00056768,0.00141524,-0.00013192,-0.00165689,0.0004
 7791,0.00081168,0.07134052,-0.28043975,-0.09531724,0.00925745,-0.01706
 823,-0.01057471,0.00013602,-0.00002880,0.00001389,0.00009200,0.0007103
 6,0.00062747,0.00040128,0.00136888,0.00018265,0.00013643,0.00006143,0.
 00030285,-0.00005032,0.00000941,0.00001067,0.00002753,0.00003388,-0.00
 009759,-0.00002385,0.00002850,0.00001665,0.00001137,-0.00000362,0.0000
 4027,-0.00000847,-0.00000590,0.00000118,-0.00000410,-0.00001141,-0.000
 04623,0.00000068,-0.00000129,-0.00000576,-0.00000298,0.00000483,-0.000
 00069,-0.00010838,0.00014652,0.00007031,0.00002204,-0.00005120,-0.0000
 4484,0.00000545,-0.00001512,0.00001902,-0.00000489,0.00001093,-0.00001
 348,0.00047835,-0.00090134,-0.00058569,-0.07524275,0.29616076,0.004028
 80,0.00142172,0.00378646,0.00005951,0.00073871,-0.00074787,0.00553644,
 0.00064650,0.00073323,0.00504976,-0.02046006,-0.00231764,0.04238292,-0
 .09409537,-0.08451916,-0.00356488,0.00882738,0.00690935,-0.00048320,0.
 00000572,-0.00046863,-0.00240963,0.00013232,-0.00200496,-0.00358112,0.
 00054552,-0.00101874,0.00046647,0.00050184,-0.00071118,0.00002748,0.00
 016277,0.00017877,-0.00006999,0.00003504,-0.00007078,-0.00005424,0.000
 07656,-0.00010373,0.00004144,0.00000988,0.00000949,0.00001197,-0.00001
 083,-0.00000103,-0.00002339,-0.00007139,0.00004013,0.00000855,-0.00000
 460,-0.00000643,-0.00000337,-0.00000547,-0.00000539,0.00041106,-0.0010
 2991,-0.00007540,0.00003433,-0.00026504,0.00000574,-0.00002079,0.00003
 815,-0.00008802,0.00000803,-0.00003597,0.00006942,-0.00003952,0.000484
 63,0.00036933,-0.04781664,0.10235189,0.08003701\\0.00002891,0.00002217
 ,-0.00001550,-0.00003252,-0.00000831,0.00002573,-0.00002788,0.00003454
 ,0.00004798,0.00002362,-0.00003852,-0.00001521,0.00002563,0.00006596,-
 0.00003239,0.00000864,-0.00002062,-0.00000909,0.00000565,-0.00000658,-
 0.00000858,-0.00001468,-0.00000819,0.00001246,-0.00004183,-0.00007267,
 0.00005533,-0.00005141,-0.00001379,-0.00005291,0.00002902,0.00000766,0
 .00004728,0.00002010,0.00000970,-0.00001946,0.00001075,0.00005484,-0.0
 0006161,0.00000045,-0.00002194,0.00000031,0.00000195,0.00001653,0.0000
 0686,-0.00001564,0.00000969,-0.00001354,-0.00000266,-0.00000927,0.0000
 0218,0.00000494,0.00001134,0.00000709,0.00005417,0.00001803,-0.0000559
 1,0.00000249,-0.00001479,0.00003713,0.00000912,-0.00002562,0.00003538,
 -0.00000582,0.00000565,-0.00001706,-0.00001960,-0.00000924,0.00001310,
 -0.00001339,-0.00000657,0.00001042\\\@


 THOUGH I SPEAK WITH THE TONGUES OF MEN AND OF ANGELS, 
 AND HAVE NOT LOVE,
 I AM BECOME AS SOUNDING BRASS, A TINKLING CYMBAL.
 AND THOUGH I HAVE THE GIFT OF PROPHECY,
 AND UNDERSTAND ALL MYSTERIES, AND ALL KNOWLEDGE.
 AND THOUGH I HAVE ALL FAITH, SO THAT I COULD REMOVE MOUNTAINS,
 AND HAVE NOT LOVE, I AM NOTHING.
 AND THOUGH I BESTOW ALL MY GOODS TO FEED THE POOR,
 AND THOUGH I GIVE MY BODY TO BE BURNED,
 AND HAVE NOT LOVE IT PROFITETH ME NOTHING.
 LOVE SUFFERETH LONG, AND IS KIND,
 LOVE ENVIETH NOT,
 LOVE VAUNTETH NOT ITSELF, IS NOT PUFFED UP,
 DOTH NOT BEHAVE ITSELF UNSEEMLY, SEEKETH NOT HER OWN,
 IS NOT EASILY PROVOKED, THINKETH NO EVIL,
 REJOICETH NOT IN INIQUITY, BUT REJOICETH IN THE TRUTH,
 BEARETH ALL THINGS, BELIEVETH ALL THINGS,
 HOPETH ALL THINGS, ENDURETH ALL THINGS.
 LOVE NEVER FAILETH, BUT WHETHER THERE BE PROPHECIES, THEY SHALL FAIL, 
 WHETHER THERE BE TONGUES, THEY SHALL CEASE,
 WHETHER THERE BE KNOWLEDGE, IT SHALL VANISH AWAY.
 FOR WE KNOW IN PART, AND WE PROPHESY IN PART.
 BUT WHEN THAT WHICH IS PERFECT IS COME, THEN THAT WHICH IS IN PART 
 SHALL BE DONE AWAY. 
 WHEN I WAS A CHILD, I SPAKE AS A CHILD, I UNDERSTOOD AS A CHILD, 
 I THOUGHT AS A CHILD.
 BUT WHEN I BECAME A MAN, I PUT AWAY CHILDISH THINGS.
 FOR NOW WE SEE THROUGH A GLASS, DARKLY, BUT THEN FACE TO FACE.
 NOW I KNOW IN PART. BUT THEN SHALL I KNOW EVEN AS ALSO I AM KNOWN.
 AND NOW ABIDETH FAITH, HOPE AND LOVE, THESE THREE.
 BUT THE GREATEST OF THESE IS LOVE.

                     I CORINTHIANS 13
 Job cpu time:       0 days  1 hours 53 minutes 44.9 seconds.
 Elapsed time:       0 days  0 hours  3 minutes 47.6 seconds.
 File lengths (MBytes):  RWF=    232 Int=      0 D2E=      0 Chk=     10 Scr=      1
 Normal termination of Gaussian 16 at Mon Sep 18 13:55:13 2023.
