 Entering Gaussian System, Link 0=/home/ubuntu/g16/g16
 Input=/home/ubuntu/ml products/molecule_68.gjf
 Output=/home/ubuntu/ml products/molecule_68.log
 Initial command:
 /home/ubuntu/g16/l1.exe "/home/ubuntu/Scratch/Gau-49078.inp" -scrdir="/home/ubuntu/Scratch/"
 Entering Link 1 = /home/ubuntu/g16/l1.exe PID=     49080.
  
 Copyright (c) 1988-2017, Gaussian, Inc.  All Rights Reserved.
  
 This is part of the Gaussian(R) 16 program.  It is based on
 the Gaussian(R) 09 system (copyright 2009, Gaussian, Inc.),
 the Gaussian(R) 03 system (copyright 2003, Gaussian, Inc.),
 the Gaussian(R) 98 system (copyright 1998, Gaussian, Inc.),
 the Gaussian(R) 94 system (copyright 1995, Gaussian, Inc.),
 the Gaussian 92(TM) system (copyright 1992, Gaussian, Inc.),
 the Gaussian 90(TM) system (copyright 1990, Gaussian, Inc.),
 the Gaussian 88(TM) system (copyright 1988, Gaussian, Inc.),
 the Gaussian 86(TM) system (copyright 1986, Carnegie Mellon
 University), and the Gaussian 82(TM) system (copyright 1983,
 Carnegie Mellon University). Gaussian is a federally registered
 trademark of Gaussian, Inc.
  
 This software contains proprietary and confidential information,
 including trade secrets, belonging to Gaussian, Inc.
  
 This software is provided under written license and may be
 used, copied, transmitted, or stored only in accord with that
 written license.
  
 The following legend is applicable only to US Government
 contracts under FAR:
  
                    RESTRICTED RIGHTS LEGEND
  
 Use, reproduction and disclosure by the US Government is
 subject to restrictions as set forth in subparagraphs (a)
 and (c) of the Commercial Computer Software - Restricted
 Rights clause in FAR 52.227-19.
  
 Gaussian, Inc.
 340 Quinnipiac St., Bldg. 40, Wallingford CT 06492
  
  
 ---------------------------------------------------------------
 Warning -- This program may not be used in any manner that
 competes with the business of Gaussian, Inc. or will provide
 assistance to any competitor of Gaussian, Inc.  The licensee
 of this program is prohibited from giving any competitor of
 Gaussian, Inc. access to this program.  By using this program,
 the user acknowledges that Gaussian, Inc. is engaged in the
 business of creating and licensing software in the field of
 computational chemistry and represents and warrants to the
 licensee that it is not a competitor of Gaussian, Inc. and that
 it will not use this program in any manner prohibited above.
 ---------------------------------------------------------------
  

 Cite this work as:
 Gaussian 16, Revision B.01,
 M. J. Frisch, G. W. Trucks, H. B. Schlegel, G. E. Scuseria, 
 M. A. Robb, J. R. Cheeseman, G. Scalmani, V. Barone, 
 G. A. Petersson, H. Nakatsuji, X. Li, M. Caricato, A. V. Marenich, 
 J. Bloino, B. G. Janesko, R. Gomperts, B. Mennucci, H. P. Hratchian, 
 J. V. Ortiz, A. F. Izmaylov, J. L. Sonnenberg, D. Williams-Young, 
 F. Ding, F. Lipparini, F. Egidi, J. Goings, B. Peng, A. Petrone, 
 T. Henderson, D. Ranasinghe, V. G. Zakrzewski, J. Gao, N. Rega, 
 G. Zheng, W. Liang, M. Hada, M. Ehara, K. Toyota, R. Fukuda, 
 J. Hasegawa, M. Ishida, T. Nakajima, Y. Honda, O. Kitao, H. Nakai, 
 T. Vreven, K. Throssell, J. A. Montgomery, Jr., J. E. Peralta, 
 F. Ogliaro, M. J. Bearpark, J. J. Heyd, E. N. Brothers, K. N. Kudin, 
 V. N. Staroverov, T. A. Keith, R. Kobayashi, J. Normand, 
 K. Raghavachari, A. P. Rendell, J. C. Burant, S. S. Iyengar, 
 J. Tomasi, M. Cossi, J. M. Millam, M. Klene, C. Adamo, R. Cammi, 
 J. W. Ochterski, R. L. Martin, K. Morokuma, O. Farkas, 
 J. B. Foresman, and D. J. Fox, Gaussian, Inc., Wallingford CT, 2016.
 
 ******************************************
 Gaussian 16:  EM64L-G16RevB.01 20-Dec-2017
                16-Sep-2023 
 ******************************************
 %nprocshared=30
 Will use up to   30 processors via shared memory.
 %mem=30GB
 %chk=molecule_68.chk
 ---------------------------------------------------------
 # opt freq b3lyp/6-31+g(d) empiricaldispersion=gd3 volume
 ---------------------------------------------------------
 1/18=20,19=15,26=3,38=1/1,3;
 2/9=110,12=2,17=6,18=5,40=1/2;
 3/5=1,6=6,7=11,11=2,25=1,30=1,71=1,74=-5,124=31/1,2,3;
 4//1;
 5/5=2,38=5/2;
 6/7=2,8=2,9=2,10=2,28=1,44=1/1,4;
 7//1,2,3,16;
 1/18=20,19=15,26=3/3(2);
 2/9=110/2;
 99//99;
 2/9=110/2;
 3/5=1,6=6,7=11,11=2,25=1,30=1,71=1,74=-5,124=31/1,2,3;
 4/5=5,16=3,69=1/1;
 5/5=2,38=5/2;
 7//1,2,3,16;
 1/18=20,19=15,26=3/3(-5);
 2/9=110/2;
 6/7=2,8=2,9=2,10=2,19=2,28=1,44=1/1,4;
 99/9=1/99;
 -------------------
 Title Card Required
 -------------------
 Symbolic Z-matrix:
 Charge =  0 Multiplicity = 1
 C                    -5.30642  -0.95004   1.13808 
 C                    -3.91026  -0.97885   1.0873 
 C                    -3.24353  -0.49817  -0.05029 
 C                    -3.96927  -0.06568  -1.15526 
 C                    -5.36722  -0.03465  -1.10341 
 C                    -6.03529  -0.47585   0.04315 
 H                    -5.82877  -1.29526   2.03458 
 H                    -3.4475    0.28095  -2.05001 
 H                    -5.9376    0.33606  -1.95976 
 H                    -7.12782  -0.45137   0.08272 
 C                    -1.70232  -0.51098  -0.00174 
 C                    -0.50316  -0.51544   0.00061 
 C                     1.03814  -0.52118   0.00361 
 C                     1.73324  -0.49899   1.21632 
 C                     1.73531  -0.50038  -1.20582 
 C                     3.13124  -0.50192   1.21672 
 H                     1.18549  -0.5016    2.1622 
 C                     3.13359  -0.50384  -1.20525 
 H                     1.18944  -0.5035   -2.1542 
 C                     3.82894  -0.50274   0.00634 
 H                     3.67742  -0.50148   2.16417 
 H                     3.6812   -0.50459  -2.15173 
 C                     5.36894  -0.50335   0.00776 
 H                     5.7252   -1.5123    0.01066 
 H                     5.72661  -0.00131  -0.86684 
 H                     5.725     0.00313   0.88046 
 C                    -3.10721  -1.50202   2.2927 
 H                    -2.47989  -2.31033   1.97963 
 H                    -2.50186  -0.713     2.68753 
 H                    -3.78192  -1.84624   3.04847 
 

 GradGradGradGradGradGradGradGradGradGradGradGradGradGradGradGradGradGrad
 Berny optimization.
 Initialization pass.
                           ----------------------------
                           !    Initial Parameters    !
                           ! (Angstroms and Degrees)  !
 --------------------------                            --------------------------
 ! Name  Definition              Value          Derivative Info.                !
 --------------------------------------------------------------------------------
 ! R1    R(1,2)                  1.3974         estimate D2E/DX2                !
 ! R2    R(1,6)                  1.3982         estimate D2E/DX2                !
 ! R3    R(1,7)                  1.0935         estimate D2E/DX2                !
 ! R4    R(2,3)                  1.4035         estimate D2E/DX2                !
 ! R5    R(2,27)                 1.54           estimate D2E/DX2                !
 ! R6    R(3,4)                  1.3909         estimate D2E/DX2                !
 ! R7    R(3,11)                 1.542          estimate D2E/DX2                !
 ! R8    R(4,5)                  1.3993         estimate D2E/DX2                !
 ! R9    R(4,8)                  1.0922         estimate D2E/DX2                !
 ! R10   R(5,6)                  1.3984         estimate D2E/DX2                !
 ! R11   R(5,9)                  1.0937         estimate D2E/DX2                !
 ! R12   R(6,10)                 1.0935         estimate D2E/DX2                !
 ! R13   R(11,12)                1.1992         estimate D2E/DX2                !
 ! R14   R(12,13)                1.5413         estimate D2E/DX2                !
 ! R15   R(13,14)                1.398          estimate D2E/DX2                !
 ! R16   R(13,15)                1.3961         estimate D2E/DX2                !
 ! R17   R(14,16)                1.398          estimate D2E/DX2                !
 ! R18   R(14,17)                1.093          estimate D2E/DX2                !
 ! R19   R(15,18)                1.3983         estimate D2E/DX2                !
 ! R20   R(15,19)                1.0943         estimate D2E/DX2                !
 ! R21   R(16,20)                1.3971         estimate D2E/DX2                !
 ! R22   R(16,21)                1.0936         estimate D2E/DX2                !
 ! R23   R(18,20)                1.3969         estimate D2E/DX2                !
 ! R24   R(18,22)                1.0935         estimate D2E/DX2                !
 ! R25   R(20,23)                1.54           estimate D2E/DX2                !
 ! R26   R(23,24)                1.07           estimate D2E/DX2                !
 ! R27   R(23,25)                1.07           estimate D2E/DX2                !
 ! R28   R(23,26)                1.07           estimate D2E/DX2                !
 ! R29   R(27,28)                1.07           estimate D2E/DX2                !
 ! R30   R(27,29)                1.07           estimate D2E/DX2                !
 ! R31   R(27,30)                1.07           estimate D2E/DX2                !
 ! A1    A(2,1,6)              119.958          estimate D2E/DX2                !
 ! A2    A(2,1,7)              120.0372         estimate D2E/DX2                !
 ! A3    A(6,1,7)              120.0045         estimate D2E/DX2                !
 ! A4    A(1,2,3)              119.8047         estimate D2E/DX2                !
 ! A5    A(1,2,27)             119.971          estimate D2E/DX2                !
 ! A6    A(3,2,27)             120.204          estimate D2E/DX2                !
 ! A7    A(2,3,4)              120.1683         estimate D2E/DX2                !
 ! A8    A(2,3,11)             116.5157         estimate D2E/DX2                !
 ! A9    A(4,3,11)             123.304          estimate D2E/DX2                !
 ! A10   A(3,4,5)              119.9162         estimate D2E/DX2                !
 ! A11   A(3,4,8)              120.0131         estimate D2E/DX2                !
 ! A12   A(5,4,8)              120.0388         estimate D2E/DX2                !
 ! A13   A(4,5,6)              120.0444         estimate D2E/DX2                !
 ! A14   A(4,5,9)              119.9699         estimate D2E/DX2                !
 ! A15   A(6,5,9)              119.9857         estimate D2E/DX2                !
 ! A16   A(1,6,5)              120.0015         estimate D2E/DX2                !
 ! A17   A(1,6,10)             120.0048         estimate D2E/DX2                !
 ! A18   A(5,6,10)             119.9936         estimate D2E/DX2                !
 ! A19   A(12,13,14)           119.9238         estimate D2E/DX2                !
 ! A20   A(12,13,15)           119.8422         estimate D2E/DX2                !
 ! A21   A(14,13,15)           120.1945         estimate D2E/DX2                !
 ! A22   A(13,14,16)           119.8308         estimate D2E/DX2                !
 ! A23   A(13,14,17)           120.098          estimate D2E/DX2                !
 ! A24   A(16,14,17)           120.0575         estimate D2E/DX2                !
 ! A25   A(13,15,18)           119.9314         estimate D2E/DX2                !
 ! A26   A(13,15,19)           120.108          estimate D2E/DX2                !
 ! A27   A(18,15,19)           119.947          estimate D2E/DX2                !
 ! A28   A(14,16,20)           119.944          estimate D2E/DX2                !
 ! A29   A(14,16,21)           119.9792         estimate D2E/DX2                !
 ! A30   A(20,16,21)           120.0767         estimate D2E/DX2                !
 ! A31   A(15,18,20)           119.8756         estimate D2E/DX2                !
 ! A32   A(15,18,22)           120.0284         estimate D2E/DX2                !
 ! A33   A(20,18,22)           120.0958         estimate D2E/DX2                !
 ! A34   A(16,20,18)           120.1873         estimate D2E/DX2                !
 ! A35   A(16,20,23)           119.9076         estimate D2E/DX2                !
 ! A36   A(18,20,23)           119.9051         estimate D2E/DX2                !
 ! A37   A(20,23,24)           109.4712         estimate D2E/DX2                !
 ! A38   A(20,23,25)           109.4712         estimate D2E/DX2                !
 ! A39   A(20,23,26)           109.4712         estimate D2E/DX2                !
 ! A40   A(24,23,25)           109.4713         estimate D2E/DX2                !
 ! A41   A(24,23,26)           109.4712         estimate D2E/DX2                !
 ! A42   A(25,23,26)           109.4712         estimate D2E/DX2                !
 ! A43   A(2,27,28)            109.4712         estimate D2E/DX2                !
 ! A44   A(2,27,29)            109.4712         estimate D2E/DX2                !
 ! A45   A(2,27,30)            109.4712         estimate D2E/DX2                !
 ! A46   A(28,27,29)           109.4713         estimate D2E/DX2                !
 ! A47   A(28,27,30)           109.4712         estimate D2E/DX2                !
 ! A48   A(29,27,30)           109.4712         estimate D2E/DX2                !
 ! A49   L(3,11,12,28,-1)      181.4313         estimate D2E/DX2                !
 ! A50   L(11,12,13,28,-1)     180.0004         estimate D2E/DX2                !
 ! A51   L(3,11,12,28,-2)      179.025          estimate D2E/DX2                !
 ! A52   L(11,12,13,28,-2)     179.9998         estimate D2E/DX2                !
 ! D1    D(6,1,2,3)              1.6809         estimate D2E/DX2                !
 ! D2    D(6,1,2,27)          -179.9557         estimate D2E/DX2                !
 ! D3    D(7,1,2,3)           -178.1363         estimate D2E/DX2                !
 ! D4    D(7,1,2,27)             0.227          estimate D2E/DX2                !
 ! D5    D(2,1,6,5)              0.1967         estimate D2E/DX2                !
 ! D6    D(2,1,6,10)          -179.8961         estimate D2E/DX2                !
 ! D7    D(7,1,6,5)           -179.986          estimate D2E/DX2                !
 ! D8    D(7,1,6,10)            -0.0788         estimate D2E/DX2                !
 ! D9    D(1,2,3,4)             -3.6992         estimate D2E/DX2                !
 ! D10   D(1,2,3,11)           177.5162         estimate D2E/DX2                !
 ! D11   D(27,2,3,4)           177.9414         estimate D2E/DX2                !
 ! D12   D(27,2,3,11)           -0.8433         estimate D2E/DX2                !
 ! D13   D(1,2,27,28)          123.0531         estimate D2E/DX2                !
 ! D14   D(1,2,27,29)         -116.9469         estimate D2E/DX2                !
 ! D15   D(1,2,27,30)            3.0531         estimate D2E/DX2                !
 ! D16   D(3,2,27,28)          -58.5901         estimate D2E/DX2                !
 ! D17   D(3,2,27,29)           61.4099         estimate D2E/DX2                !
 ! D18   D(3,2,27,30)         -178.5901         estimate D2E/DX2                !
 ! D19   D(2,3,4,5)              3.816          estimate D2E/DX2                !
 ! D20   D(2,3,4,8)           -178.2399         estimate D2E/DX2                !
 ! D21   D(11,3,4,5)          -177.4853         estimate D2E/DX2                !
 ! D22   D(11,3,4,8)             0.4589         estimate D2E/DX2                !
 ! D23   D(2,3,13,14)          -24.1431         estimate D2E/DX2                !
 ! D24   D(2,3,13,15)          158.2445         estimate D2E/DX2                !
 ! D25   D(4,3,13,14)          157.4038         estimate D2E/DX2                !
 ! D26   D(4,3,13,15)          -20.2086         estimate D2E/DX2                !
 ! D27   D(3,4,5,6)             -1.9249         estimate D2E/DX2                !
 ! D28   D(3,4,5,9)            178.0            estimate D2E/DX2                !
 ! D29   D(8,4,5,6)           -179.8685         estimate D2E/DX2                !
 ! D30   D(8,4,5,9)              0.0564         estimate D2E/DX2                !
 ! D31   D(4,5,6,1)             -0.0841         estimate D2E/DX2                !
 ! D32   D(4,5,6,10)          -179.9913         estimate D2E/DX2                !
 ! D33   D(9,5,6,1)            179.991          estimate D2E/DX2                !
 ! D34   D(9,5,6,10)             0.0838         estimate D2E/DX2                !
 ! D35   D(12,13,14,16)       -179.8905         estimate D2E/DX2                !
 ! D36   D(12,13,14,17)          1.4544         estimate D2E/DX2                !
 ! D37   D(15,13,14,16)         -2.1768         estimate D2E/DX2                !
 ! D38   D(15,13,14,17)        179.1681         estimate D2E/DX2                !
 ! D39   D(12,13,15,18)        179.9195         estimate D2E/DX2                !
 ! D40   D(12,13,15,19)         -1.4191         estimate D2E/DX2                !
 ! D41   D(14,13,15,18)          2.2039         estimate D2E/DX2                !
 ! D42   D(14,13,15,19)       -179.1347         estimate D2E/DX2                !
 ! D43   D(13,14,16,20)          1.1475         estimate D2E/DX2                !
 ! D44   D(13,14,16,21)       -178.9793         estimate D2E/DX2                !
 ! D45   D(17,14,16,20)        179.8032         estimate D2E/DX2                !
 ! D46   D(17,14,16,21)         -0.3236         estimate D2E/DX2                !
 ! D47   D(13,15,18,20)         -1.1998         estimate D2E/DX2                !
 ! D48   D(13,15,18,22)        178.9699         estimate D2E/DX2                !
 ! D49   D(19,15,18,20)       -179.8633         estimate D2E/DX2                !
 ! D50   D(19,15,18,22)          0.3064         estimate D2E/DX2                !
 ! D51   D(14,16,20,18)         -0.1518         estimate D2E/DX2                !
 ! D52   D(14,16,20,23)        179.8876         estimate D2E/DX2                !
 ! D53   D(21,16,20,18)        179.9751         estimate D2E/DX2                !
 ! D54   D(21,16,20,23)          0.0145         estimate D2E/DX2                !
 ! D55   D(15,18,20,16)          0.1766         estimate D2E/DX2                !
 ! D56   D(15,18,20,23)       -179.8628         estimate D2E/DX2                !
 ! D57   D(22,18,20,16)       -179.9932         estimate D2E/DX2                !
 ! D58   D(22,18,20,23)         -0.0326         estimate D2E/DX2                !
 ! D59   D(16,20,23,24)         89.8799         estimate D2E/DX2                !
 ! D60   D(16,20,23,25)       -150.1201         estimate D2E/DX2                !
 ! D61   D(16,20,23,26)        -30.1201         estimate D2E/DX2                !
 ! D62   D(18,20,23,24)        -90.0808         estimate D2E/DX2                !
 ! D63   D(18,20,23,25)         29.9192         estimate D2E/DX2                !
 ! D64   D(18,20,23,26)        149.9192         estimate D2E/DX2                !
 --------------------------------------------------------------------------------
 Trust Radius=3.00D-01 FncErr=1.00D-07 GrdErr=1.00D-06 EigMax=2.50D+02 EigMin=1.00D-04
 Number of steps in this run=    157 maximum allowed number of steps=    180.
 GradGradGradGradGradGradGradGradGradGradGradGradGradGradGradGradGradGrad

                          Input orientation:                          
 ---------------------------------------------------------------------
 Center     Atomic      Atomic             Coordinates (Angstroms)
 Number     Number       Type             X           Y           Z
 ---------------------------------------------------------------------
      1          6           0       -5.306420   -0.950037    1.138085
      2          6           0       -3.910257   -0.978854    1.087296
      3          6           0       -3.243530   -0.498173   -0.050288
      4          6           0       -3.969271   -0.065678   -1.155262
      5          6           0       -5.367223   -0.034654   -1.103412
      6          6           0       -6.035290   -0.475849    0.043153
      7          1           0       -5.828773   -1.295255    2.034578
      8          1           0       -3.447499    0.280946   -2.050008
      9          1           0       -5.937596    0.336059   -1.959755
     10          1           0       -7.127821   -0.451371    0.082722
     11          6           0       -1.702325   -0.510980   -0.001736
     12          6           0       -0.503164   -0.515444    0.000607
     13          6           0        1.038137   -0.521178    0.003607
     14          6           0        1.733241   -0.498994    1.216317
     15          6           0        1.735313   -0.500380   -1.205823
     16          6           0        3.131236   -0.501924    1.216721
     17          1           0        1.185494   -0.501600    2.162198
     18          6           0        3.133594   -0.503838   -1.205245
     19          1           0        1.189441   -0.503497   -2.154202
     20          6           0        3.828940   -0.502741    0.006338
     21          1           0        3.677424   -0.501477    2.164168
     22          1           0        3.681197   -0.504590   -2.151735
     23          6           0        5.368939   -0.503352    0.007760
     24          1           0        5.725203   -1.512295    0.010656
     25          1           0        5.726612   -0.001314   -0.866841
     26          1           0        5.725000    0.003131    0.880455
     27          6           0       -3.107208   -1.502023    2.292703
     28          1           0       -2.479888   -2.310327    1.979629
     29          1           0       -2.501858   -0.712999    2.687535
     30          1           0       -3.781916   -1.846244    3.048468
 ---------------------------------------------------------------------
                    Distance matrix (angstroms):
                    1          2          3          4          5
     1  C    0.000000
     2  C    1.397384   0.000000
     3  C    2.423205   1.403451   0.000000
     4  C    2.798124   2.422073   1.390941   0.000000
     5  C    2.421968   2.795257   2.415365   1.399257   0.000000
     6  C    1.398207   2.420541   2.793413   2.423402   1.398420
     7  H    1.093494   2.162905   3.415478   3.891618   3.413082
     8  H    3.890352   3.412318   2.155808   1.092229   2.163558
     9  H    3.413069   3.888910   3.405877   2.164002   1.093653
    10  H    2.163322   3.411763   3.886849   3.414353   2.163394
    11  C    3.805452   2.505965   1.542023   2.582240   3.856430
    12  C    4.955199   3.606095   2.740893   3.681334   5.010897
    13  C    6.459440   5.086300   4.282068   5.159902   6.518499
    14  C    7.054530   5.665332   5.135421   6.191187   7.484206
    15  C    7.435193   6.112265   5.111179   5.721346   7.118525
    16  C    8.449913   7.058812   6.499459   7.498920   8.821857
    17  H    6.587476   5.229709   4.950895   6.145499   7.336235
    18  C    8.770639   7.422750   6.480869   7.116542   8.514363
    19  H    7.296215   6.061368   4.906905   5.272748   6.656861
    20  C    9.216058   7.828813   7.072698   7.896355   9.274699
    21  H    9.053370   7.678571   7.266598   8.347484   9.628117
    22  H    9.581158   8.267189   7.236571   7.727564   9.121058
    23  C   10.744321   9.353875   8.612666   9.420527  10.803682
    24  H   11.103330   9.710087   9.026092   9.870911  11.245731
    25  H   11.253782   9.881471   9.020925   9.700385  11.096407
    26  H   11.075520   9.687376   9.030622   9.905946  11.268299
    27  C    2.544477   1.540000   2.552628   3.833367   4.335255
    28  H    3.247748   2.148263   2.826237   4.133310   4.797971
    29  H    3.212873   2.148263   2.844627   4.164062   4.800182
    30  H    2.603241   2.148263   3.421907   4.569120   4.799288
                    6          7          8          9         10
     6  C    0.000000
     7  H    2.163297   0.000000
     8  H    3.413316   4.983846   0.000000
     9  H    2.163419   4.315986   2.492341   0.000000
    10  H    1.093521   2.491869   4.316201   2.491665   0.000000
    11  C    4.333341   4.667894   2.805031   4.742240   5.426481
    12  C    5.532432   5.753890   3.675373   5.839617   6.625476
    13  C    7.073683   7.202672   4.998166   7.297294   8.166640
    14  C    7.856649   7.647721   6.173917   8.344249   8.933406
    15  C    7.870376   8.267250   5.308923   7.755100   8.956444
    16  C    9.241382   9.032166   7.386755   9.645513  10.321665
    17  H    7.525340   7.060178   6.310283   8.272277   8.569594
    18  C    9.253525   9.562783   6.681339   9.141181  10.342062
    19  H    7.551548   8.211460   4.703979   7.178949   8.612978
    20  C    9.864335   9.900164   7.601926   9.997716  10.957147
    21  H    9.941639   9.540161   8.314806  10.495562  11.004011
    22  H    9.961349  10.420647   7.172567   9.657366  11.037685
    23  C   11.404317  11.407184   9.087305  11.507104  12.497093
    24  H   11.806120  11.731910   9.570815  11.971625  12.896937
    25  H   11.806593  11.984133   9.254397  11.720155  12.897313
    26  H   11.799786  11.683642   9.633252  12.008072  12.885572
    27  C    3.832385   2.741586   4.706794   5.428908   4.706720
    28  H    4.444787   3.499774   4.887631   5.871784   5.353247
    29  H    4.419745   3.440020   4.932187   5.873851   5.315359
    30  H    3.998449   2.349720   5.534548   5.872964   4.683631
                   11         12         13         14         15
    11  C    0.000000
    12  C    1.199171   0.000000
    13  C    2.740486   1.541315   0.000000
    14  C    3.645121   2.545531   1.397972   0.000000
    15  C    3.642429   2.542927   1.396141   2.422141   0.000000
    16  C    4.984779   3.832490   2.419314   1.397998   2.795948
    17  H    3.608627   2.743033   2.163703   1.093035   3.412604
    18  C    4.983432   3.831478   2.419207   2.797315   1.398285
    19  H    3.604924   2.740120   2.163180   3.414109   1.094262
    20  C    5.531276   4.332126   2.790865   2.419920   2.419217
    21  H    5.799390   4.707283   3.410902   2.162932   3.889555
    22  H    5.796968   4.705483   3.410504   3.890801   2.163615
    23  C    7.071274   5.872120   4.330841   3.831308   3.830931
    24  H    7.494728   6.307643   4.790715   4.291405   4.292204
    25  H    7.496484   6.310856   4.796847   4.531472   4.036638
    26  H    7.497181   6.311346   4.796921   4.037211   4.530307
    27  C    2.867109   3.606672   4.835897   5.059113   6.057473
    28  H    2.787124   3.323487   4.413866   4.649090   5.584884
    29  H    2.812870   3.354606   4.446552   4.488468   5.758217
    30  H    3.925732   4.670193   5.853195   5.965637   7.095785
                   16         17         18         19         20
    16  C    0.000000
    17  H    2.163294   0.000000
    18  C    2.421968   3.890343   0.000000
    19  H    3.890205   4.316402   2.163389   0.000000
    20  C    1.397075   3.411091   1.396940   3.410995   0.000000
    21  H    1.093608   2.491931   3.413020   4.983813   2.163144
    22  H    3.413057   4.983830   1.093486   2.491757   2.163125
    23  C    2.543404   4.705616   2.543256   4.705559   1.540000
    24  H    3.033828   5.124412   3.035101   5.126151   2.148263
    25  H    3.365683   5.481525   2.662854   4.742933   2.148263
    26  H    2.663789   4.743916   3.364900   5.480613   2.148263
    27  C    6.409065   4.409667   7.223546   6.263642   7.371308
    28  H    5.944498   4.091436   6.702089   5.815253   6.852923
    29  H    5.825769   3.730580   6.852430   6.091961   6.878373
    30  H    7.276961   5.221945   8.229241   7.320187   8.305702
                   21         22         23         24         25
    21  H    0.000000
    22  H    4.315906   0.000000
    23  C    2.740679   2.740784   0.000000
    24  H    3.138912   3.141555   1.070000   0.000000
    25  H    3.692743   2.467380   1.070000   1.747303   0.000000
    26  H    2.468829   3.691760   1.070000   1.747303   1.747303
    27  C    6.859216   8.174983   8.835348   9.122463   9.501117
    28  H    6.420163   7.634646   8.292015   8.475685   8.987802
    29  H    6.205013   7.854434   8.317126   8.688445   8.991541
    30  H    7.630999   9.194575   9.735883   9.986248  10.447274
                   26         27         28         29         30
    26  H    0.000000
    27  C    9.070162   0.000000
    28  H    8.595375   1.070000   0.000000
    29  H    8.453376   1.070000   1.747303   0.000000
    30  H    9.924814   1.070000   1.747303   1.747303   0.000000
 Stoichiometry    C16H14
 Framework group  C1[X(C16H14)]
 Deg. of freedom    84
 Full point group                 C1      NOp   1
 Largest Abelian subgroup         C1      NOp   1
 Largest concise Abelian subgroup C1      NOp   1
                         Standard orientation:                         
 ---------------------------------------------------------------------
 Center     Atomic      Atomic             Coordinates (Angstroms)
 Number     Number       Type             X           Y           Z
 ---------------------------------------------------------------------
      1          6           0       -4.581812    0.869444    0.087297
      2          6           0       -3.185209    0.874947    0.133679
      3          6           0       -2.477098   -0.325759   -0.029290
      4          6           0       -3.162282   -1.529201   -0.159553
      5          6           0       -4.560678   -1.534319   -0.208351
      6          6           0       -5.269922   -0.335343   -0.085846
      7          1           0       -5.136363    1.806984    0.183324
      8          1           0       -2.608350   -2.465443   -0.257397
      9          1           0       -5.099174   -2.476552   -0.343623
     10          1           0       -6.362767   -0.340322   -0.123956
     11          6           0       -0.938461   -0.223762   -0.023866
     12          6           0        0.259884   -0.180018   -0.015660
     13          6           0        1.800137   -0.123805   -0.005114
     14          6           0        2.456973    1.063382   -0.341981
     15          6           0        2.535216   -1.272285    0.294656
     16          6           0        3.854118    1.111539   -0.333999
     17          1           0        1.879753    1.957931   -0.589618
     18          6           0        3.932635   -1.223813    0.303103
     19          1           0        2.019449   -2.204511    0.544355
     20          6           0        4.589486   -0.032179   -0.013119
     21          1           0        4.370197    2.043575   -0.580876
     22          1           0        4.509688   -2.118074    0.554139
     23          6           0        6.128551    0.021126   -0.007108
     24          1           0        6.471962    0.300256    0.967087
     25          1           0        6.519780   -0.941925   -0.260825
     26          1           0        6.463262    0.742084   -0.723410
     27          6           0       -2.427049    2.201612    0.325390
     28          1           0       -1.800301    2.132538    1.189865
     29          1           0       -1.824644    2.396032   -0.537285
     30          1           0       -3.129429    2.998039    0.456793
 ---------------------------------------------------------------------
 Rotational constants (GHZ):           1.8799266           0.1810273           0.1664754
 Standard basis: 6-31+G(d) (6D, 7F)
 There are   332 symmetry adapted cartesian basis functions of A   symmetry.
 There are   332 symmetry adapted basis functions of A   symmetry.
   332 basis functions,   568 primitive gaussians,   332 cartesian basis functions
    55 alpha electrons       55 beta electrons
       nuclear repulsion energy       886.2874236743 Hartrees.
 NAtoms=   30 NActive=   30 NUniq=   30 SFac= 1.00D+00 NAtFMM=   60 NAOKFM=F Big=F
 Integral buffers will be    131072 words long.
 Raffenetti 2 integral format.
 Two-electron integral symmetry is turned on.
 Nuclear repulsion after empirical dispersion term =      886.2667690631 Hartrees.
 One-electron integrals computed using PRISM.
 NBasis=   332 RedAO= T EigKep=  1.24D-06  NBF=   332
 NBsUse=   328 1.00D-06 EigRej=  8.70D-07 NBFU=   328
 ExpMin= 4.38D-02 ExpMax= 3.05D+03 ExpMxC= 4.57D+02 IAcc=3 IRadAn=         5 AccDes= 0.00D+00
 Harris functional with IExCor=  402 and IRadAn=       5 diagonalized for initial guess.
 HarFok:  IExCor=  402 AccDes= 0.00D+00 IRadAn=         5 IDoV= 1 UseB2=F ITyADJ=14
 ICtDFT=  3500011 ScaDFX=  1.000000  1.000000  1.000000  1.000000
 FoFCou: FMM=F IPFlag=           0 FMFlag=      100000 FMFlg1=           0
         NFxFlg=           0 DoJE=T BraDBF=F KetDBF=T FulRan=T
         wScrn=  0.000000 ICntrl=       500 IOpCl=  0 I1Cent=   200000004 NGrid=           0
         NMat0=    1 NMatS0=      1 NMatT0=    0 NMatD0=    1 NMtDS0=    0 NMtDT0=    0
 Petite list used in FoFCou.
 Requested convergence on RMS density matrix=1.00D-08 within 128 cycles.
 Requested convergence on MAX density matrix=1.00D-06.
 Requested convergence on             energy=1.00D-06.
 No special actions if energy rises.
 SCF Done:  E(RB3LYP) =  -618.119947675     A.U. after   15 cycles
            NFock= 15  Conv=0.61D-08     -V/T= 2.0103

 **********************************************************************

            Population analysis using the SCF Density.

 **********************************************************************

 Orbital symmetries:
       Occupied  (A) (A) (A) (A) (A) (A) (A) (A) (A) (A) (A) (A)
                 (A) (A) (A) (A) (A) (A) (A) (A) (A) (A) (A) (A)
                 (A) (A) (A) (A) (A) (A) (A) (A) (A) (A) (A) (A)
                 (A) (A) (A) (A) (A) (A) (A) (A) (A) (A) (A) (A)
                 (A) (A) (A) (A) (A) (A) (A)
       Virtual   (A) (A) (A) (A) (A) (A) (A) (A) (A) (A) (A) (A)
                 (A) (A) (A) (A) (A) (A) (A) (A) (A) (A) (A) (A)
                 (A) (A) (A) (A) (A) (A) (A) (A) (A) (A) (A) (A)
                 (A) (A) (A) (A) (A) (A) (A) (A) (A) (A) (A) (A)
                 (A) (A) (A) (A) (A) (A) (A) (A) (A) (A) (A) (A)
                 (A) (A) (A) (A) (A) (A) (A) (A) (A) (A) (A) (A)
                 (A) (A) (A) (A) (A) (A) (A) (A) (A) (A) (A) (A)
                 (A) (A) (A) (A) (A) (A) (A) (A) (A) (A) (A) (A)
                 (A) (A) (A) (A) (A) (A) (A) (A) (A) (A) (A) (A)
                 (A) (A) (A) (A) (A) (A) (A) (A) (A) (A) (A) (A)
                 (A) (A) (A) (A) (A) (A) (A) (A) (A) (A) (A) (A)
                 (A) (A) (A) (A) (A) (A) (A) (A) (A) (A) (A) (A)
                 (A) (A) (A) (A) (A) (A) (A) (A) (A) (A) (A) (A)
                 (A) (A) (A) (A) (A) (A) (A) (A) (A) (A) (A) (A)
                 (A) (A) (A) (A) (A) (A) (A) (A) (A) (A) (A) (A)
                 (A) (A) (A) (A) (A) (A) (A) (A) (A) (A) (A) (A)
                 (A) (A) (A) (A) (A) (A) (A) (A) (A) (A) (A) (A)
                 (A) (A) (A) (A) (A) (A) (A) (A) (A) (A) (A) (A)
                 (A) (A) (A) (A) (A) (A) (A) (A) (A) (A) (A) (A)
                 (A) (A) (A) (A) (A) (A) (A) (A) (A) (A) (A) (A)
                 (A) (A) (A) (A) (A) (A) (A) (A) (A) (A) (A) (A)
                 (A) (A) (A) (A) (A) (A) (A) (A) (A) (A) (A) (A)
                 (A) (A) (A) (A) (A) (A) (A) (A) (A)
 The electronic state is 1-A.
 Alpha  occ. eigenvalues --  -10.22990 -10.22645 -10.20992 -10.20854 -10.20503
 Alpha  occ. eigenvalues --  -10.20477 -10.20257 -10.20061 -10.20052 -10.20025
 Alpha  occ. eigenvalues --  -10.19902 -10.19724 -10.19717 -10.19460 -10.18581
 Alpha  occ. eigenvalues --  -10.17867  -0.87054  -0.86791  -0.79352  -0.77915
 Alpha  occ. eigenvalues --   -0.76680  -0.75617  -0.73524  -0.69675  -0.68993
 Alpha  occ. eigenvalues --   -0.61961  -0.61861  -0.59820  -0.59057  -0.53845
 Alpha  occ. eigenvalues --   -0.51832  -0.47484  -0.47063  -0.47050  -0.46353
 Alpha  occ. eigenvalues --   -0.43904  -0.43403  -0.43238  -0.42899  -0.42475
 Alpha  occ. eigenvalues --   -0.41107  -0.40105  -0.39544  -0.37636  -0.36699
 Alpha  occ. eigenvalues --   -0.35607  -0.35528  -0.35022  -0.34740  -0.31094
 Alpha  occ. eigenvalues --   -0.28242  -0.26282  -0.26254  -0.25249  -0.22536
 Alpha virt. eigenvalues --   -0.04296  -0.02092  -0.01317  -0.00764   0.00315
 Alpha virt. eigenvalues --    0.00898   0.01587   0.01880   0.02506   0.03441
 Alpha virt. eigenvalues --    0.04198   0.04485   0.04906   0.05166   0.05393
 Alpha virt. eigenvalues --    0.05866   0.06425   0.06563   0.06964   0.07141
 Alpha virt. eigenvalues --    0.07601   0.08500   0.08710   0.08933   0.09198
 Alpha virt. eigenvalues --    0.10252   0.10474   0.10820   0.11502   0.11955
 Alpha virt. eigenvalues --    0.12367   0.12735   0.13158   0.13744   0.14316
 Alpha virt. eigenvalues --    0.14729   0.14963   0.15083   0.15452   0.15674
 Alpha virt. eigenvalues --    0.16131   0.16425   0.17085   0.17381   0.17861
 Alpha virt. eigenvalues --    0.18653   0.18866   0.19355   0.19829   0.20165
 Alpha virt. eigenvalues --    0.20312   0.20478   0.20977   0.21487   0.21837
 Alpha virt. eigenvalues --    0.21868   0.22040   0.22873   0.23004   0.23213
 Alpha virt. eigenvalues --    0.23590   0.23746   0.24089   0.25414   0.25771
 Alpha virt. eigenvalues --    0.25859   0.26640   0.27022   0.27106   0.27583
 Alpha virt. eigenvalues --    0.28004   0.28481   0.28900   0.29063   0.29641
 Alpha virt. eigenvalues --    0.30241   0.31271   0.31670   0.32182   0.32529
 Alpha virt. eigenvalues --    0.33332   0.33791   0.34504   0.35913   0.36438
 Alpha virt. eigenvalues --    0.36765   0.37294   0.37921   0.39895   0.40428
 Alpha virt. eigenvalues --    0.41277   0.43001   0.44474   0.48105   0.56630
 Alpha virt. eigenvalues --    0.58630   0.60075   0.60702   0.64898   0.65408
 Alpha virt. eigenvalues --    0.66085   0.66711   0.67263   0.67990   0.68435
 Alpha virt. eigenvalues --    0.69130   0.70551   0.71130   0.71244   0.71521
 Alpha virt. eigenvalues --    0.72265   0.72704   0.73274   0.73927   0.74629
 Alpha virt. eigenvalues --    0.74828   0.75279   0.75781   0.76049   0.76651
 Alpha virt. eigenvalues --    0.77317   0.78297   0.79021   0.79174   0.80437
 Alpha virt. eigenvalues --    0.80590   0.81912   0.82330   0.84354   0.85249
 Alpha virt. eigenvalues --    0.85855   0.87146   0.87926   0.88959   0.91404
 Alpha virt. eigenvalues --    0.91745   0.93205   0.94264   0.96312   0.96721
 Alpha virt. eigenvalues --    0.96926   0.98021   0.99879   1.01013   1.01155
 Alpha virt. eigenvalues --    1.02796   1.04138   1.05913   1.07486   1.09742
 Alpha virt. eigenvalues --    1.11646   1.12905   1.13374   1.14872   1.15221
 Alpha virt. eigenvalues --    1.17666   1.17808   1.19534   1.20612   1.21183
 Alpha virt. eigenvalues --    1.21918   1.23808   1.24708   1.25052   1.26069
 Alpha virt. eigenvalues --    1.26804   1.28579   1.29995   1.32635   1.33153
 Alpha virt. eigenvalues --    1.37673   1.38571   1.39421   1.42170   1.42966
 Alpha virt. eigenvalues --    1.43906   1.45272   1.45862   1.46400   1.47131
 Alpha virt. eigenvalues --    1.47819   1.49317   1.49930   1.54289   1.56316
 Alpha virt. eigenvalues --    1.57079   1.60735   1.65445   1.74835   1.78425
 Alpha virt. eigenvalues --    1.79900   1.81308   1.84025   1.84585   1.86044
 Alpha virt. eigenvalues --    1.86996   1.89078   1.90076   1.91189   1.91312
 Alpha virt. eigenvalues --    1.92504   1.92763   1.93846   1.95331   1.95936
 Alpha virt. eigenvalues --    1.97956   2.02907   2.07409   2.08866   2.10178
 Alpha virt. eigenvalues --    2.11194   2.12383   2.13261   2.14660   2.17106
 Alpha virt. eigenvalues --    2.18106   2.18415   2.19689   2.20964   2.25450
 Alpha virt. eigenvalues --    2.27136   2.28472   2.29017   2.29894   2.30657
 Alpha virt. eigenvalues --    2.32306   2.33254   2.37047   2.39174   2.39559
 Alpha virt. eigenvalues --    2.40832   2.41529   2.49336   2.51499   2.55509
 Alpha virt. eigenvalues --    2.59454   2.63056   2.64007   2.64679   2.64833
 Alpha virt. eigenvalues --    2.67038   2.70515   2.74471   2.75517   2.76805
 Alpha virt. eigenvalues --    2.77808   2.81009   2.82277   2.84268   2.90555
 Alpha virt. eigenvalues --    2.91635   2.98674   3.07149   3.18060   3.30823
 Alpha virt. eigenvalues --    3.39813   3.56663   4.18896   4.20614   4.23779
 Alpha virt. eigenvalues --    4.24255   4.25628   4.29463   4.31259   4.36028
 Alpha virt. eigenvalues --    4.36570   4.40119   4.43087   4.45583   4.55466
 Alpha virt. eigenvalues --    4.63476   4.76647   4.90160
          Condensed to atoms (all electrons):
               1          2          3          4          5          6
     1  C   13.835466  -9.258140   2.763183   1.127951  -1.086296  -0.512968
     2  C   -9.258140  25.816299  -3.650453  -8.357765   3.099010   0.749753
     3  C    2.763183  -3.650453  13.162651  -5.583169   1.035186  -0.255309
     4  C    1.127951  -8.357765  -5.583169  21.623663  -4.653460  -0.264410
     5  C   -1.086296   3.099010   1.035186  -4.653460   7.590709   0.664364
     6  C   -0.512968   0.749753  -0.255309  -0.264410   0.664364   5.571284
     7  H    0.320471  -0.089405   0.085619  -0.021406   0.006271   0.019398
     8  H   -0.023137   0.063039  -0.070134   0.379275  -0.064847   0.008694
     9  H    0.031121   0.004744   0.022230  -0.040515   0.297564  -0.012176
    10  H   -0.030682   0.031238   0.009513  -0.000521  -0.003236   0.288141
    11  C    0.296886  -1.324538  -0.783748   1.276635  -0.577633  -0.139894
    12  C    0.356131  -0.044982  -0.298202  -0.371533  -0.061076  -0.012865
    13  C    0.030733  -0.836956   0.535786   0.190464  -0.014263  -0.009028
    14  C   -0.045202   0.779773  -0.047342  -0.575065   0.053007   0.002671
    15  C    0.030238  -0.603518  -0.409942   0.692513  -0.064595   0.000889
    16  C    0.020707  -0.144878   0.005132   0.090624  -0.019905   0.000333
    17  H    0.000048   0.002816   0.000140  -0.000456   0.000011   0.000012
    18  C   -0.011732   0.107459   0.106900  -0.109283   0.025340   0.000252
    19  H    0.000082   0.001233   0.003559  -0.000870  -0.000005  -0.000005
    20  C   -0.001795  -0.027905   0.007092   0.019773  -0.000353  -0.000073
    21  H    0.000003   0.000126  -0.000135  -0.000030   0.000000   0.000000
    22  H   -0.000001  -0.000019  -0.000111   0.000052   0.000001   0.000000
    23  C   -0.000042  -0.004074   0.006413   0.002009  -0.000059  -0.000011
    24  H    0.000000   0.000000  -0.000001   0.000000   0.000000   0.000000
    25  H    0.000000  -0.000002   0.000005   0.000002   0.000000   0.000000
    26  H    0.000000   0.000002   0.000003  -0.000001   0.000000   0.000000
    27  C   -1.094185  -0.540739  -0.763250   0.945050  -0.092135   0.039248
    28  H    0.037947   0.043246  -0.084293  -0.043742   0.006151  -0.001996
    29  H   -0.082395   0.017993  -0.049229  -0.005397   0.002622  -0.000524
    30  H   -0.032042  -0.199464   0.069362   0.016711  -0.001999  -0.006135
               7          8          9         10         11         12
     1  C    0.320471  -0.023137   0.031121  -0.030682   0.296886   0.356131
     2  C   -0.089405   0.063039   0.004744   0.031238  -1.324538  -0.044982
     3  C    0.085619  -0.070134   0.022230   0.009513  -0.783748  -0.298202
     4  C   -0.021406   0.379275  -0.040515  -0.000521   1.276635  -0.371533
     5  C    0.006271  -0.064847   0.297564  -0.003236  -0.577633  -0.061076
     6  C    0.019398   0.008694  -0.012176   0.288141  -0.139894  -0.012865
     7  H    0.540660   0.000017  -0.000162  -0.004262   0.005549   0.002231
     8  H    0.000017   0.521758  -0.004150  -0.000153  -0.003876  -0.009511
     9  H   -0.000162  -0.004150   0.532024  -0.004374  -0.007097  -0.000969
    10  H   -0.004262  -0.000153  -0.004374   0.537384   0.000645   0.000347
    11  C    0.005549  -0.003876  -0.007097   0.000645   6.963167   1.139834
    12  C    0.002231  -0.009511  -0.000969   0.000347   1.139834   6.341103
    13  C   -0.000029  -0.000343  -0.000093  -0.000014  -0.572901  -0.165299
    14  C    0.000062   0.000220  -0.000009   0.000002   0.439577   0.490241
    15  C   -0.000025   0.000275   0.000014   0.000000  -0.272142  -0.401065
    16  C    0.000003   0.000018  -0.000001   0.000000  -0.203645  -0.181924
    17  H    0.000000   0.000000   0.000000   0.000000   0.001011   0.032243
    18  C   -0.000001  -0.000026   0.000003   0.000000   0.102732   0.082066
    19  H    0.000000   0.000000   0.000000   0.000000  -0.000229   0.028742
    20  C    0.000000   0.000004   0.000000   0.000000  -0.077446  -0.156793
    21  H    0.000000   0.000000   0.000000   0.000000   0.001264  -0.003356
    22  H    0.000000   0.000000   0.000000   0.000000   0.000806  -0.004914
    23  C    0.000000   0.000000   0.000000   0.000000  -0.025658   0.034723
    24  H    0.000000   0.000000   0.000000   0.000000  -0.000042   0.000135
    25  H    0.000000   0.000000   0.000000   0.000000  -0.000025   0.000375
    26  H    0.000000   0.000000   0.000000   0.000000   0.000077   0.000611
    27  C   -0.051167   0.006436   0.000164  -0.002813  -0.276599  -0.603950
    28  H    0.000188  -0.000002   0.000000   0.000002  -0.007132   0.014238
    29  H    0.000202   0.000000   0.000000   0.000003   0.027492  -0.018121
    30  H    0.004003   0.000002   0.000000  -0.000006   0.011705  -0.000789
              13         14         15         16         17         18
     1  C    0.030733  -0.045202   0.030238   0.020707   0.000048  -0.011732
     2  C   -0.836956   0.779773  -0.603518  -0.144878   0.002816   0.107459
     3  C    0.535786  -0.047342  -0.409942   0.005132   0.000140   0.106900
     4  C    0.190464  -0.575065   0.692513   0.090624  -0.000456  -0.109283
     5  C   -0.014263   0.053007  -0.064595  -0.019905   0.000011   0.025340
     6  C   -0.009028   0.002671   0.000889   0.000333   0.000012   0.000252
     7  H   -0.000029   0.000062  -0.000025   0.000003   0.000000  -0.000001
     8  H   -0.000343   0.000220   0.000275   0.000018   0.000000  -0.000026
     9  H   -0.000093  -0.000009   0.000014  -0.000001   0.000000   0.000003
    10  H   -0.000014   0.000002   0.000000   0.000000   0.000000   0.000000
    11  C   -0.572901   0.439577  -0.272142  -0.203645   0.001011   0.102732
    12  C   -0.165299   0.490241  -0.401065  -0.181924   0.032243   0.082066
    13  C    7.923970  -1.525896  -0.650268   0.800012  -0.032539   0.587836
    14  C   -1.525896  15.442769  -6.414956  -4.839721   0.364787   2.397491
    15  C   -0.650268  -6.414956  14.572023   2.584260   0.002144  -4.032482
    16  C    0.800012  -4.839721   2.584260   9.908473  -0.087704  -2.110319
    17  H   -0.032539   0.364787   0.002144  -0.087704   0.525002   0.000139
    18  C    0.587836   2.397491  -4.032482  -2.110319   0.000139   9.262478
    19  H   -0.003501   0.023046   0.323815  -0.007112  -0.000149  -0.084096
    20  C   -0.288495   0.269525   0.315541  -0.150482   0.000553   0.082083
    21  H    0.019508  -0.056754  -0.009740   0.258697  -0.004054   0.048233
    22  H    0.028028  -0.003767  -0.075995   0.040751   0.000017   0.282731
    23  C   -0.286759  -0.388806   0.450313   0.264837   0.001920  -0.367610
    24  H   -0.000450  -0.003558   0.000222  -0.000789   0.000002  -0.018403
    25  H   -0.005376  -0.010423   0.015178   0.035854   0.000002  -0.032640
    26  H   -0.000482   0.008832  -0.012578  -0.036827  -0.000004   0.046795
    27  C    0.172223  -0.096337   0.046643   0.037331  -0.000545  -0.017341
    28  H   -0.014602   0.008308  -0.004277  -0.001393  -0.000005   0.000353
    29  H   -0.008948   0.007874  -0.001767   0.001063   0.000040   0.000319
    30  H    0.004648  -0.002468   0.000626  -0.000073   0.000000  -0.000017
              19         20         21         22         23         24
     1  C    0.000082  -0.001795   0.000003  -0.000001  -0.000042   0.000000
     2  C    0.001233  -0.027905   0.000126  -0.000019  -0.004074   0.000000
     3  C    0.003559   0.007092  -0.000135  -0.000111   0.006413  -0.000001
     4  C   -0.000870   0.019773  -0.000030   0.000052   0.002009   0.000000
     5  C   -0.000005  -0.000353   0.000000   0.000001  -0.000059   0.000000
     6  C   -0.000005  -0.000073   0.000000   0.000000  -0.000011   0.000000
     7  H    0.000000   0.000000   0.000000   0.000000   0.000000   0.000000
     8  H    0.000000   0.000004   0.000000   0.000000   0.000000   0.000000
     9  H    0.000000   0.000000   0.000000   0.000000   0.000000   0.000000
    10  H    0.000000   0.000000   0.000000   0.000000   0.000000   0.000000
    11  C   -0.000229  -0.077446   0.001264   0.000806  -0.025658  -0.000042
    12  C    0.028742  -0.156793  -0.003356  -0.004914   0.034723   0.000135
    13  C   -0.003501  -0.288495   0.019508   0.028028  -0.286759  -0.000450
    14  C    0.023046   0.269525  -0.056754  -0.003767  -0.388806  -0.003558
    15  C    0.323815   0.315541  -0.009740  -0.075995   0.450313   0.000222
    16  C   -0.007112  -0.150482   0.258697   0.040751   0.264837  -0.000789
    17  H   -0.000149   0.000553  -0.004054   0.000017   0.001920   0.000002
    18  C   -0.084096   0.082083   0.048233   0.282731  -0.367610  -0.018403
    19  H    0.523714  -0.001744   0.000017  -0.004050   0.002594   0.000002
    20  C   -0.001744   6.730606   0.045739   0.035806  -0.857451  -0.053192
    21  H    0.000017   0.045739   0.540572  -0.000150  -0.022491   0.000334
    22  H   -0.004050   0.035806  -0.000150   0.539827  -0.022149   0.000341
    23  C    0.002594  -0.857451  -0.022491  -0.022149   6.584560   0.411139
    24  H    0.000002  -0.053192   0.000334   0.000341   0.411139   0.489937
    25  H   -0.000004  -0.134736   0.000097   0.002895   0.473810  -0.028281
    26  H    0.000002  -0.120583   0.002887   0.000094   0.456091  -0.028327
    27  C   -0.000063   0.013745  -0.000046  -0.000003   0.002042   0.000000
    28  H    0.000000  -0.000047   0.000000   0.000000  -0.000006   0.000000
    29  H    0.000000   0.000047   0.000000   0.000000  -0.000004   0.000000
    30  H    0.000000   0.000006   0.000000   0.000000   0.000001   0.000000
              25         26         27         28         29         30
     1  C    0.000000   0.000000  -1.094185   0.037947  -0.082395  -0.032042
     2  C   -0.000002   0.000002  -0.540739   0.043246   0.017993  -0.199464
     3  C    0.000005   0.000003  -0.763250  -0.084293  -0.049229   0.069362
     4  C    0.000002  -0.000001   0.945050  -0.043742  -0.005397   0.016711
     5  C    0.000000   0.000000  -0.092135   0.006151   0.002622  -0.001999
     6  C    0.000000   0.000000   0.039248  -0.001996  -0.000524  -0.006135
     7  H    0.000000   0.000000  -0.051167   0.000188   0.000202   0.004003
     8  H    0.000000   0.000000   0.006436  -0.000002   0.000000   0.000002
     9  H    0.000000   0.000000   0.000164   0.000000   0.000000   0.000000
    10  H    0.000000   0.000000  -0.002813   0.000002   0.000003  -0.000006
    11  C   -0.000025   0.000077  -0.276599  -0.007132   0.027492   0.011705
    12  C    0.000375   0.000611  -0.603950   0.014238  -0.018121  -0.000789
    13  C   -0.005376  -0.000482   0.172223  -0.014602  -0.008948   0.004648
    14  C   -0.010423   0.008832  -0.096337   0.008308   0.007874  -0.002468
    15  C    0.015178  -0.012578   0.046643  -0.004277  -0.001767   0.000626
    16  C    0.035854  -0.036827   0.037331  -0.001393   0.001063  -0.000073
    17  H    0.000002  -0.000004  -0.000545  -0.000005   0.000040   0.000000
    18  C   -0.032640   0.046795  -0.017341   0.000353   0.000319  -0.000017
    19  H   -0.000004   0.000002  -0.000063   0.000000   0.000000   0.000000
    20  C   -0.134736  -0.120583   0.013745  -0.000047   0.000047   0.000006
    21  H    0.000097   0.002887  -0.000046   0.000000   0.000000   0.000000
    22  H    0.002895   0.000094  -0.000003   0.000000   0.000000   0.000000
    23  C    0.473810   0.456091   0.002042  -0.000006  -0.000004   0.000001
    24  H   -0.028281  -0.028327   0.000000   0.000000   0.000000   0.000000
    25  H    0.499124  -0.026046   0.000001   0.000000   0.000000   0.000000
    26  H   -0.026046   0.498815  -0.000001   0.000000   0.000000   0.000000
    27  C    0.000001  -0.000001   7.653719   0.383904   0.444846   0.477020
    28  H    0.000000   0.000000   0.383904   0.482572  -0.029284  -0.026472
    29  H    0.000000   0.000000   0.444846  -0.029284   0.487166  -0.026768
    30  H    0.000000   0.000000   0.477020  -0.026472  -0.026768   0.510424
 Mulliken charges:
               1
     1  C   -0.672349
     2  C    0.366111
     3  C    0.182544
     4  C   -0.337098
     5  C   -0.140373
     6  C   -0.129645
     7  H    0.181783
     8  H    0.196440
     9  H    0.181682
    10  H    0.178786
    11  C    0.005224
    12  C   -0.187669
    13  C    0.123034
    14  C   -0.277881
    15  C   -0.081341
    16  C   -0.263322
    17  H    0.194570
    18  C   -0.349260
    19  H    0.195023
    20  C    0.350577
    21  H    0.179279
    22  H    0.179811
    23  C   -0.715330
    24  H    0.230931
    25  H    0.210189
    26  H    0.210639
    27  C   -0.683197
    28  H    0.236341
    29  H    0.232772
    30  H    0.201725
 Sum of Mulliken charges =   0.00000
 Mulliken charges with hydrogens summed into heavy atoms:
               1
     1  C   -0.490566
     2  C    0.366111
     3  C    0.182544
     4  C   -0.140657
     5  C    0.041309
     6  C    0.049141
    11  C    0.005224
    12  C   -0.187669
    13  C    0.123034
    14  C   -0.083311
    15  C    0.113682
    16  C   -0.084043
    18  C   -0.169449
    20  C    0.350577
    23  C   -0.063571
    27  C   -0.012359
 Electronic spatial extent (au):  <R**2>=           6255.6174
 Charge=              0.0000 electrons
 Dipole moment (field-independent basis, Debye):
    X=              0.9203    Y=              0.3591    Z=              0.0691  Tot=              0.9902
 Quadrupole moment (field-independent basis, Debye-Ang):
   XX=            -76.2528   YY=            -86.2918   ZZ=           -101.2543
   XY=             -0.5887   XZ=              0.4470   YZ=             -1.0476
 Traceless Quadrupole moment (field-independent basis, Debye-Ang):
   XX=             11.6802   YY=              1.6411   ZZ=            -13.3213
   XY=             -0.5887   XZ=              0.4470   YZ=             -1.0476
 Octapole moment (field-independent basis, Debye-Ang**2):
  XXX=             19.0739  YYY=             -3.6670  ZZZ=              1.9248  XYY=             -2.2947
  XXY=              0.4519  XXZ=             -0.6107  XZZ=              8.3940  YZZ=              3.8409
  YYZ=             -1.0689  XYZ=            -10.5098
 Hexadecapole moment (field-independent basis, Debye-Ang**3):
 XXXX=          -7125.4256 YYYY=           -825.5288 ZZZZ=           -168.4161 XXXY=             -0.9124
 XXXZ=             22.5620 YYYX=              3.2395 YYYZ=             -6.6521 ZZZX=             -0.1910
 ZZZY=              1.0241 XXYY=          -1333.2805 XXZZ=          -1433.9161 YYZZ=           -180.2656
 XXYZ=             -3.5572 YYXZ=              2.1894 ZZXY=             -4.1393
 N-N= 8.862667690631D+02 E-N=-3.201781300524D+03  KE= 6.118217170296D+02
 Evaluate density.
 Using the total density.
 Monte-Carlo method of calculating molar volume:
 based on  0.001 e/bohr**3 density envelope.
 Number of points per bohr**3 =   20 CutOff= 1.00D-04
 Using the SCF density.
 There are       429 points.  Will hold       429 in memory.
 LenV=  4026277140 MDV=  4026531840.
 Box volume = 9918.674 fraction occupied=0.217
 Integrated density= 3.3164579793121726D+02 error= 2.2164579793121726D+02
 Molar volume = 2150.202 bohr**3/mol (191.882 cm**3/mol)
 Recommended a0 for SCRF calculation =  5.16 angstrom (  9.76 bohr)
 Calling FoFJK, ICntrl=      2127 FMM=F ISym2X=0 I1Cent= 0 IOpClX= 0 NMat=1 NMatS=1 NMatT=0.
 ***** Axes restored to original set *****
 -------------------------------------------------------------------
 Center     Atomic                   Forces (Hartrees/Bohr)
 Number     Number              X              Y              Z
 -------------------------------------------------------------------
      1        6          -0.001539345    0.000304550   -0.003458314
      2        6           0.004871778   -0.005843234    0.023416674
      3        6           0.058935323   -0.008100774    0.010702604
      4        6          -0.000481221    0.008775014   -0.010837471
      5        6          -0.001611502   -0.000381657   -0.002944893
      6        6          -0.005267824    0.000941375   -0.000728925
      7        1           0.002586886    0.000670184   -0.003525073
      8        1          -0.001333416   -0.001126134    0.003640059
      9        1           0.003056089   -0.002038521    0.003107625
     10        1           0.004138155    0.000150382   -0.000177774
     11        6          -0.088773243    0.002947327   -0.011991707
     12        6           0.089155615   -0.000502264    0.000339450
     13        6          -0.063005977    0.004339794    0.001518371
     14        6           0.002025165   -0.003467856    0.009474840
     15        6           0.002128531   -0.003257274   -0.011708964
     16        6          -0.006621488    0.000376455    0.001155785
     17        1           0.001472140    0.000369170   -0.004633214
     18        6          -0.006670773    0.000564590   -0.000599606
     19        1           0.001744768    0.000268623    0.005385664
     20        6           0.024044977    0.000949637   -0.000096076
     21        1          -0.002191631    0.000547568   -0.003654417
     22        1          -0.002239589    0.000519223    0.003593228
     23        6          -0.035659531    0.001628035   -0.000007641
     24        1           0.009127199   -0.016519338    0.000053931
     25        1           0.008963617    0.007080978   -0.013282787
     26        1           0.008947947    0.007151810    0.013267906
     27        6          -0.021162041    0.011353610   -0.026609048
     28        1           0.012257931   -0.012519154   -0.002548925
     29        1           0.012096874    0.010750572    0.007832929
     30        1          -0.008995413   -0.005932690    0.013315770
 -------------------------------------------------------------------
 Cartesian Forces:  Max     0.089155615 RMS     0.018269169

 GradGradGradGradGradGradGradGradGradGradGradGradGradGradGradGradGradGrad
 Berny optimization.
 FormGI is forming the generalized inverse of G from B-inverse, IUseBI=4.
 Internal  Forces:  Max     0.057935101 RMS     0.008575634
 Search for a local minimum.
 Step number   1 out of a maximum of  157
 All quantities printed in internal units (Hartrees-Bohrs-Radians)
 Mixed Optimization -- RFO/linear search
 Second derivative matrix not updated -- first step.
 ITU=  0
     Eigenvalues ---    0.00230   0.00230   0.00230   0.00237   0.00237
     Eigenvalues ---    0.01341   0.01367   0.01513   0.01678   0.02082
     Eigenvalues ---    0.02104   0.02111   0.02111   0.02116   0.02117
     Eigenvalues ---    0.02118   0.02120   0.02122   0.02125   0.02126
     Eigenvalues ---    0.02132   0.02147   0.02164   0.03745   0.04703
     Eigenvalues ---    0.07243   0.07243   0.07243   0.07243   0.15990
     Eigenvalues ---    0.15995   0.15996   0.16000   0.16000   0.16000
     Eigenvalues ---    0.16000   0.16000   0.16000   0.16000   0.16000
     Eigenvalues ---    0.16000   0.16000   0.16000   0.21994   0.21998
     Eigenvalues ---    0.22480   0.22981   0.23992   0.24463   0.24980
     Eigenvalues ---    0.24988   0.24995   0.25000   0.28340   0.28403
     Eigenvalues ---    0.28519   0.28519   0.34325   0.34394   0.34399
     Eigenvalues ---    0.34409   0.34412   0.34413   0.34464   0.34556
     Eigenvalues ---    0.37230   0.37230   0.37230   0.37230   0.37230
     Eigenvalues ---    0.37230   0.41676   0.41751   0.42032   0.42205
     Eigenvalues ---    0.45389   0.45833   0.45928   0.45974   0.45996
     Eigenvalues ---    0.46091   0.46204   0.46783   1.05241
 RFO step:  Lambda=-3.14831994D-02 EMin= 2.30000000D-03
 Linear search not attempted -- first point.
 Maximum step size (   0.300) exceeded in Quadratic search.
    -- Step size scaled by   0.958
 Iteration  1 RMS(Cart)=  0.07870048 RMS(Int)=  0.00075060
 Iteration  2 RMS(Cart)=  0.00204830 RMS(Int)=  0.00011460
 Iteration  3 RMS(Cart)=  0.00000412 RMS(Int)=  0.00011459
 Iteration  4 RMS(Cart)=  0.00000000 RMS(Int)=  0.00011459
 Variable       Old X    -DE/DX   Delta X   Delta X   Delta X     New X
                                 (Linear)    (Quad)   (Total)
    R1        2.64067   0.00143   0.00000   0.00293   0.00297   2.64364
    R2        2.64223   0.00185   0.00000   0.00299   0.00302   2.64525
    R3        2.06640  -0.00434   0.00000  -0.01106  -0.01106   2.05535
    R4        2.65214   0.00803   0.00000   0.01674   0.01674   2.66888
    R5        2.91018  -0.01054   0.00000  -0.03187  -0.03187   2.87831
    R6        2.62850   0.00721   0.00000   0.01434   0.01431   2.64281
    R7        2.91400  -0.05790   0.00000  -0.17607  -0.17607   2.73793
    R8        2.64421  -0.00308   0.00000  -0.00619  -0.00622   2.63799
    R9        2.06401  -0.00398   0.00000  -0.01010  -0.01010   2.05391
   R10        2.64263  -0.00140   0.00000  -0.00352  -0.00353   2.63910
   R11        2.06671  -0.00472   0.00000  -0.01203  -0.01203   2.05467
   R12        2.06646  -0.00414   0.00000  -0.01055  -0.01055   2.05591
   R13        2.26611   0.03122   0.00000   0.02758   0.02759   2.29369
   R14        2.91266  -0.05794   0.00000  -0.17584  -0.17584   2.73682
   R15        2.64178   0.00271   0.00000   0.00535   0.00533   2.64711
   R16        2.63832   0.00382   0.00000   0.00750   0.00747   2.64580
   R17        2.64183  -0.00115   0.00000  -0.00229  -0.00229   2.63955
   R18        2.06554  -0.00475   0.00000  -0.01209  -0.01209   2.05345
   R19        2.64238  -0.00115   0.00000  -0.00221  -0.00221   2.64017
   R20        2.06786  -0.00554   0.00000  -0.01415  -0.01415   2.05370
   R21        2.64009   0.00428   0.00000   0.00822   0.00825   2.64834
   R22        2.06662  -0.00426   0.00000  -0.01087  -0.01087   2.05575
   R23        2.63983   0.00426   0.00000   0.00822   0.00825   2.64808
   R24        2.06639  -0.00423   0.00000  -0.01079  -0.01079   2.05560
   R25        2.91018  -0.00862   0.00000  -0.02607  -0.02607   2.88411
   R26        2.02201   0.01862   0.00000   0.04415   0.04415   2.06616
   R27        2.02201   0.01718   0.00000   0.04073   0.04073   2.06274
   R28        2.02201   0.01718   0.00000   0.04075   0.04075   2.06276
   R29        2.02201   0.01739   0.00000   0.04124   0.04124   2.06325
   R30        2.02201   0.01766   0.00000   0.04189   0.04189   2.06389
   R31        2.02201   0.01699   0.00000   0.04028   0.04028   2.06229
    A1        2.09366   0.00491   0.00000   0.01764   0.01766   2.11133
    A2        2.09504  -0.00308   0.00000  -0.01197  -0.01198   2.08306
    A3        2.09447  -0.00182   0.00000  -0.00566  -0.00568   2.08880
    A4        2.09099  -0.00796   0.00000  -0.02547  -0.02550   2.06548
    A5        2.09389   0.00342   0.00000   0.01096   0.01094   2.10483
    A6        2.09796   0.00455   0.00000   0.01482   0.01480   2.11276
    A7        2.09733   0.00239   0.00000   0.01055   0.01047   2.10781
    A8        2.03358   0.01126   0.00000   0.03718   0.03721   2.07079
    A9        2.15206  -0.01364   0.00000  -0.04758  -0.04756   2.10450
   A10        2.09293   0.00007   0.00000   0.00117   0.00102   2.09396
   A11        2.09462  -0.00068   0.00000  -0.00364  -0.00364   2.09098
   A12        2.09507   0.00064   0.00000   0.00303   0.00304   2.09811
   A13        2.09517  -0.00027   0.00000  -0.00303  -0.00312   2.09205
   A14        2.09387  -0.00061   0.00000  -0.00222  -0.00218   2.09169
   A15        2.09414   0.00088   0.00000   0.00525   0.00530   2.09944
   A16        2.09442   0.00095   0.00000   0.00069   0.00068   2.09510
   A17        2.09448  -0.00035   0.00000   0.00026   0.00027   2.09475
   A18        2.09428  -0.00059   0.00000  -0.00096  -0.00095   2.09334
   A19        2.09307   0.00071   0.00000   0.00264   0.00265   2.09571
   A20        2.09164   0.00069   0.00000   0.00254   0.00255   2.09419
   A21        2.09779  -0.00138   0.00000  -0.00473  -0.00481   2.09298
   A22        2.09144  -0.00012   0.00000  -0.00090  -0.00096   2.09048
   A23        2.09611  -0.00101   0.00000  -0.00482  -0.00483   2.09128
   A24        2.09540   0.00115   0.00000   0.00599   0.00598   2.10138
   A25        2.09320  -0.00056   0.00000  -0.00235  -0.00241   2.09079
   A26        2.09628  -0.00093   0.00000  -0.00477  -0.00477   2.09151
   A27        2.09347   0.00150   0.00000   0.00737   0.00737   2.10084
   A28        2.09342   0.00440   0.00000   0.01595   0.01597   2.10938
   A29        2.09403  -0.00228   0.00000  -0.00836  -0.00837   2.08567
   A30        2.09573  -0.00212   0.00000  -0.00759  -0.00760   2.08813
   A31        2.09222   0.00460   0.00000   0.01690   0.01692   2.10914
   A32        2.09489  -0.00244   0.00000  -0.00917  -0.00918   2.08571
   A33        2.09607  -0.00215   0.00000  -0.00773  -0.00774   2.08833
   A34        2.09766  -0.00691   0.00000  -0.02428  -0.02425   2.07342
   A35        2.09278   0.00340   0.00000   0.01196   0.01192   2.10471
   A36        2.09274   0.00351   0.00000   0.01232   0.01229   2.10503
   A37        1.91063   0.00281   0.00000   0.01321   0.01310   1.92373
   A38        1.91063   0.00362   0.00000   0.01852   0.01835   1.92899
   A39        1.91063   0.00363   0.00000   0.01857   0.01841   1.92904
   A40        1.91063  -0.00347   0.00000  -0.01818  -0.01829   1.89234
   A41        1.91063  -0.00347   0.00000  -0.01821  -0.01832   1.89231
   A42        1.91063  -0.00312   0.00000  -0.01392  -0.01413   1.89650
   A43        1.91063   0.00304   0.00000   0.01444   0.01435   1.92498
   A44        1.91063   0.00309   0.00000   0.01463   0.01454   1.92517
   A45        1.91063   0.00227   0.00000   0.01295   0.01282   1.92345
   A46        1.91063  -0.00400   0.00000  -0.02319  -0.02324   1.88739
   A47        1.91063  -0.00216   0.00000  -0.00910  -0.00922   1.90141
   A48        1.91063  -0.00224   0.00000  -0.00974  -0.00986   1.90077
   A49        3.16657  -0.00249   0.00000  -0.02997  -0.03020   3.13637
   A50        3.14160  -0.00117   0.00000  -0.03490  -0.03521   3.10639
   A51        3.12458   0.00180   0.00000   0.02353   0.02311   3.14769
   A52        3.14159   0.00079   0.00000   0.02233   0.02196   3.16354
    D1        0.02934  -0.00054   0.00000  -0.01098  -0.01091   0.01843
    D2       -3.14082   0.00017   0.00000   0.00154   0.00140  -3.13942
    D3       -3.10907  -0.00078   0.00000  -0.01409  -0.01395  -3.12302
    D4        0.00396  -0.00007   0.00000  -0.00157  -0.00164   0.00232
    D5        0.00343  -0.00012   0.00000  -0.00111  -0.00099   0.00244
    D6       -3.13978  -0.00009   0.00000  -0.00058  -0.00054  -3.14032
    D7       -3.14135   0.00011   0.00000   0.00199   0.00206  -3.13929
    D8       -0.00137   0.00015   0.00000   0.00252   0.00251   0.00113
    D9       -0.06456   0.00139   0.00000   0.02596   0.02578  -0.03878
   D10        3.09824   0.00130   0.00000   0.01907   0.01879   3.11704
   D11        3.10566   0.00070   0.00000   0.01348   0.01348   3.11914
   D12       -0.01472   0.00061   0.00000   0.00659   0.00649  -0.00823
   D13        2.14768   0.00031   0.00000  -0.00114  -0.00115   2.14653
   D14       -2.04111  -0.00084   0.00000  -0.01174  -0.01181  -2.05292
   D15        0.05329  -0.00030   0.00000  -0.00677  -0.00682   0.04647
   D16       -1.02259   0.00082   0.00000   0.01076   0.01083  -1.01176
   D17        1.07180  -0.00033   0.00000   0.00016   0.00017   1.07198
   D18       -3.11699   0.00021   0.00000   0.00513   0.00517  -3.11182
   D19        0.06660  -0.00140   0.00000  -0.02828  -0.02835   0.03826
   D20       -3.11087  -0.00044   0.00000  -0.00989  -0.00993  -3.12081
   D21       -3.09770  -0.00098   0.00000  -0.01977  -0.02014  -3.11784
   D22        0.00801  -0.00001   0.00000  -0.00138  -0.00172   0.00628
   D23       -0.42138   0.00104   0.00000   0.02205   0.02196  -0.39942
   D24        2.76189   0.00004   0.00000  -0.00003   0.00042   2.76231
   D25        2.74721   0.00011   0.00000   0.00436   0.00390   2.75112
   D26       -0.35271  -0.00089   0.00000  -0.01772  -0.01764  -0.37034
   D27       -0.03360   0.00100   0.00000   0.01714   0.01697  -0.01663
   D28        3.10669   0.00091   0.00000   0.01690   0.01687   3.12355
   D29       -3.13930   0.00007   0.00000  -0.00112  -0.00138  -3.14068
   D30        0.00098  -0.00002   0.00000  -0.00135  -0.00148  -0.00050
   D31       -0.00147  -0.00017   0.00000  -0.00212  -0.00211  -0.00358
   D32       -3.14144  -0.00021   0.00000  -0.00265  -0.00257   3.13918
   D33        3.14144  -0.00008   0.00000  -0.00188  -0.00200   3.13943
   D34        0.00146  -0.00012   0.00000  -0.00241  -0.00245  -0.00099
   D35       -3.13968   0.00029   0.00000   0.00425   0.00412  -3.13556
   D36        0.02538  -0.00043   0.00000  -0.00882  -0.00895   0.01644
   D37       -0.03799   0.00092   0.00000   0.01740   0.01748  -0.02051
   D38        3.12707   0.00019   0.00000   0.00432   0.00442   3.13149
   D39        3.14019  -0.00032   0.00000  -0.00477  -0.00462   3.13557
   D40       -0.02477   0.00038   0.00000   0.00791   0.00803  -0.01673
   D41        0.03847  -0.00095   0.00000  -0.01791  -0.01798   0.02049
   D42       -3.12649  -0.00024   0.00000  -0.00523  -0.00532  -3.13181
   D43        0.02003  -0.00048   0.00000  -0.00918  -0.00928   0.01075
   D44       -3.12378  -0.00049   0.00000  -0.00929  -0.00936  -3.13314
   D45        3.13816   0.00021   0.00000   0.00375   0.00372  -3.14131
   D46       -0.00565   0.00020   0.00000   0.00364   0.00363  -0.00202
   D47       -0.02094   0.00053   0.00000   0.01013   0.01023  -0.01071
   D48        3.12361   0.00049   0.00000   0.00914   0.00922   3.13283
   D49       -3.13921  -0.00014   0.00000  -0.00236  -0.00233  -3.14153
   D50        0.00535  -0.00018   0.00000  -0.00335  -0.00334   0.00200
   D51       -0.00265   0.00014   0.00000   0.00171   0.00172  -0.00093
   D52        3.13963   0.00053   0.00000   0.01023   0.01018  -3.13337
   D53        3.14116   0.00015   0.00000   0.00182   0.00181  -3.14022
   D54        0.00025   0.00054   0.00000   0.01034   0.01027   0.01053
   D55        0.00308  -0.00016   0.00000  -0.00216  -0.00218   0.00091
   D56       -3.13920  -0.00055   0.00000  -0.01068  -0.01064   3.13334
   D57       -3.14147  -0.00011   0.00000  -0.00118  -0.00116   3.14055
   D58       -0.00057  -0.00050   0.00000  -0.00969  -0.00963  -0.01020
   D59        1.56870  -0.00020   0.00000  -0.00430  -0.00436   1.56434
   D60       -2.62009  -0.00051   0.00000  -0.00713  -0.00724  -2.62733
   D61       -0.52570   0.00011   0.00000  -0.00146  -0.00148  -0.52718
   D62       -1.57221   0.00019   0.00000   0.00421   0.00427  -1.56793
   D63        0.52219  -0.00011   0.00000   0.00137   0.00140   0.52358
   D64        2.61658   0.00050   0.00000   0.00704   0.00715   2.62374
         Item               Value     Threshold  Converged?
 Maximum Force            0.057935     0.000450     NO 
 RMS     Force            0.008576     0.000300     NO 
 Maximum Displacement     0.281080     0.001800     NO 
 RMS     Displacement     0.079951     0.001200     NO 
 Predicted change in Energy=-1.723060D-02
 GradGradGradGradGradGradGradGradGradGradGradGradGradGradGradGradGradGrad

                          Input orientation:                          
 ---------------------------------------------------------------------
 Center     Atomic      Atomic             Coordinates (Angstroms)
 Number     Number       Type             X           Y           Z
 ---------------------------------------------------------------------
      1          6           0       -5.215899   -0.949316    1.146009
      2          6           0       -3.817671   -0.978934    1.112039
      3          6           0       -3.164826   -0.501253   -0.045647
      4          6           0       -3.899667   -0.054093   -1.148324
      5          6           0       -5.294472   -0.033911   -1.095190
      6          6           0       -5.953209   -0.479498    0.052800
      7          1           0       -5.735022   -1.296952    2.036305
      8          1           0       -3.381179    0.292164   -2.038602
      9          1           0       -5.863215    0.329959   -1.947434
     10          1           0       -7.040137   -0.462186    0.096358
     11          6           0       -1.716288   -0.500140   -0.075706
     12          6           0       -0.502622   -0.498010   -0.091391
     13          6           0        0.945126   -0.508891   -0.054266
     14          6           0        1.615891   -0.501805    1.175466
     15          6           0        1.675905   -0.494309   -1.248425
     16          6           0        3.012386   -0.505065    1.203897
     17          1           0        1.047044   -0.503619    2.101313
     18          6           0        3.072425   -0.497578   -1.207758
     19          1           0        1.154002   -0.490609   -2.201671
     20          6           0        3.755564   -0.502426    0.015740
     21          1           0        3.528683   -0.507536    2.161429
     22          1           0        3.635452   -0.494497   -2.138483
     23          6           0        5.281225   -0.516818    0.053877
     24          1           0        5.649377   -1.546305    0.061741
     25          1           0        5.690715   -0.010703   -0.822284
     26          1           0        5.646429   -0.013023    0.950723
     27          6           0       -3.023908   -1.494523    2.305376
     28          1           0       -2.375743   -2.318877    2.001396
     29          1           0       -2.395142   -0.700456    2.713955
     30          1           0       -3.701493   -1.845724    3.085446
 ---------------------------------------------------------------------
                    Distance matrix (angstroms):
                    1          2          3          4          5
     1  C    0.000000
     2  C    1.398955   0.000000
     3  C    2.414064   1.412311   0.000000
     4  C    2.792465   2.443624   1.398514   0.000000
     5  C    2.422212   2.818843   2.419782   1.395963   0.000000
     6  C    1.399807   2.435559   2.790205   2.416755   1.396554
     7  H    1.087642   2.152124   3.401994   3.880089   3.405234
     8  H    3.879333   3.425312   2.155967   1.086885   2.158019
     9  H    3.409538   3.906127   3.404263   2.154436   1.087285
    10  H    2.160302   3.418030   3.878108   3.402694   2.156514
    11  C    3.733849   2.460852   1.448851   2.473179   3.749683
    12  C    4.893855   3.559365   2.662600   3.585259   4.917808
    13  C    6.292286   4.925996   4.109968   4.987566   6.343636
    14  C    6.846495   5.454839   4.934205   6.001819   7.288891
    15  C    7.310084   5.998836   4.987926   5.593819   6.987247
    16  C    8.240473   6.847092   6.302327   7.315244   8.632016
    17  H    6.351041   4.986987   4.727504   5.935669   7.117099
    18  C    8.627898   7.286054   6.344590   6.986435   8.380492
    19  H    7.210618   5.994720   4.827094   5.180700   6.558635
    20  C    9.053417   7.666995   6.920662   7.756197   9.129996
    21  H    8.814419   7.435883   7.047999   8.144965   9.416898
    22  H    9.452046   8.145528   7.115041   7.612647   9.002453
    23  C   10.562643   9.171867   8.446652   9.270823  10.648893
    24  H   10.935551   9.542014   8.876590   9.740390  11.108270
    25  H   11.122473   9.751332   8.903057   9.596020  10.988601
    26  H   10.904355   9.514630   8.880841   9.774233  11.130567
    27  C    2.538939   1.523136   2.556120   3.843155   4.341970
    28  H    3.267089   2.159990   2.848998   4.168012   4.829999
    29  H    3.236829   2.160387   2.871846   4.195067   4.833217
    30  H    2.618853   2.158508   3.449544   4.601525   4.826797
                    6          7          8          9         10
     6  C    0.000000
     7  H    2.156415   0.000000
     8  H    3.403640   4.966964   0.000000
     9  H    2.159689   4.305049   2.483997   0.000000
    10  H    1.087938   2.482650   4.302915   2.487916   0.000000
    11  C    4.238920   4.609308   2.693060   4.624871   5.326765
    12  C    5.452525   5.704683   3.564001   5.732921   6.540309
    13  C    6.899228   7.043855   4.826613   7.116267   7.986820
    14  C    7.651938   7.443738   5.994275   8.147476   8.723123
    15  C    7.739302   8.145891   5.178515   7.616191   8.819233
    16  C    9.039224   8.822536   7.212978   9.455392  10.113442
    17  H    7.293869   6.828618   6.114027   8.052259   8.332111
    18  C    9.113255   9.419877   6.554617   9.004310  10.196367
    19  H    7.456219   8.128301   4.605127   7.069604   8.510327
    20  C    9.708870   9.735768   7.468922   9.852300  10.796077
    21  H    9.713567   9.298122   8.125637  10.285519  10.768776
    22  H    9.835872  10.289732   7.061298   9.536294  10.907051
    23  C   11.234495  11.220353   8.948193  11.354330  12.321556
    24  H   11.651530  11.557060   9.452109  11.836255  12.735788
    25  H   11.686167  11.847929   9.158079  11.613583  12.771935
    26  H   11.643688  11.504972   9.514563  11.873873  12.723233
    27  C    3.832124   2.731588   4.710631   5.429253   4.698465
    28  H    4.469743   3.511453   4.914267   5.896783   5.369641
    29  H    4.448641   3.459743   4.954227   5.900664   5.337094
    30  H    4.016683   2.353102   5.561389   5.893769   4.689922
                   11         12         13         14         15
    11  C    0.000000
    12  C    1.213769   0.000000
    13  C    2.661514   1.448264   0.000000
    14  C    3.559333   2.468408   1.400792   0.000000
    15  C    3.589189   2.466723   1.400096   2.424646   0.000000
    16  C    4.898751   3.746078   2.420032   1.396788   2.792881
    17  H    3.517872   2.685041   2.157993   1.086638   3.408269
    18  C    4.920703   3.745296   2.419933   2.793075   1.397116
    19  H    3.571888   2.682860   2.157617   3.408595   1.086772
    20  C    5.472616   4.259535   2.811317   2.433755   2.433754
    21  H    5.702153   4.618085   3.403539   2.151959   3.880730
    22  H    5.735521   4.616737   3.403238   3.880843   2.152215
    23  C    6.998732   5.785701   4.337455   3.833126   3.833383
    24  H    7.440858   6.242553   4.818679   4.312815   4.314129
    25  H    7.460604   6.255325   4.833080   4.564688   4.066222
    26  H    7.449861   6.255561   4.833026   4.066282   4.564312
    27  C    2.892787   3.618620   4.721505   4.877492   5.976469
    28  H    2.838492   3.347222   4.304645   4.462853   5.505111
    29  H    2.878051   3.390071   4.342480   4.300558   5.684750
    30  H    3.967936   4.705465   5.765066   5.807643   7.037413
                   16         17         18         19         20
    16  C    0.000000
    17  H    2.160538   0.000000
    18  C    2.412414   3.879711   0.000000
    19  H    3.879651   4.304332   2.160615   0.000000
    20  C    1.401441   3.418434   1.401303   3.418358   0.000000
    21  H    1.087858   2.482370   3.399954   4.967498   2.157656
    22  H    3.399975   4.967475   1.087777   2.482258   2.157584
    23  C    2.543680   4.703238   2.543794   4.703419   1.526205
    24  H    3.056537   5.140867   3.058126   5.142560   2.162944
    25  H    3.394591   5.509452   2.690925   4.766003   2.165384
    26  H    2.691539   4.766433   3.394014   5.508863   2.165429
    27  C    6.215234   4.194781   7.106426   6.227058   7.224121
    28  H    5.740893   3.875644   6.580147   5.785104   6.695912
    29  H    5.617812   3.501817   6.731663   6.066616   6.719431
    30  H    7.100266   5.031737   8.132347   7.305188   8.175282
                   21         22         23         24         25
    21  H    0.000000
    22  H    4.301257   0.000000
    23  C    2.741033   2.741443   0.000000
    24  H    3.159916   3.162781   1.093363   0.000000
[...]
 005385,0.00076368,0.00003896,0.00004236,0.00001585,0.00008907,0.000561
 23,-0.00043410,0.00004636,0.00001196,0.00000881,0.00170236,0.00378556,
 0.00091600,0.00003880,-0.00022855,0.00002121,0.00006785,-0.00034968,-0
 .00011401,0.07521107,-0.26060038,-0.05698287,-0.08499696,0.28295310,0.
 00000178,-0.00000114,-0.00000138,0.00000035,0.00000100,0.00001068,0.00
 000763,-0.00000299,0.00000400,-0.00000333,-0.00000041,-0.00000268,0.00
 000149,0.00000272,-0.00000360,0.00000069,-0.00000021,0.00000125,0.0000
 0142,-0.00000001,-0.00000113,-0.00000075,0.00000012,-0.00000156,0.0000
 0027,0.00000002,0.00000024,0.00000073,-0.00000011,-0.00000036,-0.00003
 802,0.00001572,-0.00002737,0.00007662,-0.00002194,-0.00000115,-0.00013
 110,-0.00031363,0.00107401,-0.00095827,0.00052092,-0.00042184,0.001252
 05,-0.00019597,-0.00063683,0.00168054,0.00064083,0.00000402,0.00002539
 ,-0.00004311,-0.00003047,-0.00189221,-0.00031813,-0.00062418,-0.000003
 22,0.00006877,-0.00000018,0.00041471,0.00096276,0.00065005,0.00007426,
 -0.00032385,-0.00020601,-0.00004391,0.00024689,-0.00007355,0.02006967,
 -0.05698060,-0.06191868,-0.02264438,0.06319555,0.06261896,0.00000802,0
 .00000140,-0.00001406,-0.00003054,0.00000709,-0.00001350,0.00005868,-0
 .00000451,0.00000420,-0.00002321,-0.00000660,0.00001879,0.00000105,-0.
 00000208,0.00001673,-0.00003447,0.00000098,-0.00000347,-0.00000535,-0.
 00000184,0.00000564,0.00000497,-0.00000182,-0.00000035,-0.00000686,0.0
 0000128,-0.00000564,-0.00000547,0.,-0.00000017,-0.00002643,0.00001612,
 0.00000925,-0.00000847,-0.00002677,-0.00010627,0.00010873,-0.00011386,
 -0.00019704,-0.00014776,0.00045476,0.00160627,-0.00008903,0.00035515,0
 .00019875,-0.00566635,-0.00002631,-0.00205521,-0.00046528,0.00004092,0
 .00001096,0.00125146,0.00009018,0.00181561,0.00003126,-0.00001066,-0.0
 0002177,-0.01305586,-0.02147526,0.02364749,0.00005153,-0.00026820,-0.0
 0003666,-0.00026514,-0.00006177,-0.00136441,-0.08263381,-0.06254421,0.
 06119200,0.00405256,0.00636711,-0.00806659,0.09236652,0.00000674,0.000
 00213,-0.00000904,-0.00002339,-0.00000048,-0.00000639,0.00005601,0.000
 01078,0.00000289,-0.00001965,-0.00000608,0.00000875,0.00000144,-0.0000
 0326,0.00001110,-0.00002521,0.00000011,-0.00000237,-0.00000357,-0.0000
 0120,0.00000432,0.00000416,0.00000076,0.00000123,-0.00000508,0.0000013
 8,-0.00000441,-0.00000450,0.00000018,0.00000024,-0.00005213,-0.0000051
 7,0.00000796,0.00005891,-0.00002919,-0.00003443,-0.00005119,0.00014448
 ,-0.00052378,0.00087100,0.00007874,0.00015729,-0.00041150,0.00012025,-
 0.00002307,-0.00011161,0.00040522,-0.00013404,0.00002055,-0.00006973,-
 0.00003002,0.00068466,0.00040896,0.00033317,-0.00003446,-0.00003768,-0
 .00000699,0.00243312,0.00173803,-0.00236186,0.00008995,-0.00005553,0.0
 0001112,-0.00027960,0.00003576,-0.00045599,-0.06460869,-0.15932456,0.1
 1495338,-0.01094011,-0.01960932,0.02116646,0.06790985,0.17007173,0.000
 00466,-0.00000277,0.00000262,-0.00000038,-0.00000222,0.00000473,0.0000
 0806,-0.00000823,-0.00000374,0.00000082,0.00000481,-0.00000977,0.00000
 529,-0.00000018,-0.00000197,0.00000234,0.00000045,0.00000065,0.0000015
 3,0.00000113,-0.00000157,-0.00000335,0.00000080,-0.00000171,0.00000268
 ,0.00000029,0.00000230,0.00000281,0.00000031,0.00000006,-0.00005568,-0
 .00001279,-0.00000494,0.00014129,0.00014201,0.00009002,-0.00030264,-0.
 00010628,0.00012723,0.00010074,0.00004810,-0.00004272,0.00060340,-0.00
 059534,-0.00003132,0.00036248,0.00057482,0.00058345,0.00006638,-0.0000
 2330,-0.00001040,-0.00192731,-0.00034947,0.00036345,0.00005468,0.00003
 022,0.00001575,0.00075028,-0.00172381,-0.00054692,-0.00017324,-0.00007
 302,0.00045035,-0.00015235,0.00043506,0.00025563,0.06267398,0.11458116
 ,-0.16636100,-0.00389937,-0.00583406,0.00632454,-0.06931682,-0.1270505
 2,0.17689955,0.00001111,0.00000233,-0.00000764,-0.00003354,0.00000751,
 -0.00002676,0.00006011,0.00000251,-0.00000547,-0.00002109,-0.00000231,
 0.00001328,0.00000126,-0.00000495,0.00002108,-0.00003550,0.00000069,-0
 .00000535,-0.00000680,-0.00000193,0.00000622,0.00000634,-0.00000142,0.
 00000316,-0.00000590,0.00000104,-0.00000517,-0.00000527,-0.00000026,0.
 00000066,-0.00002302,0.00000307,0.00001145,-0.00001384,-0.00006876,0.0
 0008664,0.00010820,-0.00019820,0.00010737,-0.00008968,0.00040956,0.000
 00492,-0.00015074,0.00121483,-0.00114127,0.00124597,0.00099937,-0.0015
 0667,0.00003131,-0.00002046,0.00001352,-0.00563431,-0.00105685,0.00174
 344,-0.00046156,0.00004139,0.00001175,-0.01299251,-0.00680685,-0.03123
 677,-0.00027016,-0.00074515,0.00113327,0.00005030,-0.00025419,-0.00010
 645,-0.08213994,-0.02354810,-0.08375331,0.00402088,0.00149633,0.010173
 08,0.00451835,0.00442937,0.01105258,0.09182558,0.00001001,0.00000138,-
 0.00000506,-0.00002282,-0.00000350,-0.00000781,0.00005160,0.00000882,0
 .00000217,-0.00001545,-0.00000082,0.00000163,0.00000370,-0.00000480,0.
 00000939,-0.00002128,0.00000077,-0.00000238,-0.00000297,-0.00000041,0.
 00000339,0.00000162,0.00000048,0.00000060,-0.00000237,0.00000098,-0.00
 000246,-0.00000242,0.00000027,0.00000022,-0.00007154,-0.00001563,0.000
 00161,0.00012048,0.00004617,0.00000884,-0.00019723,-0.00012725,0.00037
 368,-0.00005273,-0.00018930,-0.00006816,0.00080742,0.00012465,-0.00005
 232,-0.00038308,0.00040496,-0.00031447,-0.00000232,-0.00001370,-0.0000
 1015,0.00009388,0.00062333,0.00016925,0.00005148,-0.00007523,-0.000008
 66,0.00249991,-0.00058769,0.00237032,-0.00031762,0.00007576,0.00035780
 ,-0.00000780,0.00005349,-0.00024526,-0.02458514,-0.06180462,-0.0548362
 4,-0.01135197,-0.00653871,-0.02861668,0.00929447,0.00612031,0.01996326
 ,0.02409949,0.06189608,0.00000186,0.00000216,-0.00000297,-0.00001477,0
 .00000034,-0.00001775,0.00002018,0.00001532,-0.00000136,-0.00000902,-0
 .00000152,0.00001174,-0.00000490,-0.00000138,0.00000974,-0.00001451,0.
 00000043,-0.00000330,-0.00000446,-0.00000185,0.00000429,0.00000469,-0.
 00000255,0.00000337,-0.00000358,0.00000032,-0.00000351,-0.00000451,-0.
 00000053,0.00000018,0.00002688,0.00000863,0.00000095,-0.00009989,-0.00
 016496,0.00001338,0.00024224,-0.00005228,0.00041151,-0.00074118,0.0005
 0843,0.00026995,0.00034773,0.00006570,-0.00010324,0.00201484,0.0003755
 7,0.00038011,-0.00006493,-0.00004775,-0.00000752,-0.00039476,-0.000550
 20,0.00034251,-0.00004856,-0.00001621,-0.00000228,0.00050578,0.0016911
 6,0.00172573,-0.00001315,-0.00054230,0.00020470,0.00019258,-0.00016844
 ,0.00034963,-0.08600645,-0.05446019,-0.26424495,-0.00204606,-0.0015633
 8,-0.00673645,-0.00731094,-0.00600659,-0.01810764,0.09342114,0.0609114
 8,0.28550838,-0.01833703,0.00812781,-0.03031108,-0.11767331,0.01248505
 ,-0.04670635,0.01447820,-0.00264786,0.00990917,-0.00292771,-0.00125733
 ,0.00436130,-0.00063673,0.00036419,-0.00132606,-0.00313911,-0.00089130
 ,0.00293601,0.00031100,0.00041945,-0.00139304,0.00070072,-0.00031618,0
 .00116480,0.00016263,0.00002457,-0.00005638,-0.00050915,0.00026618,-0.
 00098358,-0.00244673,-0.00060153,0.00224328,0.00117382,-0.00026897,0.0
 0101847,-0.00006364,0.00001358,-0.00010454,0.00009437,-0.00000960,0.00
 007741,-0.00003247,0.00000942,-0.00002481,-0.00010957,-0.00000789,-0.0
 0000150,0.00000651,0.00000897,-0.00004031,0.00002080,-0.00000252,0.000
 00509,0.00001583,0.00000258,-0.00001067,0.00001688,0.00002382,-0.00006
 196,-0.00001071,-0.00000004,-0.00000157,-0.00000626,-0.00000044,0.0000
 0295,-0.00000606,0.00000555,-0.00000829,-0.00000342,-0.00000332,0.0000
 0249,-0.00000033,-0.00000090,-0.00000042,-0.00000171,0.00000004,0.0000
 0112,0.55634846,0.00164955,0.00596863,0.00178963,0.01440257,-0.0803345
 0,0.02782958,0.00296841,0.00135974,0.00859445,-0.00116286,0.00509407,0
 .00165889,0.00005013,-0.00078945,-0.00013082,-0.00064984,0.00768533,0.
 00175443,-0.00055101,-0.00415121,-0.00139036,0.00018424,0.00015864,0.0
 0022758,0.00002135,-0.00096723,-0.00027262,-0.00011389,0.00002399,-0.0
 0012383,0.00065412,-0.00326076,-0.00047288,-0.00002128,-0.00006418,0.0
 0012738,0.00004949,0.00024828,0.00008665,-0.00001549,-0.00011309,-0.00
 003762,-0.00000832,0.00002159,0.00001267,0.00002812,-0.00009562,-0.000
 05405,0.00000229,0.00021600,0.00006954,0.00000185,-0.00007450,-0.00000
 276,0.00000207,0.00002449,0.00000336,-0.00000183,0.00000141,0.00001749
 ,-0.00000118,0.00001224,0.00000504,0.00000115,0.00000178,-0.00000238,0
 .00000161,0.00001898,0.00000622,0.00000385,-0.00000217,-0.00000385,0.0
 0000539,0.00000305,0.00000140,0.00000245,0.00000537,-0.00000144,0.0131
 0219,0.53815812,-0.00669243,0.00197066,-0.00091525,-0.05369668,0.02776
 811,-0.17549553,-0.01052527,0.00844317,-0.02734510,0.00400056,0.001656
 30,-0.00037027,-0.00017619,-0.00012164,-0.00038656,0.00205628,0.001747
 64,0.00186434,0.00213948,-0.00136410,0.00049888,-0.00065810,0.00021344
 ,-0.00057662,-0.00004437,-0.00027268,-0.00005047,0.00040150,-0.0001135
 4,0.00041568,-0.00236690,-0.00051062,-0.00160594,0.00011454,0.00011787
 ,-0.00047027,-0.00018663,0.00009998,-0.00004603,0.00003462,-0.00004678
 ,0.00002828,0.00002950,0.00001314,-0.00002920,-0.00009206,-0.00005078,
 0.00008841,-0.00001213,0.00007160,-0.00002694,-0.00000045,0.00000095,-
 0.00006415,-0.00000681,0.00000219,0.00001329,0.00000783,-0.00001235,-0
 .00005190,0.00000183,0.00000532,-0.00000621,-0.00000224,-0.00000276,0.
 00000926,-0.00000433,0.00003456,0.00001220,-0.00002126,0.00000075,-0.0
 0000108,-0.00001042,-0.00000792,0.00000165,-0.00000877,-0.00000405,-0.
 00000354,-0.04728055,0.00471142,0.52087110,0.00002675,0.00078684,-0.00
 211193,-0.01236221,0.01232951,-0.00115572,-0.00064667,-0.00082292,0.00
 171332,-0.00050985,-0.00030270,-0.00054399,0.00019544,0.00005040,0.000
 05720,-0.00051342,-0.00100703,-0.00048118,0.00018196,0.00065623,0.0000
 9937,0.00002245,0.00001889,-0.00002427,0.00001140,0.00015578,-0.000007
 20,-0.00012359,0.00004908,-0.00015745,0.00110762,0.00000365,0.00052006
 ,-0.00019859,0.00005517,-0.00016320,-0.00006716,-0.00006121,0.00001219
 ,-0.00002652,-0.00002658,0.00008050,0.00002727,0.00000835,0.00001428,0
 .00005002,0.00001208,-0.00009309,-0.00004792,0.00001171,-0.00003694,0.
 00000592,-0.00001859,0.00001109,-0.00000248,0.00000619,-0.00000577,0.0
 0000070,-0.00000525,0.00003059,0.00000901,0.00000075,0.00001032,0.0000
 0956,0.00000363,-0.00000967,-0.00000193,-0.00000544,-0.00000607,0.0000
 1670,-0.00000370,-0.00000190,0.00001179,0.00000622,-0.00000271,0.00000
 815,0.00000393,0.00000452,-0.13683272,0.12350541,0.02586519,0.14923768
 ,-0.00078991,-0.00063462,0.00044660,0.00324196,-0.00308634,0.00062761,
 0.00110456,0.00077359,0.00018908,0.00004325,0.00018261,0.00015154,0.00
 005472,-0.00013596,0.00005852,-0.00004096,0.00004355,0.00006824,-0.000
 02330,0.00003983,-0.00004670,0.00001021,-0.00002433,0.00004682,-0.0000
 1499,-0.00000487,0.00000667,0.00002526,0.00003852,0.00006606,0.0000868
 4,-0.00017850,0.00009861,-0.00036929,-0.00001057,-0.00042955,-0.000050
 37,0.00006593,0.00001079,-0.00004992,-0.00003076,0.00021042,0.00002770
 ,-0.00000100,0.00002345,-0.00001591,0.00004331,-0.00004436,-0.00008465
 ,-0.00004251,-0.00010194,0.00003253,0.00001082,-0.00004526,-0.00000584
 ,0.00000181,-0.00000955,-0.00000284,-0.00000356,-0.00001120,0.00000303
 ,-0.00000372,0.00000656,0.00001494,0.00000172,-0.00000779,-0.00000574,
 0.00000069,-0.00001123,0.00000445,-0.00000366,0.00000100,0.00000595,0.
 00000254,-0.00000753,-0.00000063,-0.00000210,0.00000545,0.12277834,-0.
 20959574,-0.03026575,-0.13597463,0.22631163,0.00002376,0.00079405,-0.0
 0246866,-0.01837936,0.02359973,0.00394893,-0.00045491,0.00011218,-0.00
 014321,-0.00021701,-0.00097372,0.00010448,-0.00035983,0.00019303,-0.00
 018445,-0.00047275,-0.00107319,-0.00046711,-0.00024587,0.00026627,0.00
 020858,0.00007196,0.00001132,0.00001496,0.00001608,0.00007805,0.000021
 15,-0.00014378,0.00002286,-0.00018599,-0.00021106,0.00072755,-0.000566
 16,0.00047192,-0.00015729,0.00010112,0.00010986,-0.00001293,-0.0000207
 3,-0.00002959,0.00001653,0.00006157,-0.00004177,-0.00002004,-0.0000419
 7,-0.00001219,-0.00001665,-0.00000846,0.00000517,-0.00001151,0.0000256
 3,-0.00000401,0.00003825,0.00001238,0.00000417,-0.00000905,-0.00000899
 ,0.00000687,-0.00000176,-0.00000764,-0.00001411,-0.00000342,-0.0000034
 5,-0.00000765,0.00000173,0.00000246,0.00000020,0.00000359,-0.00000361,
 -0.00000440,0.00000085,0.00000245,-0.00000212,-0.00000185,0.00000083,-
 0.00000441,-0.00000254,-0.00000121,0.02443713,-0.02969972,-0.05362950,
 -0.02328978,0.03325309,0.05813620,0.00001808,0.00040989,-0.00221623,-0
 .01220940,-0.01024410,-0.00734236,-0.00063750,-0.00018460,0.00188794,-
 0.00051701,0.00052890,-0.00031311,0.00019624,-0.00006825,0.00002462,-0
 .00053140,0.00110760,0.00010001,0.00018998,-0.00061412,-0.00024945,0.0
 0002298,-0.00000351,-0.00002966,0.00001342,-0.00013038,-0.00008560,-0.
 00012367,0.00003563,-0.00016103,0.00110961,-0.00025202,0.00044813,-0.0
 0020143,0.00003559,-0.00017370,-0.00006833,0.00004152,0.00003776,-0.00
 002490,-0.00001917,0.00008606,0.00002736,-0.00001564,0.00000880,0.0000
 4759,0.00003569,-0.00008698,-0.00005030,0.00000805,-0.00003820,0.00000
 627,0.00000835,0.00001745,-0.00000257,-0.00000072,-0.00000802,0.000001
 93,0.00001747,0.00003524,0.00000973,-0.00000469,0.00000913,0.00000953,
 0.00000258,-0.00000997,-0.00000276,-0.00002717,-0.00001210,0.00001975,
 -0.00000207,-0.00000152,0.00000955,0.00000576,-0.00000413,0.00000697,0
 .00000318,0.00000671,-0.13308410,-0.11828192,-0.04030252,0.01212489,0.
 01545241,0.00583643,0.14513364,0.00067285,-0.00055206,0.00065245,0.006
 27351,0.00933128,0.00251955,-0.00073745,0.00065478,0.00031620,0.000070
 46,-0.00019094,-0.00033579,0.00013969,-0.00003690,0.00002941,0.0002765
 0,-0.00051135,-0.00010413,0.00014567,0.00017334,0.00002667,-0.00004515
 ,0.00001072,-0.00004954,0.00000429,0.00003736,0.00000279,0.00004937,0.
 00002033,0.00005351,0.00004648,0.00008078,0.00029455,0.00007707,-0.000
 23858,0.00022443,-0.00001512,0.00004264,0.00002550,0.00005948,0.000089
 61,-0.00019323,-0.00000213,-0.00000950,-0.00000290,0.00001854,0.000005
 00,0.00005155,0.00007052,-0.00006947,0.00004428,-0.00002608,0.00000654
 ,0.00004208,0.00000281,-0.00000915,0.00000919,0.00000012,-0.00000494,0
 .00001049,0.00000560,-0.00000285,-0.00000572,-0.00000918,-0.00000139,0
 .00000574,0.00000437,-0.00001562,0.00000516,0.00000042,0.00000390,-0.0
 0000026,-0.00000525,-0.00000117,0.00000534,0.00000179,0.00000170,-0.00
 000188,-0.11693027,-0.19867785,-0.05489720,-0.01575708,-0.02114457,-0.
 00692604,0.12761227,0.21537233,0.00042961,0.00034245,-0.00253958,-0.01
 717589,-0.02066290,-0.00862239,-0.00096267,0.00035585,-0.00003273,-0.0
 0022345,0.00079304,0.00048339,-0.00033415,-0.00011090,-0.00028317,-0.0
 0040211,0.00103386,0.00010486,-0.00019498,-0.00028841,0.00006644,0.000
 05694,-0.00001259,-0.00002077,0.00002254,-0.00006768,-0.00002304,-0.00
 013765,0.00009708,-0.00016757,-0.00021352,-0.00034973,-0.00082670,0.00
 059179,-0.00003165,0.00033244,0.00011947,0.00005149,0.00000596,-0.0000
 0066,0.00000162,-0.00006431,-0.00005000,0.00003845,-0.00003452,-0.0000
 0260,0.00002593,0.00003156,0.00004852,-0.00004669,0.00005946,-0.000020
 24,-0.00003925,0.00001604,0.00000659,0.00000847,0.00000225,0.00000857,
 -0.00001055,-0.00000369,-0.00001435,0.00000302,-0.00000532,-0.00001342
 ,-0.00000431,0.00000443,0.00000290,0.00000393,0.00000909,-0.00000698,0
 .00000311,-0.00000024,-0.00000542,-0.00000261,0.00000223,-0.00000225,-
 0.00000081,-0.00000473,-0.04115269,-0.05548384,-0.06828996,-0.00275036
 ,-0.00459317,-0.00170223,0.04885358,0.05914376,0.07317225,0.00056832,0
 .00049504,-0.00178078,0.01125667,0.00398046,-0.01413492,-0.00222576,0.
 00075270,-0.00283398,0.00051967,0.00017148,-0.00062322,0.00005966,0.00
 001340,-0.00004846,0.00035882,-0.00002005,0.00008911,-0.00042007,0.000
 04975,-0.00020494,-0.00010503,0.00005799,-0.00021022,-0.00000055,-0.00
 000723,0.00002583,0.00004771,-0.00001644,0.00006205,-0.00071007,-0.000
 12721,0.00043611,0.00052793,-0.00007722,0.00029691,0.00015091,-0.00000
 206,0.00001380,-0.00000125,0.00001485,-0.00005006,-0.00006273,0.000014
 41,-0.00004982,-0.00001207,-0.00001163,0.00004557,0.00006130,-0.000015
 18,0.00005803,-0.00002975,0.00000011,0.00000171,0.00001417,0.00000093,
 -0.00000552,0.00000588,-0.00001370,-0.00000405,-0.00002181,0.00000241,
 -0.00001271,-0.00001907,-0.00000347,0.00001008,0.00000465,0.00001553,0
 .00001029,-0.00001858,0.00000500,0.00000204,-0.00001011,-0.00000614,0.
 00000443,-0.00000895,-0.00000448,-0.00000859,-0.15750845,-0.03582863,0
 .12743674,-0.01171423,-0.00545717,0.01291106,-0.01149415,-0.00200410,0
 .01352288,0.17078697,-0.00063946,-0.00017158,-0.00033909,-0.00499876,-
 0.00289646,0.00515823,0.00105600,0.00072490,0.00124786,-0.00042047,0.0
 0034814,0.00026075,0.00006892,0.00006353,-0.00006266,0.00007485,-0.000
 18483,-0.00002049,0.00040130,0.00039995,-0.00002469,0.00007677,-0.0001
 6080,0.00006668,0.00002229,0.00001544,-0.00001138,0.00000272,-0.000029
 11,-0.00000991,0.00022467,0.00014516,0.00003838,-0.00004818,0.00006071
 ,-0.00003788,0.00002873,0.00001356,0.00000555,-0.00001570,-0.00000556,
 0.00001039,-0.00001074,0.00000827,-0.00000262,-0.00000285,0.00001266,0
 .00000585,0.00000118,-0.00003069,-0.00000925,-0.00000262,-0.00000899,-
 0.00000818,0.00000254,0.00000262,-0.00000128,-0.00000043,-0.00000835,-
 0.00000202,-0.00000356,0.00000250,-0.00000151,-0.00000237,-0.00000052,
 0.00000153,0.00000059,0.00000479,0.00000164,-0.00000404,0.00000049,0.0
 0000012,-0.00000152,-0.00000106,0.00000035,-0.00000166,-0.00000075,-0.
 00000155,-0.03469359,-0.06087542,0.04081304,0.01632130,0.00738625,-0.0
 2020936,-0.01545654,-0.00436398,0.01980304,0.03802065,0.05954911,0.002
 35227,-0.00030809,0.00092647,0.01856640,0.00541291,-0.02063587,-0.0039
 4018,0.00124041,-0.00356564,0.00153449,0.00027703,-0.00054587,-0.00025
 016,-0.00006396,0.00027278,-0.00025737,-0.00002349,-0.00011405,-0.0014
 8322,-0.00003411,0.00047488,-0.00027870,0.00006615,-0.00039195,-0.0000
 8154,-0.00001216,0.00005434,-0.00000769,-0.00001043,0.00000597,-0.0008
 4079,0.00002809,0.00002554,0.00018783,-0.00003798,0.00019698,-0.000101
 21,0.00000387,-0.00000358,0.00005756,0.00001111,-0.00004491,0.00003725
 ,-0.00000272,0.00001498,0.00001004,0.00000492,-0.00000554,-0.00000033,
 -0.00000933,0.00000365,0.00000864,-0.00000833,0.00001885,-0.00000881,-
 0.00000092,0.00000716,0.00000172,0.00000809,0.00000064,0.00001192,-0.0
 0000093,0.00000717,0.00000844,0.00000179,-0.00000539,-0.00000225,-0.00
 001348,-0.00000137,0.00001331,-0.00000231,-0.00000146,0.00000518,0.000
 00398,-0.00000134,0.00000676,0.00000340,0.00000429,0.12330455,0.040780
 45,-0.19443856,0.00242258,0.00030353,-0.00319740,-0.00631730,-0.000945
 96,0.00833055,-0.13495938,-0.04667154,0.21260868\\-0.00000187,-0.00000
 039,-0.00000109,0.00000305,0.00000040,-0.00000180,0.00000507,-0.000000
 78,0.00000612,-0.00000487,0.00000160,-0.00000238,0.00000393,0.00000062
 ,-0.00000135,0.00000047,-0.00000165,0.00000375,0.00000087,-0.00000002,
 0.00000031,-0.00000005,-0.00000027,0.00000035,-0.00000029,-0.00000018,
 0.00000066,-0.00000010,0.00000064,0.00000005,-0.00000732,-0.00000087,0
 .00000045,-0.00000156,0.00000081,-0.00000136,-0.00000134,-0.00000166,0
 .00000464,-0.00000126,-0.00000023,-0.00000156,0.00000618,0.00000152,-0
 .00000348,0.00000337,0.00000242,-0.00000183,0.00000037,-0.00000032,-0.
 00000012,-0.00000355,0.00000034,-0.00000287,-0.00000060,0.00000018,0.0
 0000021,-0.00000045,-0.00000231,0.00000568,-0.00000027,-0.00000010,-0.
 00000073,-0.00000015,0.,-0.00000011,-0.00000090,-0.00000046,-0.0000001
 8,0.00000015,0.00000041,-0.00000220,0.00000042,0.00000154,-0.00000092,
 -0.00000006,-0.00000040,-0.00000039,-0.00000086,0.00000204,-0.00000015
 ,0.00000084,-0.00000131,-0.00000053,0.00000068,-0.00000088,0.00000040,
 0.00000008,-0.00000071,0.00000043\\\@


 ...THOSE SCIENCES ARE VAIN AND FULL OF ERRORS WHICH 
 ARE NOT BORN FROM EXPERIMENT, THE MOTHER OF CERTAINTY...

                          -- LEONARDO DA VINCI, 1452-1519
 Job cpu time:       0 days  2 hours 27 minutes 48.4 seconds.
 Elapsed time:       0 days  0 hours  4 minutes 55.7 seconds.
 File lengths (MBytes):  RWF=    333 Int=      0 D2E=      0 Chk=     12 Scr=      1
 Normal termination of Gaussian 16 at Sat Sep 16 13:23:31 2023.
