 Entering Gaussian System, Link 0=/home/ubuntu/g16/g16
 Input=/home/ubuntu/products/molecule_16.gjf
 Output=/home/ubuntu/products/molecule_16.log
 Initial command:
 /home/ubuntu/g16/l1.exe "/home/ubuntu/Scratch/Gau-50895.inp" -scrdir="/home/ubuntu/Scratch/"
 Entering Link 1 = /home/ubuntu/g16/l1.exe PID=     50897.
  
 Copyright (c) 1988-2017, Gaussian, Inc.  All Rights Reserved.
  
 This is part of the Gaussian(R) 16 program.  It is based on
 the Gaussian(R) 09 system (copyright 2009, Gaussian, Inc.),
 the Gaussian(R) 03 system (copyright 2003, Gaussian, Inc.),
 the Gaussian(R) 98 system (copyright 1998, Gaussian, Inc.),
 the Gaussian(R) 94 system (copyright 1995, Gaussian, Inc.),
 the Gaussian 92(TM) system (copyright 1992, Gaussian, Inc.),
 the Gaussian 90(TM) system (copyright 1990, Gaussian, Inc.),
 the Gaussian 88(TM) system (copyright 1988, Gaussian, Inc.),
 the Gaussian 86(TM) system (copyright 1986, Carnegie Mellon
 University), and the Gaussian 82(TM) system (copyright 1983,
 Carnegie Mellon University). Gaussian is a federally registered
 trademark of Gaussian, Inc.
  
 This software contains proprietary and confidential information,
 including trade secrets, belonging to Gaussian, Inc.
  
 This software is provided under written license and may be
 used, copied, transmitted, or stored only in accord with that
 written license.
  
 The following legend is applicable only to US Government
 contracts under FAR:
  
                    RESTRICTED RIGHTS LEGEND
  
 Use, reproduction and disclosure by the US Government is
 subject to restrictions as set forth in subparagraphs (a)
 and (c) of the Commercial Computer Software - Restricted
 Rights clause in FAR 52.227-19.
  
 Gaussian, Inc.
 340 Quinnipiac St., Bldg. 40, Wallingford CT 06492
  
  
 ---------------------------------------------------------------
 Warning -- This program may not be used in any manner that
 competes with the business of Gaussian, Inc. or will provide
 assistance to any competitor of Gaussian, Inc.  The licensee
 of this program is prohibited from giving any competitor of
 Gaussian, Inc. access to this program.  By using this program,
 the user acknowledges that Gaussian, Inc. is engaged in the
 business of creating and licensing software in the field of
 computational chemistry and represents and warrants to the
 licensee that it is not a competitor of Gaussian, Inc. and that
 it will not use this program in any manner prohibited above.
 ---------------------------------------------------------------
  

 Cite this work as:
 Gaussian 16, Revision B.01,
 M. J. Frisch, G. W. Trucks, H. B. Schlegel, G. E. Scuseria, 
 M. A. Robb, J. R. Cheeseman, G. Scalmani, V. Barone, 
 G. A. Petersson, H. Nakatsuji, X. Li, M. Caricato, A. V. Marenich, 
 J. Bloino, B. G. Janesko, R. Gomperts, B. Mennucci, H. P. Hratchian, 
 J. V. Ortiz, A. F. Izmaylov, J. L. Sonnenberg, D. Williams-Young, 
 F. Ding, F. Lipparini, F. Egidi, J. Goings, B. Peng, A. Petrone, 
 T. Henderson, D. Ranasinghe, V. G. Zakrzewski, J. Gao, N. Rega, 
 G. Zheng, W. Liang, M. Hada, M. Ehara, K. Toyota, R. Fukuda, 
 J. Hasegawa, M. Ishida, T. Nakajima, Y. Honda, O. Kitao, H. Nakai, 
 T. Vreven, K. Throssell, J. A. Montgomery, Jr., J. E. Peralta, 
 F. Ogliaro, M. J. Bearpark, J. J. Heyd, E. N. Brothers, K. N. Kudin, 
 V. N. Staroverov, T. A. Keith, R. Kobayashi, J. Normand, 
 K. Raghavachari, A. P. Rendell, J. C. Burant, S. S. Iyengar, 
 J. Tomasi, M. Cossi, J. M. Millam, M. Klene, C. Adamo, R. Cammi, 
 J. W. Ochterski, R. L. Martin, K. Morokuma, O. Farkas, 
 J. B. Foresman, and D. J. Fox, Gaussian, Inc., Wallingford CT, 2016.
 
 ******************************************
 Gaussian 16:  EM64L-G16RevB.01 20-Dec-2017
                17-Sep-2023 
 ******************************************
 %nprocshared=30
 Will use up to   30 processors via shared memory.
 %mem=30GB
 %chk=molecule_16.chk
 ---------------------------------------------------------
 # opt freq b3lyp/6-31+g(d) empiricaldispersion=gd3 volume
 ---------------------------------------------------------
 1/18=20,19=15,26=3,38=1/1,3;
 2/9=110,12=2,17=6,18=5,40=1/2;
 3/5=1,6=6,7=11,11=2,25=1,30=1,71=1,74=-5,124=31/1,2,3;
 4//1;
 5/5=2,38=5/2;
 6/7=2,8=2,9=2,10=2,28=1,44=1/1,4;
 7//1,2,3,16;
 1/18=20,19=15,26=3/3(2);
 2/9=110/2;
 99//99;
 2/9=110/2;
 3/5=1,6=6,7=11,11=2,25=1,30=1,71=1,74=-5,124=31/1,2,3;
 4/5=5,16=3,69=1/1;
 5/5=2,38=5/2;
 7//1,2,3,16;
 1/18=20,19=15,26=3/3(-5);
 2/9=110/2;
 6/7=2,8=2,9=2,10=2,19=2,28=1,44=1/1,4;
 99/9=1/99;
 -------------------
 Title Card Required
 -------------------
 Symbolic Z-matrix:
 Charge =  0 Multiplicity = 1
 C                    -5.30642  -0.95004   1.13808 
 C                    -3.91026  -0.97885   1.0873 
 C                    -3.24353  -0.49817  -0.05029 
 C                    -3.96927  -0.06568  -1.15526 
 C                    -5.36722  -0.03465  -1.10341 
 C                    -6.03529  -0.47585   0.04315 
 H                    -5.82877  -1.29526   2.03458 
 H                    -3.33932  -1.35081   1.9443 
 H                    -3.4475    0.28095  -2.05001 
 H                    -5.9376    0.33606  -1.95976 
 H                    -7.12782  -0.45137   0.08272 
 C                    -1.70232  -0.51098  -0.00174 
 C                    -0.50316  -0.51544   0.00061 
 C                     1.03814  -0.52118   0.00361 
 C                     1.73324  -0.49899   1.21632 
 C                     1.73531  -0.50038  -1.20582 
 C                     3.13124  -0.50192   1.21672 
 H                     1.18549  -0.5016    2.1622 
 C                     3.13359  -0.50384  -1.20525 
 H                     1.18944  -0.5035   -2.1542 
 C                     3.82894  -0.50274   0.00634 
 H                     3.67742  -0.50148   2.16417 
 H                     3.6812   -0.50459  -2.15173 
 F                     5.17894  -0.50328   0.00758 
 

 GradGradGradGradGradGradGradGradGradGradGradGradGradGradGradGradGradGrad
 Berny optimization.
 Initialization pass.
                           ----------------------------
                           !    Initial Parameters    !
                           ! (Angstroms and Degrees)  !
 --------------------------                            --------------------------
 ! Name  Definition              Value          Derivative Info.                !
 --------------------------------------------------------------------------------
 ! R1    R(1,2)                  1.3974         estimate D2E/DX2                !
 ! R2    R(1,6)                  1.3982         estimate D2E/DX2                !
 ! R3    R(1,7)                  1.0935         estimate D2E/DX2                !
 ! R4    R(2,3)                  1.4035         estimate D2E/DX2                !
 ! R5    R(2,8)                  1.0949         estimate D2E/DX2                !
 ! R6    R(3,4)                  1.3909         estimate D2E/DX2                !
 ! R7    R(3,12)                 1.542          estimate D2E/DX2                !
 ! R8    R(4,5)                  1.3993         estimate D2E/DX2                !
 ! R9    R(4,9)                  1.0922         estimate D2E/DX2                !
 ! R10   R(5,6)                  1.3984         estimate D2E/DX2                !
 ! R11   R(5,10)                 1.0937         estimate D2E/DX2                !
 ! R12   R(6,11)                 1.0935         estimate D2E/DX2                !
 ! R13   R(12,13)                1.1992         estimate D2E/DX2                !
 ! R14   R(13,14)                1.5413         estimate D2E/DX2                !
 ! R15   R(14,15)                1.398          estimate D2E/DX2                !
 ! R16   R(14,16)                1.3961         estimate D2E/DX2                !
 ! R17   R(15,17)                1.398          estimate D2E/DX2                !
 ! R18   R(15,18)                1.093          estimate D2E/DX2                !
 ! R19   R(16,19)                1.3983         estimate D2E/DX2                !
 ! R20   R(16,20)                1.0943         estimate D2E/DX2                !
 ! R21   R(17,21)                1.3971         estimate D2E/DX2                !
 ! R22   R(17,22)                1.0936         estimate D2E/DX2                !
 ! R23   R(19,21)                1.3969         estimate D2E/DX2                !
 ! R24   R(19,23)                1.0935         estimate D2E/DX2                !
 ! R25   R(21,24)                1.35           estimate D2E/DX2                !
 ! A1    A(2,1,6)              119.958          estimate D2E/DX2                !
 ! A2    A(2,1,7)              120.0372         estimate D2E/DX2                !
 ! A3    A(6,1,7)              120.0045         estimate D2E/DX2                !
 ! A4    A(1,2,3)              119.8047         estimate D2E/DX2                !
 ! A5    A(1,2,8)              119.971          estimate D2E/DX2                !
 ! A6    A(3,2,8)              120.204          estimate D2E/DX2                !
 ! A7    A(2,3,4)              120.1683         estimate D2E/DX2                !
 ! A8    A(2,3,12)             116.5157         estimate D2E/DX2                !
 ! A9    A(4,3,12)             123.304          estimate D2E/DX2                !
 ! A10   A(3,4,5)              119.9162         estimate D2E/DX2                !
 ! A11   A(3,4,9)              120.0131         estimate D2E/DX2                !
 ! A12   A(5,4,9)              120.0388         estimate D2E/DX2                !
 ! A13   A(4,5,6)              120.0444         estimate D2E/DX2                !
 ! A14   A(4,5,10)             119.9699         estimate D2E/DX2                !
 ! A15   A(6,5,10)             119.9857         estimate D2E/DX2                !
 ! A16   A(1,6,5)              120.0015         estimate D2E/DX2                !
 ! A17   A(1,6,11)             120.0048         estimate D2E/DX2                !
 ! A18   A(5,6,11)             119.9936         estimate D2E/DX2                !
 ! A19   A(13,14,15)           119.9238         estimate D2E/DX2                !
 ! A20   A(13,14,16)           119.8422         estimate D2E/DX2                !
 ! A21   A(15,14,16)           120.1945         estimate D2E/DX2                !
 ! A22   A(14,15,17)           119.8308         estimate D2E/DX2                !
 ! A23   A(14,15,18)           120.098          estimate D2E/DX2                !
 ! A24   A(17,15,18)           120.0575         estimate D2E/DX2                !
 ! A25   A(14,16,19)           119.9314         estimate D2E/DX2                !
 ! A26   A(14,16,20)           120.108          estimate D2E/DX2                !
 ! A27   A(19,16,20)           119.947          estimate D2E/DX2                !
 ! A28   A(15,17,21)           119.944          estimate D2E/DX2                !
 ! A29   A(15,17,22)           119.9792         estimate D2E/DX2                !
 ! A30   A(21,17,22)           120.0767         estimate D2E/DX2                !
 ! A31   A(16,19,21)           119.8756         estimate D2E/DX2                !
 ! A32   A(16,19,23)           120.0284         estimate D2E/DX2                !
 ! A33   A(21,19,23)           120.0958         estimate D2E/DX2                !
 ! A34   A(17,21,19)           120.1873         estimate D2E/DX2                !
 ! A35   A(17,21,24)           119.9076         estimate D2E/DX2                !
 ! A36   A(19,21,24)           119.9051         estimate D2E/DX2                !
 ! A37   L(3,12,13,8,-1)       181.6583         estimate D2E/DX2                !
 ! A38   L(12,13,14,20,-1)     179.9996         estimate D2E/DX2                !
 ! A39   L(3,12,13,8,-2)       179.4663         estimate D2E/DX2                !
 ! A40   L(12,13,14,20,-2)     179.9998         estimate D2E/DX2                !
 ! D1    D(6,1,2,3)              1.6809         estimate D2E/DX2                !
 ! D2    D(6,1,2,8)           -179.9557         estimate D2E/DX2                !
 ! D3    D(7,1,2,3)           -178.1363         estimate D2E/DX2                !
 ! D4    D(7,1,2,8)              0.227          estimate D2E/DX2                !
 ! D5    D(2,1,6,5)              0.1967         estimate D2E/DX2                !
 ! D6    D(2,1,6,11)          -179.8961         estimate D2E/DX2                !
 ! D7    D(7,1,6,5)           -179.986          estimate D2E/DX2                !
 ! D8    D(7,1,6,11)            -0.0788         estimate D2E/DX2                !
 ! D9    D(1,2,3,4)             -3.6992         estimate D2E/DX2                !
 ! D10   D(1,2,3,12)           177.5162         estimate D2E/DX2                !
 ! D11   D(8,2,3,4)            177.9414         estimate D2E/DX2                !
 ! D12   D(8,2,3,12)            -0.8433         estimate D2E/DX2                !
 ! D13   D(2,3,4,5)              3.816          estimate D2E/DX2                !
 ! D14   D(2,3,4,9)           -178.2399         estimate D2E/DX2                !
 ! D15   D(12,3,4,5)          -177.4853         estimate D2E/DX2                !
 ! D16   D(12,3,4,9)             0.4589         estimate D2E/DX2                !
 ! D17   D(2,3,14,15)          -24.1431         estimate D2E/DX2                !
 ! D18   D(2,3,14,16)          158.2445         estimate D2E/DX2                !
 ! D19   D(4,3,14,15)          157.4038         estimate D2E/DX2                !
 ! D20   D(4,3,14,16)          -20.2086         estimate D2E/DX2                !
 ! D21   D(3,4,5,6)             -1.9249         estimate D2E/DX2                !
 ! D22   D(3,4,5,10)           178.0            estimate D2E/DX2                !
 ! D23   D(9,4,5,6)           -179.8685         estimate D2E/DX2                !
 ! D24   D(9,4,5,10)             0.0564         estimate D2E/DX2                !
 ! D25   D(4,5,6,1)             -0.0841         estimate D2E/DX2                !
 ! D26   D(4,5,6,11)          -179.9913         estimate D2E/DX2                !
 ! D27   D(10,5,6,1)           179.991          estimate D2E/DX2                !
 ! D28   D(10,5,6,11)            0.0838         estimate D2E/DX2                !
 ! D29   D(13,14,15,17)       -179.8905         estimate D2E/DX2                !
 ! D30   D(13,14,15,18)          1.4544         estimate D2E/DX2                !
 ! D31   D(16,14,15,17)         -2.1768         estimate D2E/DX2                !
 ! D32   D(16,14,15,18)        179.1681         estimate D2E/DX2                !
 ! D33   D(13,14,16,19)        179.9195         estimate D2E/DX2                !
 ! D34   D(13,14,16,20)         -1.4191         estimate D2E/DX2                !
 ! D35   D(15,14,16,19)          2.2039         estimate D2E/DX2                !
 ! D36   D(15,14,16,20)       -179.1347         estimate D2E/DX2                !
 ! D37   D(14,15,17,21)          1.1475         estimate D2E/DX2                !
 ! D38   D(14,15,17,22)       -178.9793         estimate D2E/DX2                !
 ! D39   D(18,15,17,21)        179.8032         estimate D2E/DX2                !
 ! D40   D(18,15,17,22)         -0.3236         estimate D2E/DX2                !
 ! D41   D(14,16,19,21)         -1.1998         estimate D2E/DX2                !
 ! D42   D(14,16,19,23)        178.9699         estimate D2E/DX2                !
 ! D43   D(20,16,19,21)       -179.8633         estimate D2E/DX2                !
 ! D44   D(20,16,19,23)          0.3064         estimate D2E/DX2                !
 ! D45   D(15,17,21,19)         -0.1518         estimate D2E/DX2                !
 ! D46   D(15,17,21,24)        179.8876         estimate D2E/DX2                !
 ! D47   D(22,17,21,19)        179.9751         estimate D2E/DX2                !
 ! D48   D(22,17,21,24)          0.0145         estimate D2E/DX2                !
 ! D49   D(16,19,21,17)          0.1766         estimate D2E/DX2                !
 ! D50   D(16,19,21,24)       -179.8628         estimate D2E/DX2                !
 ! D51   D(23,19,21,17)       -179.9932         estimate D2E/DX2                !
 ! D52   D(23,19,21,24)         -0.0326         estimate D2E/DX2                !
 --------------------------------------------------------------------------------
 Trust Radius=3.00D-01 FncErr=1.00D-07 GrdErr=1.00D-06 EigMax=2.50D+02 EigMin=1.00D-04
 Number of steps in this run=    127 maximum allowed number of steps=    144.
 GradGradGradGradGradGradGradGradGradGradGradGradGradGradGradGradGradGrad

                          Input orientation:                          
 ---------------------------------------------------------------------
 Center     Atomic      Atomic             Coordinates (Angstroms)
 Number     Number       Type             X           Y           Z
 ---------------------------------------------------------------------
      1          6           0       -5.306420   -0.950037    1.138085
      2          6           0       -3.910257   -0.978854    1.087296
      3          6           0       -3.243530   -0.498173   -0.050288
      4          6           0       -3.969271   -0.065678   -1.155262
      5          6           0       -5.367223   -0.034654   -1.103412
      6          6           0       -6.035290   -0.475849    0.043153
      7          1           0       -5.828773   -1.295255    2.034578
      8          1           0       -3.339319   -1.350808    1.944296
      9          1           0       -3.447499    0.280946   -2.050008
     10          1           0       -5.937596    0.336059   -1.959755
     11          1           0       -7.127821   -0.451371    0.082722
     12          6           0       -1.702325   -0.510980   -0.001736
     13          6           0       -0.503164   -0.515444    0.000607
     14          6           0        1.038137   -0.521178    0.003607
     15          6           0        1.733241   -0.498994    1.216317
     16          6           0        1.735313   -0.500380   -1.205823
     17          6           0        3.131236   -0.501924    1.216721
     18          1           0        1.185494   -0.501600    2.162198
     19          6           0        3.133594   -0.503838   -1.205245
     20          1           0        1.189441   -0.503497   -2.154202
     21          6           0        3.828940   -0.502741    0.006338
     22          1           0        3.677424   -0.501477    2.164168
     23          1           0        3.681197   -0.504590   -2.151735
     24          9           0        5.178939   -0.503276    0.007585
 ---------------------------------------------------------------------
                    Distance matrix (angstroms):
                    1          2          3          4          5
     1  C    0.000000
     2  C    1.397384   0.000000
     3  C    2.423205   1.403451   0.000000
     4  C    2.798124   2.422073   1.390941   0.000000
     5  C    2.421968   2.795257   2.415365   1.399257   0.000000
     6  C    1.398207   2.420541   2.793413   2.423402   1.398420
     7  H    1.093494   2.162905   3.415478   3.891618   3.413082
     8  H    2.163349   1.094883   2.171296   3.414038   3.890139
     9  H    3.890352   3.412318   2.155808   1.092229   2.163558
    10  H    3.413069   3.888910   3.405877   2.164002   1.093653
    11  H    2.163322   3.411763   3.886849   3.414353   2.163394
    12  C    3.805452   2.505965   1.542023   2.582240   3.856430
    13  C    4.955199   3.606095   2.740893   3.681334   5.010897
    14  C    6.459440   5.086300   4.282068   5.159902   6.518499
    15  C    7.054530   5.665332   5.135421   6.191187   7.484206
    16  C    7.435193   6.112265   5.111179   5.721346   7.118525
    17  C    8.449913   7.058812   6.499459   7.498920   8.821857
    18  H    6.587476   5.229709   4.950895   6.145499   7.336235
    19  C    8.770639   7.422750   6.480869   7.116542   8.514363
    20  H    7.296215   6.061368   4.906905   5.272748   6.656861
    21  C    9.216058   7.828813   7.072698   7.896355   9.274699
    22  H    9.053370   7.678571   7.266598   8.347484   9.628117
    23  H    9.581158   8.267189   7.236571   7.727564   9.121058
    24  F   10.555585   9.165447   8.422670   9.232196  10.614869
                    6          7          8          9         10
     6  C    0.000000
     7  H    2.163297   0.000000
     8  H    3.412940   2.491710   0.000000
     9  H    3.413316   4.983846   4.316107   0.000000
    10  H    2.163419   4.315986   4.983792   2.492341   0.000000
    11  H    1.093521   2.491869   4.315923   4.316201   2.491665
    12  C    4.333341   4.667894   2.678077   2.805031   4.742240
    13  C    5.532432   5.753890   3.538295   3.675373   5.839617
    14  C    7.073683   7.202672   4.859699   4.998166   7.297294
    15  C    7.856649   7.647721   5.194844   6.173917   8.344249
    16  C    7.870376   8.267250   6.033106   5.308923   7.755100
    17  C    9.241382   9.032166   6.566433   7.386755   9.645513
    18  H    7.525340   7.060178   4.608966   6.310283   8.272277
    19  C    9.253525   9.562783   7.248142   6.681339   9.141181
    20  H    7.551548   8.211460   6.166464   4.703979   7.178949
    21  C    9.864335   9.900164   7.473876   7.601926   9.997716
    22  H    9.941639   9.540161   7.071378   8.314806  10.495562
    23  H    9.961349  10.420647   8.171976   7.172567   9.657366
    24  F   11.214319  11.220769   8.776666   8.903040  11.320435
                   11         12         13         14         15
    11  H    0.000000
    12  C    5.426481   0.000000
    13  C    6.625476   1.199171   0.000000
    14  C    8.166640   2.740486   1.541315   0.000000
    15  C    8.933406   3.645121   2.545531   1.397972   0.000000
    16  C    8.956444   3.642429   2.542927   1.396141   2.422141
    17  C   10.321665   4.984779   3.832490   2.419314   1.397998
    18  H    8.569594   3.608627   2.743033   2.163703   1.093035
    19  C   10.342062   4.983432   3.831478   2.419207   2.797315
    20  H    8.612978   3.604924   2.740120   2.163180   3.414109
    21  C   10.957147   5.531276   4.332126   2.790865   2.419920
    22  H   11.004011   5.799390   4.707283   3.410902   2.162932
    23  H   11.037685   5.796968   4.705483   3.410504   3.890801
    24  F   12.307099   6.881274   5.682120   4.140843   3.651559
                   16         17         18         19         20
    16  C    0.000000
    17  C    2.795948   0.000000
    18  H    3.412604   2.163294   0.000000
    19  C    1.398285   2.421968   3.890343   0.000000
    20  H    1.094262   3.890205   4.316402   2.163389   0.000000
    21  C    2.419217   1.397075   3.411091   1.396940   3.410995
    22  H    3.889555   1.093608   2.491931   3.413020   4.983813
    23  H    2.163615   3.413057   4.983830   1.093486   2.491757
    24  F    3.651154   2.378045   4.537617   2.377897   4.537557
                   21         22         23         24
    21  C    0.000000
    22  H    2.163144   0.000000
    23  H    2.163125   4.315906   0.000000
    24  F    1.350000   2.627813   2.627907   0.000000
 Stoichiometry    C14H9F
 Framework group  C1[X(C14H9F)]
 Deg. of freedom    66
 Full point group                 C1      NOp   1
 Largest Abelian subgroup         C1      NOp   1
 Largest concise Abelian subgroup C1      NOp   1
                         Standard orientation:                         
 ---------------------------------------------------------------------
 Center     Atomic      Atomic             Coordinates (Angstroms)
 Number     Number       Type             X           Y           Z
 ---------------------------------------------------------------------
      1          6           0        4.697230   -1.207720    0.224665
      2          6           0        3.301087   -1.161633    0.261294
      3          6           0        2.636145    0.047866    0.007047
      4          6           0        3.363575    1.214355   -0.204772
      5          6           0        4.761508    1.167648   -0.243768
      6          6           0        5.427831   -0.043094   -0.029995
      7          1           0        5.218218   -2.154440    0.392059
      8          1           0        2.728794   -2.073337    0.461409
      9          1           0        2.843168    2.159629   -0.373879
     10          1           0        5.333234    2.078470   -0.442792
     11          1           0        6.520348   -0.078617   -0.060517
     12          6           0        1.094875   -0.000291    0.008765
     13          6           0       -0.104292   -0.001929    0.011499
     14          6           0       -1.645602   -0.004021    0.015012
     15          6           0       -2.341952   -1.189083   -0.240040
     16          6           0       -2.341480    1.187828    0.225860
     17          6           0       -3.739949   -1.188272   -0.238638
     18          1           0       -1.795203   -2.118597   -0.418345
     19          6           0       -3.739764    1.188368    0.227746
     20          1           0       -1.794616    2.117312    0.411353
     21          6           0       -4.436381    0.000368   -0.006394
     22          1           0       -4.287132   -2.117353   -0.421333
     23          1           0       -4.286372    2.117836    0.409464
     24          9           0       -5.786380    0.000751   -0.007456
 ---------------------------------------------------------------------
 Rotational constants (GHZ):           2.8325660           0.1811166           0.1710008
 Standard basis: 6-31+G(d) (6D, 7F)
 There are   303 symmetry adapted cartesian basis functions of A   symmetry.
 There are   303 symmetry adapted basis functions of A   symmetry.
   303 basis functions,   516 primitive gaussians,   303 cartesian basis functions
    51 alpha electrons       51 beta electrons
       nuclear repulsion energy       774.5503549841 Hartrees.
 NAtoms=   24 NActive=   24 NUniq=   24 SFac= 1.00D+00 NAtFMM=   60 NAOKFM=F Big=F
 Integral buffers will be    131072 words long.
 Raffenetti 2 integral format.
 Two-electron integral symmetry is turned on.
 Nuclear repulsion after empirical dispersion term =      774.5356405696 Hartrees.
 One-electron integrals computed using PRISM.
 NBasis=   303 RedAO= T EigKep=  1.38D-06  NBF=   303
 NBsUse=   301 1.00D-06 EigRej=  8.32D-08 NBFU=   301
 ExpMin= 4.38D-02 ExpMax= 7.00D+03 ExpMxC= 1.05D+03 IAcc=3 IRadAn=         5 AccDes= 0.00D+00
 Harris functional with IExCor=  402 and IRadAn=       5 diagonalized for initial guess.
 HarFok:  IExCor=  402 AccDes= 0.00D+00 IRadAn=         5 IDoV= 1 UseB2=F ITyADJ=14
 ICtDFT=  3500011 ScaDFX=  1.000000  1.000000  1.000000  1.000000
 FoFCou: FMM=F IPFlag=           0 FMFlag=      100000 FMFlg1=           0
         NFxFlg=           0 DoJE=T BraDBF=F KetDBF=T FulRan=T
         wScrn=  0.000000 ICntrl=       500 IOpCl=  0 I1Cent=   200000004 NGrid=           0
         NMat0=    1 NMatS0=      1 NMatT0=    0 NMatD0=    1 NMtDS0=    0 NMtDT0=    0
 Petite list used in FoFCou.
 Requested convergence on RMS density matrix=1.00D-08 within 128 cycles.
 Requested convergence on MAX density matrix=1.00D-06.
 Requested convergence on             energy=1.00D-06.
 No special actions if energy rises.
 SCF Done:  E(RB3LYP) =  -638.722692218     A.U. after   15 cycles
            NFock= 15  Conv=0.41D-08     -V/T= 2.0102

 **********************************************************************

            Population analysis using the SCF Density.

 **********************************************************************

 Orbital symmetries:
       Occupied  (A) (A) (A) (A) (A) (A) (A) (A) (A) (A) (A) (A)
                 (A) (A) (A) (A) (A) (A) (A) (A) (A) (A) (A) (A)
                 (A) (A) (A) (A) (A) (A) (A) (A) (A) (A) (A) (A)
                 (A) (A) (A) (A) (A) (A) (A) (A) (A) (A) (A) (A)
                 (A) (A) (A)
       Virtual   (A) (A) (A) (A) (A) (A) (A) (A) (A) (A) (A) (A)
                 (A) (A) (A) (A) (A) (A) (A) (A) (A) (A) (A) (A)
                 (A) (A) (A) (A) (A) (A) (A) (A) (A) (A) (A) (A)
                 (A) (A) (A) (A) (A) (A) (A) (A) (A) (A) (A) (A)
                 (A) (A) (A) (A) (A) (A) (A) (A) (A) (A) (A) (A)
                 (A) (A) (A) (A) (A) (A) (A) (A) (A) (A) (A) (A)
                 (A) (A) (A) (A) (A) (A) (A) (A) (A) (A) (A) (A)
                 (A) (A) (A) (A) (A) (A) (A) (A) (A) (A) (A) (A)
                 (A) (A) (A) (A) (A) (A) (A) (A) (A) (A) (A) (A)
                 (A) (A) (A) (A) (A) (A) (A) (A) (A) (A) (A) (A)
                 (A) (A) (A) (A) (A) (A) (A) (A) (A) (A) (A) (A)
                 (A) (A) (A) (A) (A) (A) (A) (A) (A) (A) (A) (A)
                 (A) (A) (A) (A) (A) (A) (A) (A) (A) (A) (A) (A)
                 (A) (A) (A) (A) (A) (A) (A) (A) (A) (A) (A) (A)
                 (A) (A) (A) (A) (A) (A) (A) (A) (A) (A) (A) (A)
                 (A) (A) (A) (A) (A) (A) (A) (A) (A) (A) (A) (A)
                 (A) (A) (A) (A) (A) (A) (A) (A) (A) (A) (A) (A)
                 (A) (A) (A) (A) (A) (A) (A) (A) (A) (A) (A) (A)
                 (A) (A) (A) (A) (A) (A) (A) (A) (A) (A) (A) (A)
                 (A) (A) (A) (A) (A) (A) (A) (A) (A) (A) (A) (A)
                 (A) (A) (A) (A) (A) (A) (A) (A) (A) (A)
 The electronic state is 1-A.
 Alpha  occ. eigenvalues --  -24.73525 -10.29365 -10.24115 -10.23766 -10.22009
 Alpha  occ. eigenvalues --  -10.22005 -10.21718 -10.21717 -10.21032 -10.20931
 Alpha  occ. eigenvalues --  -10.20893 -10.20798 -10.20745 -10.20525 -10.20272
 Alpha  occ. eigenvalues --   -1.24154  -0.88226  -0.87227  -0.79199  -0.77320
 Alpha  occ. eigenvalues --   -0.77227  -0.76057  -0.73149  -0.64023  -0.63776
 Alpha  occ. eigenvalues --   -0.61964  -0.61751  -0.56197  -0.54753  -0.52458
 Alpha  occ. eigenvalues --   -0.50763  -0.48282  -0.48081  -0.46577  -0.46433
 Alpha  occ. eigenvalues --   -0.44614  -0.44571  -0.43557  -0.41934  -0.40453
 Alpha  occ. eigenvalues --   -0.39068  -0.38357  -0.36686  -0.36509  -0.36185
 Alpha  occ. eigenvalues --   -0.31876  -0.29095  -0.27698  -0.27128  -0.26694
 Alpha  occ. eigenvalues --   -0.23432
 Alpha virt. eigenvalues --   -0.05007  -0.03276  -0.02357  -0.01566  -0.00234
 Alpha virt. eigenvalues --    0.00660   0.01765   0.02377   0.02525   0.03286
 Alpha virt. eigenvalues --    0.04352   0.04515   0.04634   0.04983   0.05475
 Alpha virt. eigenvalues --    0.06407   0.06759   0.07074   0.07723   0.07924
 Alpha virt. eigenvalues --    0.08694   0.08903   0.08946   0.09205   0.09568
 Alpha virt. eigenvalues --    0.10757   0.11448   0.12670   0.13007   0.13192
 Alpha virt. eigenvalues --    0.13652   0.14180   0.14353   0.14649   0.15034
 Alpha virt. eigenvalues --    0.15195   0.15261   0.15667   0.16057   0.16449
 Alpha virt. eigenvalues --    0.16608   0.17144   0.17720   0.18283   0.19114
 Alpha virt. eigenvalues --    0.20196   0.20294   0.20507   0.20892   0.21147
 Alpha virt. eigenvalues --    0.21436   0.21484   0.22545   0.22612   0.23113
 Alpha virt. eigenvalues --    0.23443   0.24069   0.24909   0.25099   0.25742
 Alpha virt. eigenvalues --    0.26109   0.26451   0.26689   0.27049   0.27336
 Alpha virt. eigenvalues --    0.27691   0.28739   0.30275   0.30552   0.31265
 Alpha virt. eigenvalues --    0.32297   0.32857   0.33216   0.34374   0.34827
 Alpha virt. eigenvalues --    0.34941   0.35589   0.36422   0.38101   0.38627
 Alpha virt. eigenvalues --    0.39568   0.41892   0.42611   0.43135   0.43853
 Alpha virt. eigenvalues --    0.49274   0.56108   0.57754   0.59444   0.60234
 Alpha virt. eigenvalues --    0.63893   0.65462   0.66591   0.66726   0.68627
 Alpha virt. eigenvalues --    0.69176   0.69308   0.70346   0.70735   0.71421
 Alpha virt. eigenvalues --    0.71799   0.72314   0.72739   0.73635   0.73905
 Alpha virt. eigenvalues --    0.74240   0.75080   0.75597   0.75772   0.76506
 Alpha virt. eigenvalues --    0.78009   0.79536   0.79882   0.80596   0.82383
 Alpha virt. eigenvalues --    0.83118   0.83390   0.85550   0.87448   0.89464
 Alpha virt. eigenvalues --    0.89768   0.91058   0.91882   0.92842   0.94858
 Alpha virt. eigenvalues --    0.95270   0.95374   0.96477   0.97708   1.00311
 Alpha virt. eigenvalues --    1.00778   1.03947   1.07619   1.08149   1.10391
 Alpha virt. eigenvalues --    1.12744   1.13658   1.14883   1.16280   1.17003
 Alpha virt. eigenvalues --    1.19089   1.20376   1.20593   1.22243   1.24366
 Alpha virt. eigenvalues --    1.25343   1.26570   1.26780   1.28595   1.30778
 Alpha virt. eigenvalues --    1.32673   1.35285   1.36665   1.38268   1.40403
 Alpha virt. eigenvalues --    1.42611   1.43308   1.43538   1.44701   1.45989
 Alpha virt. eigenvalues --    1.46907   1.47793   1.48272   1.49456   1.55149
 Alpha virt. eigenvalues --    1.56127   1.58523   1.63115   1.66877   1.68514
 Alpha virt. eigenvalues --    1.71925   1.77745   1.78911   1.80460   1.80887
 Alpha virt. eigenvalues --    1.81892   1.83904   1.85254   1.86310   1.88742
 Alpha virt. eigenvalues --    1.89809   1.92561   1.93492   1.94593   1.95861
 Alpha virt. eigenvalues --    1.97334   1.97714   1.97908   1.99491   2.06925
 Alpha virt. eigenvalues --    2.08108   2.10041   2.11087   2.12439   2.13195
 Alpha virt. eigenvalues --    2.13960   2.14185   2.17457   2.18571   2.18609
 Alpha virt. eigenvalues --    2.22886   2.23463   2.28209   2.29035   2.29150
 Alpha virt. eigenvalues --    2.29646   2.30237   2.32134   2.46879   2.47285
 Alpha virt. eigenvalues --    2.49924   2.51989   2.54000   2.59126   2.60341
 Alpha virt. eigenvalues --    2.62915   2.63180   2.63299   2.64509   2.71927
 Alpha virt. eigenvalues --    2.72415   2.73914   2.75175   2.75297   2.81205
 Alpha virt. eigenvalues --    2.81646   2.84201   2.94137   2.95719   3.08698
 Alpha virt. eigenvalues --    3.18156   3.20320   3.31782   3.40574   3.55932
 Alpha virt. eigenvalues --    4.18237   4.20893   4.22271   4.23795   4.24029
 Alpha virt. eigenvalues --    4.28141   4.32569   4.38133   4.38666   4.39618
 Alpha virt. eigenvalues --    4.54768   4.63504   4.74180   4.88749   6.03231
          Condensed to atoms (all electrons):
               1          2          3          4          5          6
     1  C    8.792267  -7.353311   1.232420   4.977654  -1.677119   0.714491
     2  C   -7.353311  25.645113  -2.489464 -15.104666   4.176922  -0.518821
     3  C    1.232420  -2.489464  15.818682  -5.080329   1.683779   0.164014
     4  C    4.977654 -15.104666  -5.080329  26.599661  -6.189790  -0.192827
     5  C   -1.677119   4.176922   1.683779  -6.189790   7.942897   0.584822
     6  C    0.714491  -0.518821   0.164014  -0.192827   0.584822   5.241395
     7  H    0.305146  -0.036444   0.007438  -0.002105   0.007255   0.021402
     8  H   -0.058234   0.338105  -0.082466   0.010224  -0.006906   0.009812
     9  H   -0.009466   0.033057  -0.034139   0.288024  -0.060396   0.005653
    10  H    0.007217  -0.004941   0.002747  -0.018121   0.294100   0.021643
    11  H   -0.004897   0.014610  -0.000213   0.008965  -0.005928   0.275367
    12  C   -0.852049   2.048236  -5.276652   1.291149  -0.541474  -0.165024
    13  C    0.048113  -0.363112   2.013209  -0.641807   0.040363   0.006503
    14  C   -0.074719   0.146658  -2.646918   0.247294  -0.076709  -0.002911
    15  C    0.057053  -0.098972   0.106542   0.147539  -0.039691   0.003903
    16  C   -0.039961   0.080082   0.138404  -0.171807   0.043821   0.000456
    17  C    0.017193   0.024727  -0.011951  -0.023228  -0.006813   0.000115
    18  H   -0.000230   0.000507   0.005839   0.000192   0.000019   0.000017
    19  C   -0.005001  -0.041348  -0.034315   0.058640   0.009005   0.000289
    20  H    0.000020  -0.000096   0.006791   0.001153   0.000055   0.000019
    21  C   -0.000075   0.004403  -0.028434   0.000056   0.000123   0.000195
    22  H    0.000001   0.000024   0.000003  -0.000010   0.000000   0.000000
    23  H   -0.000001  -0.000010   0.000009   0.000021   0.000001   0.000000
    24  F    0.000001  -0.000004   0.000244  -0.000002   0.000000   0.000000
               7          8          9         10         11         12
     1  C    0.305146  -0.058234  -0.009466   0.007217  -0.004897  -0.852049
     2  C   -0.036444   0.338105   0.033057  -0.004941   0.014610   2.048236
     3  C    0.007438  -0.082466  -0.034139   0.002747  -0.000213  -5.276652
     4  C   -0.002105   0.010224   0.288024  -0.018121   0.008965   1.291149
     5  C    0.007255  -0.006906  -0.060396   0.294100  -0.005928  -0.541474
     6  C    0.021402   0.009812   0.005653   0.021643   0.275367  -0.165024
     7  H    0.531597  -0.004542   0.000015  -0.000156  -0.004737  -0.008387
     8  H   -0.004542   0.523084  -0.000142   0.000015  -0.000140   0.055595
     9  H    0.000015  -0.000142   0.525338  -0.004497  -0.000139   0.046896
    10  H   -0.000156   0.000015  -0.004497   0.529582  -0.004682  -0.007580
    11  H   -0.004737  -0.000140  -0.000139  -0.004682   0.535365   0.003580
    12  C   -0.008387   0.055595   0.046896  -0.007580   0.003580   9.812065
    13  C   -0.000948   0.008260   0.008227  -0.000840   0.000493  -1.024467
    14  C   -0.000157   0.009562   0.006141  -0.000135   0.000047   1.626372
    15  C    0.000029   0.000163  -0.000174  -0.000009  -0.000001  -0.323930
    16  C   -0.000012   0.000278   0.001141   0.000024   0.000000  -0.435037
    17  C    0.000002  -0.000226   0.000020  -0.000001   0.000000  -0.011649
    18  H    0.000000   0.000000   0.000000   0.000000   0.000000   0.002452
    19  C   -0.000001   0.000015  -0.000065   0.000002   0.000000   0.056696
    20  H    0.000000   0.000000   0.000000   0.000000   0.000000   0.000950
    21  C    0.000000   0.000027   0.000019   0.000000   0.000000  -0.043818
    22  H    0.000000   0.000000   0.000000   0.000000   0.000000   0.000920
    23  H    0.000000   0.000000   0.000000   0.000000   0.000000   0.000714
    24  F    0.000000   0.000000   0.000000   0.000000   0.000000   0.000837
              13         14         15         16         17         18
     1  C    0.048113  -0.074719   0.057053  -0.039961   0.017193  -0.000230
     2  C   -0.363112   0.146658  -0.098972   0.080082   0.024727   0.000507
     3  C    2.013209  -2.646918   0.106542   0.138404  -0.011951   0.005839
     4  C   -0.641807   0.247294   0.147539  -0.171807  -0.023228   0.000192
     5  C    0.040363  -0.076709  -0.039691   0.043821  -0.006813   0.000019
     6  C    0.006503  -0.002911   0.003903   0.000456   0.000115   0.000017
     7  H   -0.000948  -0.000157   0.000029  -0.000012   0.000002   0.000000
     8  H    0.008260   0.009562   0.000163   0.000278  -0.000226   0.000000
     9  H    0.008227   0.006141  -0.000174   0.001141   0.000020   0.000000
    10  H   -0.000840  -0.000135  -0.000009   0.000024  -0.000001   0.000000
    11  H    0.000493   0.000047  -0.000001   0.000000   0.000000   0.000000
    12  C   -1.024467   1.626372  -0.323930  -0.435037  -0.011649   0.002452
    13  C    9.379390  -4.262667   0.531413   1.564208  -0.243316   0.051385
    14  C   -4.262667  13.699804  -1.970373  -2.717272   0.691444  -0.051741
    15  C    0.531413  -1.970373  19.571692 -10.337462  -5.023241   0.380692
    16  C    1.564208  -2.717272 -10.337462  19.825718   3.425594   0.007157
    17  C   -0.243316   0.691444  -5.023241   3.425594   8.768798  -0.095653
    18  H    0.051385  -0.051741   0.380692   0.007157  -0.095653   0.510230
    19  C   -0.614542   1.009311   3.527355  -5.197206  -2.178123  -0.006871
    20  H    0.063839  -0.064024   0.009132   0.390039  -0.008566  -0.000148
    21  C   -0.298206  -0.117200   0.086110   0.024461   0.355051  -0.003552
    22  H   -0.003080   0.016575  -0.082526   0.007557   0.311118  -0.004514
    23  H   -0.003727   0.015745   0.005021  -0.081108   0.020964   0.000012
    24  F    0.008411  -0.029681  -0.002446  -0.005217  -0.137494  -0.000363
              19         20         21         22         23         24
     1  C   -0.005001   0.000020  -0.000075   0.000001  -0.000001   0.000001
     2  C   -0.041348  -0.000096   0.004403   0.000024  -0.000010  -0.000004
     3  C   -0.034315   0.006791  -0.028434   0.000003   0.000009   0.000244
     4  C    0.058640   0.001153   0.000056  -0.000010   0.000021  -0.000002
     5  C    0.009005   0.000055   0.000123   0.000000   0.000001   0.000000
     6  C    0.000289   0.000019   0.000195   0.000000   0.000000   0.000000
     7  H   -0.000001   0.000000   0.000000   0.000000   0.000000   0.000000
     8  H    0.000015   0.000000   0.000027   0.000000   0.000000   0.000000
     9  H   -0.000065   0.000000   0.000019   0.000000   0.000000   0.000000
    10  H    0.000002   0.000000   0.000000   0.000000   0.000000   0.000000
    11  H    0.000000   0.000000   0.000000   0.000000   0.000000   0.000000
    12  C    0.056696   0.000950  -0.043818   0.000920   0.000714   0.000837
    13  C   -0.614542   0.063839  -0.298206  -0.003080  -0.003727   0.008411
    14  C    1.009311  -0.064024  -0.117200   0.016575   0.015745  -0.029681
    15  C    3.527355   0.009132   0.086110  -0.082526   0.005021  -0.002446
    16  C   -5.197206   0.390039   0.024461   0.007557  -0.081108  -0.005217
    17  C   -2.178123  -0.008566   0.355051   0.311118   0.020964  -0.137494
    18  H   -0.006871  -0.000148  -0.003552  -0.004514   0.000012  -0.000363
    19  C    8.844558  -0.106390   0.375443   0.019137   0.312442  -0.138924
    20  H   -0.106390   0.510341  -0.002899   0.000012  -0.004521  -0.000363
    21  C    0.375443  -0.002899   5.309707   0.027081   0.026883   0.262399
    22  H    0.019137   0.000012   0.027081   0.510386  -0.000139  -0.004180
    23  H    0.312442  -0.004521   0.026883  -0.000139   0.510213  -0.004184
    24  F   -0.138924  -0.000363   0.262399  -0.004180  -0.004184   9.388038
 Mulliken charges:
               1
     1  C   -0.076513
     2  C   -0.501252
     3  C    0.504761
     4  C   -0.205879
     5  C   -0.178337
     6  C   -0.170512
     7  H    0.184605
     8  H    0.197516
     9  H    0.194487
    10  H    0.185633
    11  H    0.182310
    12  C   -0.256395
    13  C   -0.267104
    14  C    0.545554
    15  C   -0.547820
    16  C   -0.523858
    17  C    0.125235
    18  H    0.204568
    19  C    0.109892
    20  H    0.204656
    21  C    0.022227
    22  H    0.201633
    23  H    0.201663
    24  F   -0.337072
 Sum of Mulliken charges =   0.00000
 Mulliken charges with hydrogens summed into heavy atoms:
               1
     1  C    0.108093
     2  C   -0.303736
     3  C    0.504761
     4  C   -0.011392
     5  C    0.007297
     6  C    0.011799
    12  C   -0.256395
    13  C   -0.267104
    14  C    0.545554
    15  C   -0.343252
    16  C   -0.319202
    17  C    0.326868
    19  C    0.311555
    21  C    0.022227
    24  F   -0.337072
 Electronic spatial extent (au):  <R**2>=           5762.4355
 Charge=              0.0000 electrons
 Dipole moment (field-independent basis, Debye):
    X=              1.7760    Y=              0.0026    Z=             -0.0241  Tot=              1.7761
 Quadrupole moment (field-independent basis, Debye-Ang):
   XX=            -83.6698   YY=            -75.3108   ZZ=            -92.3038
   XY=              0.0271   XZ=             -0.3206   YZ=              0.1168
 Traceless Quadrupole moment (field-independent basis, Debye-Ang):
   XX=              0.0917   YY=              8.4507   ZZ=             -8.5423
   XY=              0.0271   XZ=             -0.3206   YZ=              0.1168
 Octapole moment (field-independent basis, Debye-Ang**2):
  XXX=            106.3566  YYY=              0.1739  ZZZ=             -0.1189  XYY=            -16.6934
  XXY=             -0.0527  XXZ=             -2.2195  XZZ=            -23.5473  YZZ=             -0.0307
  YYZ=              0.0050  XYZ=            -12.0935
 Hexadecapole moment (field-independent basis, Debye-Ang**3):
 XXXX=          -7048.5426 YYYY=           -541.6017 ZZZZ=           -134.1383 XXXY=             -1.3522
 XXXZ=            -16.7489 YYYX=              0.1980 YYYZ=              1.2020 ZZZX=              0.1375
 ZZZY=              0.1011 XXYY=          -1118.3544 XXZZ=          -1279.4507 YYZZ=           -129.7271
 XXYZ=            -11.3705 YYXZ=             -0.2275 ZZXY=              0.2195
 N-N= 7.745356405696D+02 E-N=-3.032949664599D+03  KE= 6.322844515499D+02
 Evaluate density.
 Using the total density.
 Monte-Carlo method of calculating molar volume:
 based on  0.001 e/bohr**3 density envelope.
 Number of points per bohr**3 =   20 CutOff= 1.00D-04
 Using the SCF density.
 There are       399 points.  Will hold       399 in memory.
 LenV=  4026317235 MDV=  4026531840.
 Box volume = 7955.996 fraction occupied=0.243
 Integrated density= 8.6207980972271415D+01 error=-1.5792019027728585D+01
 Molar volume = 1934.164 bohr**3/mol (172.603 cm**3/mol)
 Recommended a0 for SCRF calculation =  5.00 angstrom (  9.45 bohr)
 Calling FoFJK, ICntrl=      2127 FMM=F ISym2X=0 I1Cent= 0 IOpClX= 0 NMat=1 NMatS=1 NMatT=0.
 ***** Axes restored to original set *****
 -------------------------------------------------------------------
 Center     Atomic                   Forces (Hartrees/Bohr)
 Number     Number              X              Y              Z
 -------------------------------------------------------------------
      1        6          -0.000008577   -0.002354028    0.002657411
      2        6          -0.003627399    0.000727084    0.008244827
      3        6           0.061864160   -0.010228243    0.015233721
      4        6          -0.000329558    0.009025640   -0.011446734
      5        6          -0.000930391   -0.000804051   -0.001969075
      6        6          -0.005583923    0.000964458   -0.000794989
      7        1           0.002498341    0.000717952   -0.003690163
      8        1          -0.002225047    0.002734704   -0.005386101
      9        1          -0.001388457   -0.001147586    0.003763864
     10        1           0.003068700   -0.002040294    0.003131382
     11        1           0.004336115    0.000151899   -0.000141959
     12        6          -0.088363109    0.002174303   -0.010582079
     13        6           0.089064071   -0.000569344    0.000524084
     14        6          -0.064668407    0.004329430    0.001557301
     15        6           0.003023792   -0.002947772    0.004408383
     16        6           0.003091067   -0.002744250   -0.006577192
     17        6           0.006198426    0.000634454    0.007681993
     18        1           0.002907319    0.000266259   -0.004713351
     19        6           0.006157342    0.000809495   -0.007159383
     20        1           0.003193384    0.000151343    0.005427317
     21        6          -0.018833426   -0.000211558   -0.000136903
     22        1          -0.001024671    0.000259125   -0.005293865
     23        1          -0.001068346    0.000231151    0.005222643
     24        9           0.002648598   -0.000130170    0.000038867
 -------------------------------------------------------------------
 Cartesian Forces:  Max     0.089064071 RMS     0.018806889

 GradGradGradGradGradGradGradGradGradGradGradGradGradGradGradGradGradGrad
 Berny optimization.
 FormGI is forming the generalized inverse of G from B-inverse, IUseBI=4.
 Internal  Forces:  Max     0.058375824 RMS     0.008541522
 Search for a local minimum.
 Step number   1 out of a maximum of  127
 All quantities printed in internal units (Hartrees-Bohrs-Radians)
 Mixed Optimization -- RFO/linear search
 Second derivative matrix not updated -- first step.
 ITU=  0
     Eigenvalues ---    0.00230   0.00230   0.00230   0.01530   0.01651
     Eigenvalues ---    0.02077   0.02091   0.02104   0.02111   0.02111
     Eigenvalues ---    0.02116   0.02117   0.02118   0.02119   0.02122
     Eigenvalues ---    0.02124   0.02126   0.02128   0.02132   0.02148
     Eigenvalues ---    0.02166   0.03986   0.04701   0.15990   0.15994
     Eigenvalues ---    0.15995   0.15996   0.16000   0.16000   0.16000
     Eigenvalues ---    0.16000   0.16000   0.21985   0.21994   0.22000
     Eigenvalues ---    0.22981   0.23468   0.23992   0.24980   0.24994
     Eigenvalues ---    0.25000   0.28340   0.28403   0.34254   0.34325
     Eigenvalues ---    0.34394   0.34399   0.34409   0.34412   0.34413
     Eigenvalues ---    0.34464   0.34556   0.41502   0.41751   0.42026
     Eigenvalues ---    0.42205   0.45388   0.45833   0.45928   0.45974
     Eigenvalues ---    0.45996   0.46091   0.46204   0.46783   0.55021
     Eigenvalues ---    1.05241
 RFO step:  Lambda=-2.57545722D-02 EMin= 2.30000000D-03
 Linear search not attempted -- first point.
 Iteration  1 RMS(Cart)=  0.09033710 RMS(Int)=  0.00101527
 Iteration  2 RMS(Cart)=  0.00229039 RMS(Int)=  0.00006652
 Iteration  3 RMS(Cart)=  0.00000584 RMS(Int)=  0.00006649
 Iteration  4 RMS(Cart)=  0.00000000 RMS(Int)=  0.00006649
 Variable       Old X    -DE/DX   Delta X   Delta X   Delta X     New X
                                 (Linear)    (Quad)   (Total)
    R1        2.64067  -0.00158   0.00000  -0.00334  -0.00334   2.63733
    R2        2.64223   0.00155   0.00000   0.00273   0.00276   2.64499
    R3        2.06640  -0.00445   0.00000  -0.01202  -0.01202   2.05439
    R4        2.65214   0.00187   0.00000   0.00430   0.00428   2.65641
    R5        2.06903  -0.00631   0.00000  -0.01712  -0.01712   2.05191
    R6        2.62850   0.00673   0.00000   0.01398   0.01395   2.64245
    R7        2.91400  -0.05796   0.00000  -0.18749  -0.18749   2.72651
    R8        2.64421  -0.00190   0.00000  -0.00384  -0.00384   2.64038
    R9        2.06401  -0.00411   0.00000  -0.01107  -0.01107   2.05294
   R10        2.64263   0.00004   0.00000  -0.00028  -0.00025   2.64238
   R11        2.06671  -0.00474   0.00000  -0.01283  -0.01283   2.05387
   R12        2.06646  -0.00433   0.00000  -0.01172  -0.01172   2.05474
   R13        2.26611   0.03069   0.00000   0.02847   0.02847   2.29457
   R14        2.91266  -0.05838   0.00000  -0.18844  -0.18844   2.72422
   R15        2.64178   0.00401   0.00000   0.00887   0.00884   2.65062
   R16        2.63832   0.00513   0.00000   0.01116   0.01112   2.64944
   R17        2.64183  -0.00295   0.00000  -0.00611  -0.00611   2.63572
   R18        2.06554  -0.00554   0.00000  -0.01495  -0.01495   2.05059
   R19        2.64238  -0.00298   0.00000  -0.00611  -0.00611   2.63627
   R20        2.06786  -0.00630   0.00000  -0.01707  -0.01707   2.05079
   R21        2.64009  -0.00480   0.00000  -0.01051  -0.01048   2.62961
   R22        2.06662  -0.00510   0.00000  -0.01379  -0.01379   2.05283
   R23        2.63983  -0.00485   0.00000  -0.01056  -0.01053   2.62931
   R24        2.06639  -0.00506   0.00000  -0.01367  -0.01367   2.05272
   R25        2.55113   0.00265   0.00000   0.00460   0.00460   2.55573
    A1        2.09366   0.00083   0.00000   0.00253   0.00249   2.09615
    A2        2.09504  -0.00088   0.00000  -0.00377  -0.00375   2.09129
    A3        2.09447   0.00005   0.00000   0.00125   0.00127   2.09574
    A4        2.09099  -0.00053   0.00000  -0.00129  -0.00144   2.08954
    A5        2.09389   0.00157   0.00000   0.00783   0.00782   2.10170
    A6        2.09796  -0.00101   0.00000  -0.00604  -0.00605   2.09191
    A7        2.09733  -0.00009   0.00000   0.00146   0.00132   2.09866
    A8        2.03358   0.00994   0.00000   0.03527   0.03532   2.06890
    A9        2.15206  -0.00985   0.00000  -0.03653  -0.03649   2.11557
   A10        2.09293  -0.00147   0.00000  -0.00447  -0.00463   2.08830
   A11        2.09462   0.00007   0.00000  -0.00108  -0.00111   2.09352
   A12        2.09507   0.00143   0.00000   0.00624   0.00622   2.10129
   A13        2.09517   0.00119   0.00000   0.00454   0.00450   2.09967
   A14        2.09387  -0.00134   0.00000  -0.00628  -0.00626   2.08760
   A15        2.09414   0.00015   0.00000   0.00175   0.00177   2.09591
   A16        2.09442   0.00016   0.00000  -0.00077  -0.00078   2.09364
   A17        2.09448   0.00000   0.00000   0.00083   0.00083   2.09531
   A18        2.09428  -0.00016   0.00000  -0.00006  -0.00005   2.09423
   A19        2.09307   0.00092   0.00000   0.00210   0.00210   2.09516
   A20        2.09164   0.00063   0.00000   0.00104   0.00104   2.09268
   A21        2.09779  -0.00152   0.00000  -0.00252  -0.00265   2.09514
   A22        2.09144   0.00045   0.00000   0.00366   0.00359   2.09503
   A23        2.09611  -0.00006   0.00000  -0.00083  -0.00083   2.09527
   A24        2.09540  -0.00038   0.00000  -0.00256  -0.00256   2.09284
   A25        2.09320   0.00009   0.00000   0.00239   0.00231   2.09551
   A26        2.09628   0.00002   0.00000  -0.00073  -0.00073   2.09555
   A27        2.09347  -0.00010   0.00000  -0.00140  -0.00140   2.09207
   A28        2.09342  -0.00398   0.00000  -0.01697  -0.01695   2.07647
   A29        2.09403   0.00380   0.00000   0.01825   0.01824   2.11227
   A30        2.09573   0.00018   0.00000  -0.00128  -0.00130   2.09444
   A31        2.09222  -0.00384   0.00000  -0.01616  -0.01614   2.07608
   A32        2.09489   0.00366   0.00000   0.01748   0.01747   2.11236
   A33        2.09607   0.00017   0.00000  -0.00132  -0.00133   2.09474
   A34        2.09766   0.00883   0.00000   0.03028   0.03034   2.12800
   A35        2.09278  -0.00446   0.00000  -0.01531  -0.01534   2.07745
   A36        2.09274  -0.00437   0.00000  -0.01497  -0.01500   2.07773
   A37        3.17054  -0.00299   0.00000  -0.04140  -0.04143   3.12910
   A38        3.14159   0.00122   0.00000   0.04513   0.04510   3.18668
   A39        3.13228   0.00088   0.00000   0.01330   0.01309   3.14537
   A40        3.14159   0.00001   0.00000   0.00303   0.00323   3.14482
    D1        0.02934  -0.00071   0.00000  -0.01633  -0.01635   0.01299
    D2       -3.14082   0.00020   0.00000   0.00333   0.00335  -3.13747
    D3       -3.10907  -0.00086   0.00000  -0.01897  -0.01898  -3.12805
    D4        0.00396   0.00006   0.00000   0.00069   0.00072   0.00468
    D5        0.00343   0.00002   0.00000   0.00006   0.00009   0.00352
    D6       -3.13978   0.00004   0.00000   0.00077   0.00075  -3.13903
    D7       -3.14135   0.00016   0.00000   0.00269   0.00271  -3.13864
    D8       -0.00137   0.00018   0.00000   0.00339   0.00338   0.00200
    D9       -0.06456   0.00154   0.00000   0.03426   0.03424  -0.03033
   D10        3.09824   0.00134   0.00000   0.02493   0.02476   3.12301
   D11        3.10566   0.00058   0.00000   0.01432   0.01442   3.12008
   D12       -0.01472   0.00038   0.00000   0.00500   0.00495  -0.00977
   D13        0.06660  -0.00164   0.00000  -0.03575  -0.03566   0.03094
   D14       -3.11087  -0.00060   0.00000  -0.01358  -0.01353  -3.12441
   D15       -3.09770  -0.00116   0.00000  -0.02481  -0.02501  -3.12271
   D16        0.00801  -0.00013   0.00000  -0.00264  -0.00288   0.00513
   D17       -0.42138   0.00100   0.00000   0.02490   0.02490  -0.39648
   D18        2.76189   0.00006   0.00000   0.00204   0.00227   2.76416
   D19        2.74721   0.00005   0.00000   0.00194   0.00171   2.74893
   D20       -0.35271  -0.00089   0.00000  -0.02092  -0.02091  -0.37362
   D21       -0.03360   0.00091   0.00000   0.01933   0.01926  -0.01433
   D22        3.10669   0.00094   0.00000   0.02005   0.02001   3.12670
   D23       -3.13930  -0.00009   0.00000  -0.00269  -0.00281   3.14108
   D24        0.00098  -0.00007   0.00000  -0.00198  -0.00206  -0.00107
   D25       -0.00147  -0.00007   0.00000  -0.00138  -0.00141  -0.00288
   D26       -3.14144  -0.00009   0.00000  -0.00208  -0.00208   3.13967
   D27        3.14144  -0.00009   0.00000  -0.00209  -0.00216   3.13928
   D28        0.00146  -0.00011   0.00000  -0.00279  -0.00282  -0.00136
   D29       -3.13968   0.00018   0.00000   0.00223   0.00218  -3.13750
   D30        0.02538  -0.00043   0.00000  -0.01087  -0.01094   0.01444
   D31       -0.03799   0.00089   0.00000   0.02017   0.02021  -0.01778
   D32        3.12707   0.00029   0.00000   0.00706   0.00709   3.13416
   D33        3.14019  -0.00020   0.00000  -0.00279  -0.00275   3.13744
   D34       -0.02477   0.00038   0.00000   0.00969   0.00975  -0.01502
   D35        0.03847  -0.00092   0.00000  -0.02074  -0.02078   0.01768
   D36       -3.12649  -0.00035   0.00000  -0.00825  -0.00828  -3.13477
   D37        0.02003  -0.00043   0.00000  -0.00996  -0.00999   0.01004
   D38       -3.12378  -0.00047   0.00000  -0.01036  -0.01038  -3.13416
   D39        3.13816   0.00017   0.00000   0.00316   0.00314   3.14129
   D40       -0.00565   0.00014   0.00000   0.00276   0.00274  -0.00291
   D41       -0.02094   0.00049   0.00000   0.01107   0.01110  -0.00984
   D42        3.12361   0.00046   0.00000   0.01017   0.01018   3.13380
   D43       -3.13921  -0.00009   0.00000  -0.00141  -0.00139  -3.14060
   D44        0.00535  -0.00012   0.00000  -0.00231  -0.00230   0.00304
   D45       -0.00265   0.00004   0.00000   0.00039   0.00037  -0.00228
   D46        3.13963   0.00006   0.00000   0.00138   0.00138   3.14101
   D47        3.14116   0.00006   0.00000   0.00077   0.00074  -3.14129
   D48        0.00025   0.00009   0.00000   0.00176   0.00175   0.00200
   D49        0.00308  -0.00006   0.00000  -0.00092  -0.00091   0.00218
   D50       -3.13920  -0.00008   0.00000  -0.00191  -0.00192  -3.14112
   D51       -3.14147  -0.00002   0.00000   0.00001   0.00003  -3.14144
   D52       -0.00057  -0.00005   0.00000  -0.00098  -0.00098  -0.00155
         Item               Value     Threshold  Converged?
 Maximum Force            0.058376     0.000450     NO 
 RMS     Force            0.008542     0.000300     NO 
 Maximum Displacement     0.293911     0.001800     NO 
 RMS     Displacement     0.091480     0.001200     NO 
 Predicted change in Energy=-1.405783D-02
 GradGradGradGradGradGradGradGradGradGradGradGradGradGradGradGradGradGrad

                          Input orientation:                          
 ---------------------------------------------------------------------
 Center     Atomic      Atomic             Coordinates (Angstroms)
 Number     Number       Type             X           Y           Z
 ---------------------------------------------------------------------
      1          6           0       -5.193345   -0.949727    1.164793
      2          6           0       -3.799383   -0.962933    1.098173
      3          6           0       -3.152436   -0.493618   -0.058216
      4          6           0       -3.900750   -0.048907   -1.152550
      5          6           0       -5.295916   -0.038268   -1.077436
      6          6           0       -5.943671   -0.485540    0.078233
      7          1           0       -5.695015   -1.300498    2.063207
      8          1           0       -3.212328   -1.325506    1.936573
      9          1           0       -3.395948    0.297802   -2.049862
     10          1           0       -5.876537    0.320598   -1.923228
     11          1           0       -7.029598   -0.473363    0.131887
     12          6           0       -1.709994   -0.497142   -0.090604
     13          6           0       -0.495829   -0.502482   -0.102423
     14          6           0        0.944830   -0.512729   -0.051477
     15          6           0        1.603813   -0.504634    1.186705
     16          6           0        1.686349   -0.504255   -1.241330
     17          6           0        2.997705   -0.509613    1.235768
     18          1           0        1.029963   -0.504213    2.107679
     19          6           0        3.080654   -0.509112   -1.195921
     20          1           0        1.176835   -0.504107   -2.199518
     21          6           0        3.714168   -0.510429    0.042855
     22          1           0        3.524500   -0.510402    2.185799
     23          1           0        3.670597   -0.509942   -2.108014
     24          9           0        5.065804   -0.514571    0.089112
 ---------------------------------------------------------------------
                    Distance matrix (angstroms):
                    1          2          3          4          5
     1  C    0.000000
     2  C    1.395616   0.000000
     3  C    2.422622   1.405714   0.000000
     4  C    2.802206   2.431352   1.398324   0.000000
     5  C    2.422574   2.797836   2.416745   1.397227   0.000000
     6  C    1.399668   2.422014   2.794580   2.424665   1.398288
     7  H    1.087134   2.153755   3.408254   3.889339   3.408246
     8  H    2.159001   1.085822   2.162131   3.412670   3.883629
     9  H    3.888569   3.415016   2.156918   1.086370   2.160656
    10  H    3.408276   3.884698   3.400286   2.152722   1.086863
    11  H    2.160009   3.407004   3.881873   3.408758   2.158107
    12  C    3.730226   2.448611   1.442809   2.475491   3.747430
    13  C    4.885952   3.544985   2.656990   3.591934   4.920059
    14  C    6.272756   4.902238   4.097316   4.990705   6.342287
    15  C    6.811751   5.423321   4.916488   5.998335   7.276681
    16  C    7.301922   5.981381   4.981336   5.606327   6.999716
    17  C    8.203173   6.813578   6.284814   7.314711   8.623064
    18  H    6.310078   4.955008   4.709955   5.928602   7.097802
    19  C    8.615462   7.266618   6.336089   6.996691   8.390629
    20  H    7.217780   5.987322   4.829893   5.204346   6.585785
    21  C    8.988633   7.600783   6.867368   7.721980   9.091732
    22  H    8.788418   7.418017   7.043959   8.154256   9.416546
    23  H    9.459078   8.141587   7.124305   7.645310   9.037860
    24  F   10.324563   8.933688   8.219587   9.064086  10.438052
                    6          7          8          9         10
     6  C    0.000000
     7  H    2.160117   0.000000
     8  H    3.408696   2.486040   0.000000
     9  H    3.410763   4.975701   4.308191   0.000000
    10  H    2.158753   4.307269   4.970487   2.483923   0.000000
    11  H    1.087320   2.489028   4.307504   4.307916   2.486649
    12  C    4.237058   4.600507   2.655681   2.704268   4.624639
    13  C    5.450863   5.688437   3.494888   3.583806   5.739757
    14  C    6.889775   7.012845   4.679200   4.846943   7.122424
    15  C    7.628473   7.394223   4.942807   6.009732   8.142992
    16  C    7.743307   8.126407   5.896656   5.208336   7.638233
    17  C    9.016023   8.767755   6.302485   7.233677   9.456251
    18  H    7.262958   6.772102   4.324445   6.125117   8.039170
    19  C    9.113862   9.394710   7.076768   6.582303   9.024891
    20  H    7.475968   8.125723   6.086599   4.644975   7.106794
    21  C    9.657936   9.656021   7.226816   7.455632   9.825360
    22  H    9.699934   9.254120   6.790534   8.153933  10.293403
    23  H    9.859738  10.282935   8.024867   7.112798   9.584973
    24  F   11.009519  10.968589   8.520457   8.765638  11.157143
                   11         12         13         14         15
    11  H    0.000000
    12  C    5.324308   0.000000
    13  C    6.538034   1.214235   0.000000
    14  C    7.976633   2.655158   1.441595   0.000000
    15  C    8.697667   3.551464   2.463809   1.402648   0.000000
    16  C    8.823515   3.585996   2.461506   1.402024   2.429438
    17  C   10.087947   4.890998   3.741068   2.423078   1.394764
    18  H    8.298266   3.512814   2.685627   2.160851   1.085125
    19  C   10.197135   4.916522   3.739922   2.423120   2.803210
    20  H    8.531233   3.575101   2.682464   2.160550   3.413036
    21  C   10.744199   5.425820   4.212510   2.770946   2.400422
    22  H   10.752158   5.708075   4.625912   3.414690   2.165008
    23  H   10.932185   5.746379   4.624020   3.414551   3.889318
    24  F   12.095548   6.778204   5.564943   4.123372   3.631830
                   16         17         18         19         20
    16  C    0.000000
    17  C    2.802802   0.000000
    18  H    3.412727   2.152271   0.000000
    19  C    1.395053   2.433103   3.888332   0.000000
    20  H    1.085232   3.888031   4.309700   2.152153   0.000000
    21  C    2.400254   1.391532   3.386517   1.391368   3.386198
    22  H    3.888965   1.086311   2.495768   3.410723   4.974191
    23  H    2.165274   3.410815   4.974439   1.086254   2.495448
    24  F    3.631928   2.364715   4.512509   2.364774   4.512429
                   21         22         23         24
    21  C    0.000000
    22  H    2.151321   0.000000
    23  H    2.151310   4.296298   0.000000
    24  F    1.352434   2.602255   2.602688   0.000000
 Stoichiometry    C14H9F
 Framework group  C1[X(C14H9F)]
 Deg. of freedom    66
 Full point group                 C1      NOp   1
 Largest Abelian subgroup         C1      NOp   1
 Largest concise Abelian subgroup C1      NOp   1
                         Standard orientation:                         
 ---------------------------------------------------------------------
 Center     Atomic      Atomic             Coordinates (Angstroms)
 Number     Number       Type             X           Y           Z
 ---------------------------------------------------------------------
      1          6           0        4.572676   -1.238442    0.225979
      2          6           0        3.178794   -1.172685    0.248590
      3          6           0        2.534913    0.053383    0.007328
      4          6           0        3.286125    1.210952   -0.218559
      5          6           0        4.681190    1.136364   -0.240270
      6          6           0        5.325936   -0.084790   -0.020505
      7          1           0        5.071998   -2.188345    0.399826
      8          1           0        2.589462   -2.063680    0.443083
      9          1           0        2.783658    2.159003   -0.388635
     10          1           0        5.264089    2.033919   -0.429726
     11          1           0        6.411803   -0.137379   -0.040310
     12          6           0        1.092521    0.087487    0.013791
     13          6           0       -0.121633    0.100582    0.018612
     14          6           0       -1.562393    0.051599    0.015764
     15          6           0       -2.223347   -1.160884   -0.230095
     16          6           0       -2.301971    1.222704    0.233042
     17          6           0       -3.617325   -1.207109   -0.237651
     18          1           0       -1.650982   -2.066013   -0.405125
     19          6           0       -3.696356    1.180089    0.226063
     20          1           0       -1.790916    2.162229    0.417009
     21          6           0       -4.331865   -0.034826   -0.010615
     22          1           0       -4.145649   -2.138714   -0.419469
     23          1           0       -4.284829    2.076456    0.399763
     24          9           0       -5.683580   -0.078225   -0.018363
 ---------------------------------------------------------------------
 Rotational constants (GHZ):           2.8174234           0.1895819           0.1784572
 Standard basis: 6-31+G(d) (6D, 7F)
 There are   303 symmetry adapted cartesian basis functions of A   symmetry.
 There are   303 symmetry adapted basis functions of A   symmetry.
   303 basis functions,   516 primitive gaussians,   303 cartesian basis functions
    51 alpha electrons       51 beta electrons
       nuclear repulsion energy       783.7985116272 Hartrees.
 NAtoms=   24 NActive=   24 NUniq=   24 SFac= 1.00D+00 NAtFMM=   60 NAOKFM=F Big=F
 Integral buffers will be    131072 words long.
 Raffenetti 2 integral format.
 Two-electron integral symmetry is turned on.
 Nuclear repulsion after empirical dispersion term =      783.7835147062 Hartrees.
 One-electron integrals computed using PRISM.
 NBasis=   303 RedAO= T EigKep=  1.45D-06  NBF=   303
 NBsUse=   300 1.00D-06 EigRej=  8.27D-07 NBFU=   300
 Initial guess from the checkpoint file:  "molecule_16.chk"
 B after Tr=     0.000000    0.000000    0.000000
         Rot=    1.000000    0.000518    0.000385   -0.000491 Ang=   0.09 deg.
 ExpMin= 4.38D-02 ExpMax= 7.00D+03 ExpMxC= 1.05D+03 IAcc=3 IRadAn=         5 AccDes= 0.00D+00
 Harris functional with IExCor=  402 and IRadAn=       5 diagonalized for initial guess.
 HarFok:  IExCor=  402 AccDes= 0.00D+00 IRadAn=         5 IDoV= 1 UseB2=F ITyADJ=14
 ICtDFT=  3500011 ScaDFX=  1.000000  1.000000  1.000000  1.000000
 FoFCou: FMM=F IPFlag=           0 FMFlag=      100000 FMFlg1=           0
         NFxFlg=           0 DoJE=T BraDBF=F KetDBF=T FulRan=T
         wScrn=  0.000000 ICntrl=       500 IOpCl=  0 I1Cent=   200000004 NGrid=           0
         NMat0=    1 NMatS0=      1 NMatT0=    0 NMatD0=    1 NMtDS0=    0 NMtDT0=    0
 Petite list used in FoFCou.
 Requested convergence on RMS density matrix=1.00D-08 within 128 cycles.
 Requested convergence on MAX density matrix=1.00D-06.
 Requested convergence on             energy=1.00D-06.
 No special actions if energy rises.
 SCF Done:  E(RB3LYP) =  -638.738456157     A.U. after   15 cycles
            NFock= 15  Conv=0.45D-08     -V/T= 2.0096
 Calling FoFJK, ICntrl=      2127 FMM=F ISym2X=0 I1Cent= 0 IOpClX= 0 NMat=1 NMatS=1 NMatT=0.
 ***** Axes restored to original set *****
 -------------------------------------------------------------------
 Center     Atomic                   Forces (Hartrees/Bohr)
 Number     Number              X              Y              Z
 -------------------------------------------------------------------
      1        6           0.001001812   -0.000423296   -0.000128896
      2        6          -0.007350571    0.001074253    0.002030356
      3        6           0.021160709   -0.004417329    0.004099031
      4        6          -0.007160627    0.003285552   -0.003748546
      5        6           0.001226039   -0.000346374   -0.000838806
      6        6          -0.001027260    0.000165272    0.000162501
      7        1           0.000054443   -0.000208118   -0.000175508
      8        1           0.000561593    0.000458294   -0.000363471
      9        1           0.000389324   -0.000017700    0.000662763
     10        1          -0.000134478   -0.000202168   -0.000079241
     11        1           0.000268194    0.000006470    0.000033371
     12        6          -0.013432617    0.000675067   -0.002333639
     13        6           0.012981620   -0.000729181    0.002731684
     14        6          -0.021209391    0.002536273   -0.002292451
     15        6           0.006341699   -0.001588926    0.001538684
     16        6           0.007283756   -0.001158250   -0.001242170
     17        6           0.000695503    0.000343655    0.002989047
     18        1          -0.000526554    0.000151117   -0.000311211
     19        6           0.000846957    0.000427902   -0.002963166
     20        1          -0.000531082    0.000072710    0.000347323
     21        6          -0.006702655   -0.000252228   -0.000286966
     22        1           0.000579115    0.000094140   -0.000940291
     23        1           0.000565069    0.000067037    0.000964514
     24        9           0.004119402   -0.000014172    0.000145090
 -------------------------------------------------------------------
 Cartesian Forces:  Max     0.021209391 RMS     0.004766216

 GradGradGradGradGradGradGradGradGradGradGradGradGradGradGradGradGradGrad
 Berny optimization.
 Using GEDIIS/GDIIS optimizer.
 FormGI is forming the generalized inverse of G from B-inverse, IUseBI=4.
 Internal  Forces:  Max     0.008951293 RMS     0.002000960
 Search for a local minimum.
 Step number   2 out of a maximum of  127
 All quantities printed in internal units (Hartrees-Bohrs-Radians)
 Mixed Optimization -- RFO/linear search
 Update second derivatives using D2CorX and points    1    2
 DE= -1.58D-02 DEPred=-1.41D-02 R= 1.12D+00
 TightC=F SS=  1.41D+00  RLast= 3.03D-01 DXNew= 5.0454D-01 9.0822D-01
 Trust test= 1.12D+00 RLast= 3.03D-01 DXMaxT set to 5.05D-01
 ITU=  1  0
 Use linear search instead of GDIIS.
     Eigenvalues ---    0.00230   0.00230   0.00234   0.01515   0.01651
     Eigenvalues ---    0.02077   0.02092   0.02104   0.02111   0.02112
     Eigenvalues ---    0.02116   0.02117   0.02118   0.02119   0.02122
     Eigenvalues ---    0.02124   0.02126   0.02128   0.02132   0.02149
     Eigenvalues ---    0.02166   0.03940   0.04748   0.15883   0.15999
     Eigenvalues ---    0.15999   0.16000   0.16000   0.16000   0.16000
     Eigenvalues ---    0.16000   0.16009   0.21260   0.21999   0.22002
     Eigenvalues ---    0.22003   0.23298   0.23966   0.24781   0.25000
     Eigenvalues ---    0.25003   0.27926   0.28394   0.34267   0.34342
     Eigenvalues ---    0.34393   0.34402   0.34410   0.34411   0.34434
     Eigenvalues ---    0.34525   0.34565   0.41557   0.41804   0.42037
     Eigenvalues ---    0.42194   0.45405   0.45828   0.45916   0.45968
     Eigenvalues ---    0.46038   0.46106   0.46412   0.46914   0.55068
     Eigenvalues ---    1.04664
 RFO step:  Lambda=-4.20360344D-03 EMin= 2.29965330D-03
 Quartic linear search produced a step of  0.14824.
 Maximum step size (   0.505) exceeded in Quadratic search.
    -- Step size scaled by   0.732
 Iteration  1 RMS(Cart)=  0.19536238 RMS(Int)=  0.02962289
 Iteration  2 RMS(Cart)=  0.18810285 RMS(Int)=  0.01172009
 Iteration  3 RMS(Cart)=  0.10306086 RMS(Int)=  0.00187169
 Iteration  4 RMS(Cart)=  0.00455872 RMS(Int)=  0.00092665
 Iteration  5 RMS(Cart)=  0.00000207 RMS(Int)=  0.00092665
 Iteration  6 RMS(Cart)=  0.00000001 RMS(Int)=  0.00092665
 Variable       Old X    -DE/DX   Delta X   Delta X   Delta X     New X
                                 (Linear)    (Quad)   (Total)
    R1        2.63733  -0.00055  -0.00050  -0.00111  -0.00160   2.63573
    R2        2.64499   0.00018   0.00041  -0.00004   0.00036   2.64535
    R3        2.05439  -0.00010  -0.00178  -0.00027  -0.00205   2.05233
    R4        2.65641   0.00380   0.00063   0.00739   0.00804   2.66446
    R5        2.05191  -0.00013  -0.00254  -0.00035  -0.00288   2.04902
    R6        2.64245   0.00716   0.00207   0.01321   0.01529   2.65774
    R7        2.72651  -0.00895  -0.02779  -0.02541  -0.05324   2.67327
    R8        2.64038  -0.00090  -0.00057  -0.00159  -0.00217   2.63821
    R9        2.05294  -0.00037  -0.00164  -0.00092  -0.00256   2.05038
   R10        2.64238   0.00012  -0.00004  -0.00011  -0.00016   2.64222
   R11        2.05387   0.00007  -0.00190   0.00014  -0.00176   2.05211
   R12        2.05474  -0.00027  -0.00174  -0.00066  -0.00240   2.05233
   R13        2.29457   0.00444   0.00422   0.00414   0.00833   2.30290
   R14        2.72422  -0.00861  -0.02793  -0.02436  -0.05222   2.67200
   R15        2.65062   0.00533   0.00131   0.01011   0.01140   2.66203
   R16        2.64944   0.00589   0.00165   0.01108   0.01271   2.66216
   R17        2.63572   0.00009  -0.00091   0.00010  -0.00080   2.63492
   R18        2.05059   0.00001  -0.00222   0.00001  -0.00221   2.04838
   R19        2.63627   0.00001  -0.00091  -0.00003  -0.00093   2.63534
   R20        2.05079  -0.00006  -0.00253  -0.00017  -0.00271   2.04808
   R21        2.62961  -0.00035  -0.00155  -0.00108  -0.00262   2.62700
   R22        2.05283  -0.00054  -0.00204  -0.00134  -0.00338   2.04945
   R23        2.62931  -0.00043  -0.00156  -0.00123  -0.00277   2.62653
   R24        2.05272  -0.00050  -0.00203  -0.00124  -0.00327   2.04945
   R25        2.55573   0.00412   0.00068   0.00632   0.00700   2.56273
    A1        2.09615   0.00093   0.00037   0.00218   0.00252   2.09867
    A2        2.09129  -0.00048  -0.00056  -0.00109  -0.00164   2.08965
    A3        2.09574  -0.00045   0.00019  -0.00108  -0.00088   2.09486
    A4        2.08954   0.00163  -0.00021   0.00636   0.00614   2.09568
    A5        2.10170  -0.00005   0.00116   0.00054   0.00168   2.10338
    A6        2.09191  -0.00158  -0.00090  -0.00687  -0.00778   2.08412
    A7        2.09866  -0.00455   0.00020  -0.01396  -0.01389   2.08476
    A8        2.06890   0.00576   0.00524   0.01827   0.02354   2.09244
    A9        2.11557  -0.00121  -0.00541  -0.00417  -0.00958   2.10599
   A10        2.08830   0.00172  -0.00069   0.00729   0.00658   2.09488
   A11        2.09352  -0.00151  -0.00016  -0.00682  -0.00701   2.08651
   A12        2.10129  -0.00021   0.00092  -0.00041   0.00050   2.10179
   A13        2.09967   0.00029   0.00067   0.00025   0.00089   2.10056
   A14        2.08760  -0.00003  -0.00093   0.00057  -0.00034   2.08727
   A15        2.09591  -0.00026   0.00026  -0.00083  -0.00055   2.09536
   A16        2.09364   0.00001  -0.00012  -0.00172  -0.00188   2.09176
   A17        2.09531  -0.00005   0.00012   0.00064   0.00078   2.09610
   A18        2.09423   0.00004  -0.00001   0.00108   0.00110   2.09533
   A19        2.09516   0.00164   0.00031   0.00493   0.00504   2.10020
   A20        2.09268   0.00307   0.00015   0.00969   0.00987   2.10255
   A21        2.09514  -0.00470  -0.00039  -0.01436  -0.01470   2.08043
   A22        2.09503   0.00205   0.00053   0.00813   0.00861   2.10364
   A23        2.09527  -0.00165  -0.00012  -0.00728  -0.00739   2.08788
   A24        2.09284  -0.00040  -0.00038  -0.00080  -0.00117   2.09166
   A25        2.09551   0.00209   0.00034   0.00838   0.00867   2.10418
   A26        2.09555  -0.00169  -0.00011  -0.00751  -0.00759   2.08796
   A27        2.09207  -0.00040  -0.00021  -0.00084  -0.00104   2.09103
   A28        2.07647  -0.00072  -0.00251  -0.00344  -0.00596   2.07051
   A29        2.11227   0.00135   0.00270   0.00649   0.00920   2.12147
   A30        2.09444  -0.00063  -0.00019  -0.00304  -0.00323   2.09121
   A31        2.07608  -0.00083  -0.00239  -0.00381  -0.00622   2.06986
   A32        2.11236   0.00144   0.00259   0.00687   0.00947   2.12183
   A33        2.09474  -0.00061  -0.00020  -0.00306  -0.00325   2.09149
   A34        2.12800   0.00211   0.00450   0.00524   0.00974   2.13774
   A35        2.07745  -0.00106  -0.00227  -0.00263  -0.00491   2.07254
   A36        2.07773  -0.00105  -0.00222  -0.00260  -0.00483   2.07291
   A37        3.12910   0.00168  -0.00614   0.03412   0.02713   3.15623
   A38        3.18668  -0.00332   0.00669  -0.49716  -0.49075   2.69593
   A39        3.14537  -0.00022   0.00194  -0.00509  -0.00693   3.13844
   A40        3.14482  -0.00037   0.00048  -0.05372  -0.04772   3.09709
    D1        0.01299  -0.00030  -0.00242  -0.00563  -0.00789   0.00510
    D2       -3.13747   0.00002   0.00050  -0.00178  -0.00119  -3.13867
    D3       -3.12805  -0.00036  -0.00281  -0.00608  -0.00877  -3.13682
    D4        0.00468  -0.00004   0.00011  -0.00223  -0.00208   0.00260
    D5        0.00352  -0.00005   0.00001  -0.00230  -0.00218   0.00134
    D6       -3.13903  -0.00002   0.00011  -0.00070  -0.00062  -3.13965
    D7       -3.13864   0.00001   0.00040  -0.00185  -0.00129  -3.13993
    D8        0.00200   0.00004   0.00050  -0.00025   0.00027   0.00227
    D9       -0.03033   0.00082   0.00508   0.01460   0.01894  -0.01138
   D10        3.12301   0.00034   0.00367   0.00109   0.00539   3.12840
   D11        3.12008   0.00050   0.00214   0.01074   0.01228   3.13236
   D12       -0.00977   0.00001   0.00073  -0.00278  -0.00128  -0.01105
   D13        0.03094  -0.00085  -0.00529  -0.01512  -0.01965   0.01129
   D14       -3.12441  -0.00047  -0.00201  -0.01011  -0.01143  -3.13584
   D15       -3.12271  -0.00031  -0.00371  -0.00109  -0.00576  -3.12847
   D16        0.00513   0.00007  -0.00043   0.00392   0.00246   0.00759
   D17       -0.39648   0.00024   0.00369  -0.01424  -0.01141  -0.40789
   D18        2.76416   0.00011   0.00034   0.00769   0.01194   2.77610
   D19        2.74893   0.00026   0.00025   0.03473   0.03079   2.77972
   D20       -0.37362   0.00013  -0.00310   0.05666   0.05414  -0.31948
   D21       -0.01433   0.00038   0.00286   0.00677   0.00938  -0.00495
   D22        3.12670   0.00039   0.00297   0.00628   0.00911   3.13581
   D23        3.14108   0.00001  -0.00042   0.00179   0.00115  -3.14095
   D24       -0.00107   0.00001  -0.00031   0.00130   0.00088  -0.00020
   D25       -0.00288   0.00002  -0.00021   0.00177   0.00146  -0.00142
   D26        3.13967  -0.00001  -0.00031   0.00016  -0.00010   3.13956
   D27        3.13928   0.00001  -0.00032   0.00226   0.00173   3.14101
   D28       -0.00136  -0.00001  -0.00042   0.00065   0.00018  -0.00119
   D29       -3.13750  -0.00012   0.00032  -0.00479  -0.00577   3.13991
[...]
 92773,-0.11012447,0.67884506,-0.00029157,0.00001432,-0.00007043,0.0004
 7529,0.00014481,-0.00071896,-0.00219513,0.00028738,-0.00142041,0.00003
 942,-0.00018749,0.00093051,-0.00042140,0.00000982,-0.00004778,0.000161
 39,0.00001012,-0.00005043,-0.00004671,-0.00000287,0.00001437,0.0000635
 6,0.00000539,-0.00002696,0.00002896,0.00000316,-0.00001580,-0.00008619
 ,0.00000228,-0.00001102,-0.00002461,0.00000050,-0.00000244,0.00746731,
 -0.00023939,0.00117283,-0.04128185,-0.00613945,0.03062994,-0.15464832,
 -0.00986340,0.04928990,0.05805024,-0.00383707,0.01891541,0.69784074,-0
 .00006898,0.00008210,-0.00000096,0.00015159,0.00019295,-0.00008326,-0.
 00062037,0.00005875,0.00006478,0.00019817,-0.00009671,0.00005634,-0.00
 006335,-0.00015991,0.00001155,0.00006359,0.00001935,0.00000367,0.00000
 471,-0.00001014,-0.00000408,-0.00000700,-0.00003651,0.00000419,0.00000
 585,0.00002374,0.00001177,0.00000944,-0.00000373,0.00000262,0.00000121
 ,-0.00000339,0.00000125,0.00215889,0.00175729,0.00061406,-0.00397479,0
 .00153768,-0.00070712,-0.01901667,-0.07026899,0.03878916,0.00388563,0.
 00514770,0.01196618,-0.00936140,0.15370078,0.00034236,-0.00000137,0.00
 008752,-0.00075269,-0.00008325,0.00059138,0.00308564,0.00006258,-0.000
 24716,-0.00098368,0.00005706,-0.00036653,0.00031349,0.00001173,-0.0002
 1613,-0.00031505,0.00000379,0.00000215,-0.00002332,-0.00000406,0.00000
 923,0.00003440,0.00000420,-0.00005654,-0.00002931,0.00001180,-0.000032
 34,-0.00004659,0.00000268,-0.00001625,-0.00000598,0.00000125,-0.000009
 30,-0.01074093,0.00062014,-0.00117004,0.01987584,-0.00070051,0.0048128
 9,0.09476974,0.03876286,-0.25535449,-0.01945831,0.01198861,-0.05195424
 ,0.04482525,-0.11008234,0.67837827,0.00025260,-0.00001159,0.00005747,-
 0.00049500,-0.00004794,0.00023891,0.00148362,-0.00000622,0.00002524,-0
 .00036079,0.00005543,-0.00027462,0.00015983,0.00000293,-0.00001487,-0.
 00020221,0.00000877,-0.00004308,-0.00002031,-0.00000369,0.00001839,0.0
 0002066,0.00000074,-0.00000398,0.00002755,-0.00000402,0.00001985,-0.00
 001940,0.00000297,-0.00001467,-0.00001459,-0.00000049,0.00000248,-0.00
 368655,-0.00012135,0.00061232,0.00709389,0.00035707,-0.00177259,-0.031
 16227,0.01338359,-0.06639391,-0.34917623,-0.00575237,0.02944122,-0.045
 43263,-0.00520627,0.02599702,0.70721237,0.00002422,0.00017322,0.000010
 42,-0.00000727,-0.00012751,0.00001571,0.00014379,-0.00054106,-0.000170
 36,-0.00003357,0.00007812,0.00000086,0.00001471,-0.00006046,0.00000246
 ,-0.00004400,-0.00001633,-0.00000794,0.00000115,0.00000745,0.00000511,
 0.00000253,-0.00004547,-0.00001115,-0.00000310,0.00001351,-0.00000323,
 -0.00000193,-0.00000477,-0.00000533,-0.00000296,0.00000085,-0.00000081
 ,-0.00012556,-0.00010610,-0.00003243,0.00089629,0.00644538,0.00226280,
 0.00504218,0.00609702,-0.00553921,0.00651725,-0.05988076,0.01400887,-0
 .00549977,-0.00293419,0.00296995,-0.00809937,0.14733106,-0.00012017,0.
 00001031,0.00012387,0.00003674,0.00001598,-0.00020343,-0.00072087,-0.0
 0016979,0.00026988,0.00016733,0.00000046,0.00007481,-0.00007333,0.0000
 0267,-0.00007218,0.00021932,-0.00000813,0.00002157,-0.00000565,0.00000
 513,-0.00001695,-0.00001274,-0.00001109,0.00000750,0.00001556,-0.00000
 329,0.00002899,0.00000951,-0.00000536,0.00002071,0.00001474,-0.0000008
 3,0.00000473,0.00063689,-0.00003230,0.00004782,-0.00445522,0.00226415,
 -0.00433661,-0.02494630,-0.00556383,0.03270652,-0.03152422,0.01404535,
 -0.12675309,0.02745443,0.00296900,-0.01717380,0.03852757,-0.11769781,0
 .70834189,0.00000282,-0.00000204,0.00000998,0.00003170,0.00000867,-0.0
 0004287,-0.00012074,-0.00000743,0.00003758,0.00007515,0.00000657,-0.00
 003295,0.00001077,-0.00000530,0.00002627,0.00001731,-0.00000030,0.0000
 0142,0.00001084,0.00000132,-0.00000657,-0.00003404,-0.00000578,0.00002
 878,-0.00000920,0.00000042,-0.00000203,0.00001379,-0.00000129,0.000006
 34,0.00001044,-0.00000069,0.00000337,-0.00002727,-0.00003120,0.0001554
 9,0.00106051,0.00018292,-0.00092263,0.01084462,0.00303878,-0.01512026,
 -0.12968545,-0.02437649,0.12139654,-0.00146641,0.00058690,-0.00289533,
 -0.01131448,-0.00556623,0.02770184,0.13533265,-0.00000040,-0.00004378,
 -0.00001026,0.00000193,0.00001316,0.00000696,0.00000314,0.00017065,0.0
 0003769,-0.00000796,-0.00003030,0.00000574,-0.00000259,0.00001215,-0.0
 0000314,0.00000046,0.00000561,0.00000113,-0.00000154,0.00000425,0.0000
 0139,0.00000487,0.00004549,0.00000165,0.00000086,0.00000356,0.00000025
 ,-0.00000233,0.00000388,0.,-0.00000145,0.00000131,-0.00000044,0.000158
 36,0.00000075,-0.00004638,-0.00022968,-0.00339743,-0.00077948,-0.00304
 172,0.00281338,0.00428726,-0.02404733,-0.04565330,0.04577812,0.0008127
 0,0.00521677,0.00167004,0.00045741,0.00366098,-0.00021510,0.02574722,0
 .03519743,0.00000185,-0.00001022,0.00000498,-0.00000964,0.00000698,-0.
 00002011,-0.00001465,0.00003771,-0.00000895,0.00003934,0.00000573,-0.0
 0005763,0.00001291,-0.00000318,0.00002716,-0.00000239,0.00000113,0.000
 00023,0.00000763,0.00000138,-0.00000235,-0.00002406,0.00000163,0.00003
 766,-0.00000426,0.00000025,0.00000240,0.00001158,0.,0.00000386,0.00000
 719,-0.00000045,0.00000341,-0.00078771,-0.00004595,0.00022156,0.001128
 12,-0.00078058,0.00032108,0.01509121,0.00426940,-0.01758422,0.11976302
 ,0.04577913,-0.26427333,-0.00401718,0.00167059,-0.00273496,-0.00222917
 ,-0.00019741,0.00460522,-0.12825842,-0.05077576,0.27766508,0.00016033,
 -0.00000285,0.00001368,-0.00036030,-0.00005559,0.00027700,0.00148713,0
 .00000539,-0.00003194,-0.00049642,0.00004775,-0.00023739,0.00025292,0.
 00001177,-0.00005812,-0.00020306,-0.00000885,0.00004422,-0.00001937,-0
 .00000299,0.00001487,0.00002738,0.00000400,-0.00001985,0.00002076,-0.0
 0000084,0.00000392,-0.00002038,0.00000373,-0.00001837,-0.00001467,0.00
 000050,-0.00000239,-0.00369306,0.00012141,-0.00059231,0.00712342,-0.00
 034549,0.00171542,-0.03070985,-0.01340432,0.06670621,-0.04569462,0.005
 22954,-0.02585523,-0.34917749,0.00587751,-0.02833407,0.05912821,0.0044
 6562,-0.02233746,-0.00057901,0.00015118,-0.00075120,0.70684774,-0.0000
 1450,-0.00006047,0.00000240,0.00003344,0.00007833,0.00000071,-0.000145
 19,-0.00054135,-0.00016936,0.00000728,-0.00012759,0.00001562,-0.000023
 93,0.00017324,0.00001075,0.00004389,-0.00001631,-0.00000820,0.00000189
 ,-0.00000479,-0.00000535,0.00000312,0.00001347,-0.00000326,-0.00000257
 ,-0.00004551,-0.00001111,-0.00000113,0.00000745,0.00000512,0.00000296,
 0.00000085,-0.00000084,0.00012691,-0.00010562,-0.00003348,-0.00088561,
 0.00644508,0.00226720,-0.00506245,0.00610161,-0.00552780,0.00552270,-0
 .00293617,0.00294780,-0.00639272,-0.05988092,0.01404701,-0.00441902,0.
 00636745,0.01146827,0.00010841,-0.00080129,-0.00022648,0.00741197,0.14
 732922,0.00007214,0.00000255,-0.00007269,-0.00016531,0.00000100,0.0000
 7435,0.00071488,-0.00016985,0.00026670,-0.00003530,0.00001588,-0.00020
 200,0.00011966,0.00001012,0.00012349,-0.00021821,-0.00000797,0.0000225
 7,-0.00000932,-0.00000535,0.00002069,-0.00001554,-0.00000332,0.0000291
 6,0.00001269,-0.00001108,0.00000740,0.00000566,0.00000511,-0.00001688,
 -0.00001465,-0.00000081,0.00000480,-0.00061744,-0.00003345,0.00005353,
 0.00439773,0.00226549,-0.00436781,0.02525991,-0.00550318,0.03225288,-0
 .02731218,0.00294868,-0.01690925,0.03263009,0.01401058,-0.12676877,0.0
 2180746,0.01144179,-0.04824334,-0.00053941,-0.00022661,0.00028069,-0.0
 3855278,-0.11772728,0.70870906,0.00001056,0.00000531,-0.00002618,0.000
 07510,-0.00000660,0.00003227,-0.00012078,0.00000759,-0.00003697,0.0000
 3196,-0.00000863,0.00004254,0.00000278,0.00000199,-0.00000995,0.000017
 30,0.00000029,-0.00000150,0.00001370,0.00000128,-0.00000639,-0.0000091
 8,-0.00000041,0.00000208,-0.00003406,0.00000579,-0.00002840,0.00001084
 ,-0.00000132,0.00000651,0.00001039,0.00000068,-0.00000341,-0.00002431,
 0.00003108,-0.00015379,0.00105920,-0.00018754,0.00091803,0.01084480,-0
 .00301945,0.01498064,-0.00143267,-0.00057726,0.00288927,-0.13087758,0.
 02462036,-0.12205045,-0.00057265,-0.00010958,0.00054355,0.00062035,-0.
 00015765,0.00078218,-0.01143941,0.00556824,-0.02762235,0.13660036,0.00
 000257,0.00001212,-0.00000315,0.00000799,-0.00003028,0.00000570,-0.000
 00287,0.00017063,0.00003764,-0.00000192,0.00001316,0.00000697,0.000000
 34,-0.00004376,-0.00001027,-0.00000045,0.00000561,0.00000114,0.0000023
 3,0.00000388,0.,-0.00000086,0.00000357,0.00000025,-0.00000485,0.000045
 49,0.00000168,0.00000154,0.00000425,0.00000138,0.00000145,0.00000131,-
 0.00000045,-0.00015894,0.00000096,-0.00004538,0.00022508,-0.00339762,-
 0.00078086,0.00306102,0.00281322,0.00426964,-0.00080316,0.00521681,0.0
 0167308,0.02429179,-0.04566261,0.04568184,-0.00015204,-0.00080121,-0.0
 0022602,0.00015876,0.00021506,0.00024644,-0.00045576,0.00366007,-0.000
 20754,-0.02601898,0.03520755,-0.00001282,-0.00000323,0.00002736,-0.000
 03998,0.00000582,-0.00005758,0.00001510,0.00003764,-0.00000889,0.00000
 937,0.00000704,-0.00002030,-0.00000186,-0.00001024,0.00000502,0.000002
 32,0.00000114,0.00000022,-0.00001162,0.,0.00000395,0.00000432,0.000000
 24,0.00000238,0.00002443,0.00000161,0.00003767,-0.00000770,0.00000139,
 -0.00000235,-0.00000723,-0.00000045,0.00000347,0.00078880,-0.00004593,
 0.00021773,-0.00113134,-0.00077973,0.00032273,-0.01523176,0.00428748,-
 0.01758292,0.00401099,0.00167252,-0.00276952,-0.12041669,0.04568100,-0
 .26307327,0.00075550,-0.00022607,0.00027435,-0.00078991,0.00024742,-0.
 00096214,0.00230873,-0.00022536,0.00473122,0.12894907,-0.05067249,0.27
 638812,-0.00016069,-0.00002069,0.00010298,0.00057653,0.00001145,-0.000
 05861,-0.00168469,-0.00000039,0.00000448,0.00057712,-0.00001145,0.0000
 5564,-0.00016146,0.00002068,-0.00010194,0.00043500,0.,-0.00000132,0.00
 008015,0.00001417,-0.00007054,-0.00008419,-0.00000892,0.00004461,-0.00
 008442,0.00000898,-0.00004422,0.00008049,-0.00001419,0.00007012,0.0000
 7822,-0.00000002,-0.00000019,0.00310067,0.00000056,-0.00000620,-0.0038
 9786,-0.00000025,0.00000635,0.00307191,0.00003233,-0.00018116,-0.02918
 956,-0.00548852,0.02736212,-0.02972846,0.00545957,-0.02703577,-0.15225
 120,-0.02268098,0.11295445,-0.00389857,0.00019791,-0.00094958,-0.15298
 746,0.02292186,-0.11363169,-0.00388329,-0.00018998,0.00097789,0.647262
 16,-0.00000900,0.00000908,-0.00000278,0.00001020,-0.00003618,-0.000009
 86,0.00000015,0.00003580,-0.00000119,-0.00001027,-0.00003617,-0.000009
 72,0.00000888,0.00000909,-0.00000288,0.00000001,-0.00000951,0.00000971
 ,-0.00000081,0.00000098,0.00000041,0.00000015,0.00001579,0.00000426,-0
 .00000013,0.00001580,0.00000425,0.00000080,0.00000098,0.00000038,0.,0.
 00000076,0.00000058,-0.00000057,0.00045061,-0.00008118,0.00000008,-0.0
 0144505,0.00000513,0.00003289,-0.00624315,0.01353701,-0.01660265,0.002
 92390,-0.00705963,0.01657320,0.00292019,-0.00713606,-0.00735408,-0.073
 36028,0.04597622,0.00043484,0.00735502,0.00116707,0.00759578,-0.073366
 88,0.04595785,-0.00042675,0.00735529,0.00116898,-0.00031806,0.16524549
 ,0.00004493,-0.00000275,0.00002220,-0.00005231,-0.00000985,0.00001068,
 0.00000422,-0.00000124,0.00004150,0.00004952,-0.00000982,0.00001020,-0
 .00004405,-0.00000285,0.00002296,-0.00000123,0.00000971,-0.00005582,0.
 00000376,0.00000036,-0.00000075,-0.00000049,0.00000427,-0.00000457,0.0
 0000089,0.00000423,-0.00000436,-0.00000417,0.00000043,-0.00000108,-0.0
 0000020,0.00000057,-0.00000197,-0.00000533,-0.00008106,0.00083788,0.00
 000646,0.00000521,-0.00146960,-0.00018239,0.01353699,-0.07078004,0.082
 58308,-0.00709269,0.03648904,-0.08225649,-0.00710316,0.03703233,0.0368
 0215,0.04602201,-0.29288980,-0.00212650,0.00116756,0.00179414,-0.03747
 916,0.04591219,-0.29213281,0.00215490,0.00116849,0.00177886,0.00008475
 ,-0.10981780,0.68880293,-0.00000053,-0.00000340,0.00001685,-0.00009010
 ,0.00000853,-0.00004198,0.00012805,-0.00001717,0.00008483,-0.00004863,
 -0.00000402,0.00002002,0.00000009,0.00000053,-0.00000266,-0.00002499,0
 .00000010,-0.00000044,-0.00001583,-0.00000102,0.00000511,0.00000935,0.
 00000081,-0.00000402,0.00001147,-0.00000182,0.00000901,-0.00000990,0.0
 0000084,-0.00000412,-0.00000591,-0.00000011,0.00000056,-0.00033351,-0.
 00000691,0.00003480,-0.00037422,0.00025118,-0.00124537,-0.00457990,-0.
 00032295,0.00163916,-0.01041478,0.00551765,-0.02737798,-0.00078009,-0.
 00012625,0.00062730,-0.13495417,0.02514888,-0.12466525,0.00078026,-0.0
 0007084,0.00033702,-0.00147179,-0.00060131,0.00300602,0.00006706,0.000
 01579,-0.00008067,0.01106596,-0.00277737,0.01378220,0.13866208,0.00000
 041,0.00000804,0.00000316,0.00000067,-0.00000387,0.00000007,-0.0000040
 8,-0.00001431,0.00000015,0.00000231,-0.00001412,-0.00000389,0.,-0.0000
 0612,-0.00000255,0.00000283,-0.00000276,-0.00000069,0.00000041,0.00000
 211,-0.00000015,-0.00000067,0.00000404,0.00000101,-0.00000056,0.000004
 91,0.00000090,0.00000056,0.00000193,0.00000098,0.00000063,0.00000126,0
 .00000027,-0.00001811,-0.00015832,-0.00002186,0.00000505,0.00053476,0.
 00006913,-0.00025957,0.00677138,0.00100531,-0.00035018,0.00265579,-0.0
 0059464,-0.00020582,-0.00070977,-0.00019395,0.02474466,-0.04327612,0.0
 4559779,0.00005643,-0.00411472,-0.00098025,-0.00078908,0.00444701,0.00
 152997,0.00001425,-0.00066551,-0.00013150,0.00370189,0.00409858,0.0047
 4680,-0.02709577,0.03418812,-0.00000204,0.00000318,-0.00000706,-0.0000
 0307,0.00000006,-0.00000418,0.00001973,0.00000021,-0.00001530,-0.00001
 141,-0.00000389,0.00000439,-0.00000005,-0.00000255,0.00000603,-0.00001
 395,-0.00000068,0.00000053,-0.00000201,-0.00000014,0.00000279,0.000003
 30,0.00000101,-0.00000075,0.00000278,0.00000090,0.00000061,-0.00000276
 ,0.00000098,-0.00000273,-0.00000313,0.00000028,-0.00000005,0.00009079,
 -0.00002187,-0.00005422,-0.00002263,0.00006838,0.00020872,0.00132423,0
 .00100537,0.00197390,0.00177855,-0.00061192,0.00557130,0.00102273,-0.0
 0019419,0.00021309,-0.12265732,0.04559692,-0.26028865,-0.00029556,-0.0
 0097984,0.00055764,0.00393903,0.00152938,-0.00285654,-0.00007306,-0.00
 013150,-0.00003834,-0.01841125,0.00476567,-0.01856923,0.13429872,-0.04
 992336,0.27179169,0.00000011,-0.00000056,0.00000267,-0.00004865,0.0000
 0402,-0.00001973,0.00012752,0.00001716,-0.00008565,-0.00008989,-0.0000
 0848,0.00004243,-0.00000060,0.00000340,-0.00001688,-0.00002493,-0.0000
 0009,0.00000058,-0.00000986,-0.00000083,0.00000415,0.00001140,0.000001
 82,-0.00000905,0.00000935,-0.00000081,0.00000398,-0.00001584,0.0000010
 3,-0.00000502,-0.00000590,0.00000011,-0.00000053,-0.00033439,0.0000067
 1,-0.00003318,-0.00036778,-0.00025069,0.00124822,-0.00459411,0.0003303
 9,-0.00160670,-0.00078826,0.00012526,-0.00062230,-0.01028829,-0.005518
 25,0.02745644,-0.00150602,0.00060998,-0.00301248,0.00006781,-0.0000165
 8,0.00008015,-0.13374325,-0.02490702,0.12404782,0.00078007,0.00006506,
 -0.00033834,0.01108800,0.00279956,-0.01392818,0.00051612,0.00015532,-0
 .00077241,0.13734645,-0.00000001,-0.00000613,-0.00000255,-0.00000235,-
 0.00001410,-0.00000387,0.00000408,-0.00001432,0.00000016,-0.00000066,-
 0.00000386,0.00000007,-0.00000039,0.00000804,0.00000317,-0.00000283,-0
 .00000276,-0.00000067,-0.00000056,0.00000193,0.00000098,0.00000057,0.0
 0000491,0.00000090,0.00000067,0.00000405,0.00000101,-0.00000041,0.0000
 0210,-0.00000014,-0.00000063,0.00000126,0.00000028,0.00001807,-0.00015
 834,-0.00002200,-0.00000455,0.00053466,0.00006898,0.00026682,0.0067717
 4,0.00100429,0.00020490,-0.00070977,-0.00019483,0.00034989,0.00265688,
 -0.00060176,0.00079772,0.00444655,0.00152663,-0.00001505,-0.00066555,-
 0.00013146,-0.02450303,-0.04326762,0.04569836,-0.00006228,-0.00411486,
 -0.00097991,-0.00367958,0.00409862,0.00476732,-0.00015422,0.00024056,0
 .00023379,0.02683005,0.03417862,0.00000009,-0.00000256,0.00000601,0.00
 001167,-0.00000389,0.00000444,-0.00002043,0.00000011,-0.00001478,0.000
 00350,0.00000013,-0.00000440,0.00000201,0.00000314,-0.00000698,0.00001
 407,-0.00000068,0.00000045,0.00000279,0.00000098,-0.00000277,-0.000002
 84,0.00000089,0.00000067,-0.00000335,0.00000101,-0.00000076,0.00000210
 ,-0.00000015,0.00000280,0.00000316,0.00000027,-0.00000006,-0.00008943,
 -0.00002200,-0.00005352,0.00002551,0.00006974,0.00020230,-0.00129140,0
 .00100421,0.00198848,-0.00101782,-0.00019466,0.00022127,-0.00169997,-0
 .00058431,0.00544417,-0.00394546,0.00152717,-0.00282218,0.00007250,-0.
 00013145,-0.00003910,0.12203957,0.04569918,-0.26150855,0.00029428,-0.0
 0098032,0.00055781,0.01826534,0.00474845,-0.01859157,0.00076557,0.0002
 3288,-0.00087185,-0.13364289,-0.05003316,0.27311691,0.00007475,0.00004
 890,-0.00024237,-0.00053173,0.00003922,-0.00019317,0.00138880,0.000000
 23,-0.00000347,-0.00053085,-0.00003912,0.00019582,0.00007610,-0.000048
 93,0.00024182,-0.00058721,0.00000004,0.00000165,-0.00011078,-0.0000192
 8,0.00009597,0.00010015,0.00000734,-0.00003688,0.00010037,-0.00000739,
 0.00003643,-0.00011126,0.00001931,-0.00009539,-0.00010190,0.00000003,0
 .00000025,-0.00109295,-0.00000019,0.00000245,0.00048805,-0.00000103,0.
 00000005,-0.00181054,-0.00000263,0.00001494,0.00262358,-0.00092433,0.0
 0460681,0.00261983,0.00093991,-0.00465599,-0.04421024,-0.00069230,0.00
 359174,-0.00174382,0.00004404,-0.00021394,-0.04443774,0.00070276,-0.00
 333987,-0.00175055,-0.00004392,0.00022338,-0.29940436,0.00004313,0.000
 56365,0.00186394,0.00003841,-0.00020922,0.00187092,-0.00004623,0.00021
 142,0.38521744,0.00000027,-0.00000441,-0.00000202,0.00000094,0.0000159
 2,0.00000671,-0.00000009,0.00003731,0.00001266,-0.00000079,0.00001592,
 0.00000666,-0.00000030,-0.00000439,-0.00000207,0.00000007,0.00000654,0
 .00000062,0.00000063,-0.00000188,-0.00000059,0.00000064,-0.00000605,-0
 .00000266,-0.00000067,-0.00000605,-0.00000266,-0.00000061,-0.00000189,
 -0.00000056,0.,-0.00000139,-0.00000060,0.00000009,-0.00002333,0.000006
 19,-0.00000069,-0.00075251,-0.00025471,-0.00000274,-0.00105252,-0.0011
 2597,0.00079138,0.00645296,0.00290323,-0.00077599,0.00645271,0.0029077
 7,-0.00863287,0.00653264,0.00005159,-0.00031945,-0.00001306,-0.0000357
 2,0.00864265,0.00653075,0.00000906,0.00031958,-0.00001311,-0.00003734,
 0.00004363,-0.04003875,0.00677505,0.00023884,-0.00399286,-0.00133617,-
 0.00024654,-0.00399260,-0.00133501,-0.00005798,0.02386004,-0.00000160,
 -0.00000218,0.00000592,-0.00000299,0.00000660,-0.00001541,-0.00000350,
 0.00001270,-0.00002304,0.00000555,0.00000681,-0.00001639,0.00000125,-0
 .00000194,0.00000471,0.00000147,0.00000063,0.00000358,-0.00000281,-0.0
 0000053,0.00000062,-0.00000348,-0.00000268,0.00000671,0.00000302,-0.00
 000264,0.00000650,0.00000336,-0.00000062,0.00000108,0.00000026,-0.0000
 0060,0.00000146,0.00000252,0.00000606,-0.00005283,-0.00000004,-0.00025
 465,0.00046176,0.00001510,-0.00112589,0.00431519,-0.00391826,0.0029082
 3,-0.00740068,0.00386911,0.00290271,-0.00739720,0.04304407,0.00002767,
 0.00627215,0.00159231,-0.00003676,0.00015768,-0.04279237,0.00003287,0.
 00650210,-0.00158288,-0.00003628,0.00016445,0.00056374,0.00677514,-0.0
 7234113,-0.00120466,-0.00133560,0.00237822,0.00120691,-0.00133559,0.00
 237120,-0.00079607,-0.00854346,0.06459335\\-0.00003883,0.00000286,-0.0
 0001310,0.00004188,0.00000332,-0.00001216,-0.00001485,-0.00000748,0.00
 003877,-0.00001118,0.00000685,-0.00002323,0.00001592,0.00000269,-0.000
 01380,0.00000756,-0.00000664,0.00002961,0.00000180,-0.00000007,0.00000
 015,-0.00000857,-0.00000126,-0.00000024,-0.00000050,-0.00000255,0.0000
 0408,-0.00000404,-0.00000048,0.00000270,-0.00000012,0.00000134,-0.0000
 0346,-0.00002493,-0.00000493,-0.00000525,0.00002454,0.00001119,-0.0000
 1233,0.00001762,-0.00000506,0.00001586,-0.00001889,-0.00000124,0.00000
 003,-0.00001474,0.00000053,-0.00000791,0.00001790,0.00000046,-0.000001
 48,0.00000355,0.00000031,-0.00000244,0.00001284,0.00000002,-0.00000235
 ,0.00000325,-0.00000072,0.00000283,-0.00001649,0.00000065,0.00000326,0
 .00000054,0.00000071,-0.00000095,0.00000094,0.00000018,0.00000156,0.00
 000479,-0.00000069,-0.00000016\\\@


 ON A CLEAR DISK YOU CAN SEEK FOREVER.
 Job cpu time:       0 days  1 hours 33 minutes 23.5 seconds.
 Elapsed time:       0 days  0 hours  3 minutes  6.8 seconds.
 File lengths (MBytes):  RWF=    229 Int=      0 D2E=      0 Chk=      8 Scr=      1
 Normal termination of Gaussian 16 at Sun Sep 17 16:51:12 2023.
