 Entering Gaussian System, Link 0=/home/ubuntu/g16/g16
 Input=/home/ubuntu/products/molecule_15.gjf
 Output=/home/ubuntu/products/molecule_15.log
 Initial command:
 /home/ubuntu/g16/l1.exe "/home/ubuntu/Scratch/Gau-49729.inp" -scrdir="/home/ubuntu/Scratch/"
 Entering Link 1 = /home/ubuntu/g16/l1.exe PID=     49731.
  
 Copyright (c) 1988-2017, Gaussian, Inc.  All Rights Reserved.
  
 This is part of the Gaussian(R) 16 program.  It is based on
 the Gaussian(R) 09 system (copyright 2009, Gaussian, Inc.),
 the Gaussian(R) 03 system (copyright 2003, Gaussian, Inc.),
 the Gaussian(R) 98 system (copyright 1998, Gaussian, Inc.),
 the Gaussian(R) 94 system (copyright 1995, Gaussian, Inc.),
 the Gaussian 92(TM) system (copyright 1992, Gaussian, Inc.),
 the Gaussian 90(TM) system (copyright 1990, Gaussian, Inc.),
 the Gaussian 88(TM) system (copyright 1988, Gaussian, Inc.),
 the Gaussian 86(TM) system (copyright 1986, Carnegie Mellon
 University), and the Gaussian 82(TM) system (copyright 1983,
 Carnegie Mellon University). Gaussian is a federally registered
 trademark of Gaussian, Inc.
  
 This software contains proprietary and confidential information,
 including trade secrets, belonging to Gaussian, Inc.
  
 This software is provided under written license and may be
 used, copied, transmitted, or stored only in accord with that
 written license.
  
 The following legend is applicable only to US Government
 contracts under FAR:
  
                    RESTRICTED RIGHTS LEGEND
  
 Use, reproduction and disclosure by the US Government is
 subject to restrictions as set forth in subparagraphs (a)
 and (c) of the Commercial Computer Software - Restricted
 Rights clause in FAR 52.227-19.
  
 Gaussian, Inc.
 340 Quinnipiac St., Bldg. 40, Wallingford CT 06492
  
  
 ---------------------------------------------------------------
 Warning -- This program may not be used in any manner that
 competes with the business of Gaussian, Inc. or will provide
 assistance to any competitor of Gaussian, Inc.  The licensee
 of this program is prohibited from giving any competitor of
 Gaussian, Inc. access to this program.  By using this program,
 the user acknowledges that Gaussian, Inc. is engaged in the
 business of creating and licensing software in the field of
 computational chemistry and represents and warrants to the
 licensee that it is not a competitor of Gaussian, Inc. and that
 it will not use this program in any manner prohibited above.
 ---------------------------------------------------------------
  

 Cite this work as:
 Gaussian 16, Revision B.01,
 M. J. Frisch, G. W. Trucks, H. B. Schlegel, G. E. Scuseria, 
 M. A. Robb, J. R. Cheeseman, G. Scalmani, V. Barone, 
 G. A. Petersson, H. Nakatsuji, X. Li, M. Caricato, A. V. Marenich, 
 J. Bloino, B. G. Janesko, R. Gomperts, B. Mennucci, H. P. Hratchian, 
 J. V. Ortiz, A. F. Izmaylov, J. L. Sonnenberg, D. Williams-Young, 
 F. Ding, F. Lipparini, F. Egidi, J. Goings, B. Peng, A. Petrone, 
 T. Henderson, D. Ranasinghe, V. G. Zakrzewski, J. Gao, N. Rega, 
 G. Zheng, W. Liang, M. Hada, M. Ehara, K. Toyota, R. Fukuda, 
 J. Hasegawa, M. Ishida, T. Nakajima, Y. Honda, O. Kitao, H. Nakai, 
 T. Vreven, K. Throssell, J. A. Montgomery, Jr., J. E. Peralta, 
 F. Ogliaro, M. J. Bearpark, J. J. Heyd, E. N. Brothers, K. N. Kudin, 
 V. N. Staroverov, T. A. Keith, R. Kobayashi, J. Normand, 
 K. Raghavachari, A. P. Rendell, J. C. Burant, S. S. Iyengar, 
 J. Tomasi, M. Cossi, J. M. Millam, M. Klene, C. Adamo, R. Cammi, 
 J. W. Ochterski, R. L. Martin, K. Morokuma, O. Farkas, 
 J. B. Foresman, and D. J. Fox, Gaussian, Inc., Wallingford CT, 2016.
 
 ******************************************
 Gaussian 16:  EM64L-G16RevB.01 20-Dec-2017
                17-Sep-2023 
 ******************************************
 %nprocshared=30
 Will use up to   30 processors via shared memory.
 %mem=30GB
 %chk=molecule_15.chk
 ---------------------------------------------------------
 # opt freq b3lyp/6-31+g(d) empiricaldispersion=gd3 volume
 ---------------------------------------------------------
 1/18=20,19=15,26=3,38=1/1,3;
 2/9=110,12=2,17=6,18=5,40=1/2;
 3/5=1,6=6,7=11,11=2,25=1,30=1,71=1,74=-5,124=31/1,2,3;
 4//1;
 5/5=2,38=5/2;
 6/7=2,8=2,9=2,10=2,28=1,44=1/1,4;
 7//1,2,3,16;
 1/18=20,19=15,26=3/3(2);
 2/9=110/2;
 99//99;
 2/9=110/2;
 3/5=1,6=6,7=11,11=2,25=1,30=1,71=1,74=-5,124=31/1,2,3;
 4/5=5,16=3,69=1/1;
 5/5=2,38=5/2;
 7//1,2,3,16;
 1/18=20,19=15,26=3/3(-5);
 2/9=110/2;
 6/7=2,8=2,9=2,10=2,19=2,28=1,44=1/1,4;
 99/9=1/99;
 -------------------
 Title Card Required
 -------------------
 Symbolic Z-matrix:
 Charge =  0 Multiplicity = 1
 C                     5.1093   -1.21002   0. 
 C                     3.71527  -1.21511   0.00027 
 C                     2.99846  -0.00023   0.00018 
 C                     3.71494   1.21499  -0.00013 
 C                     5.10888   1.21035  -0.00038 
 C                     5.81128   0.00023  -0.00031 
 H                     5.6498   -2.15308   0.00004 
 H                     3.16831  -2.1535    0.00052 
 H                     3.16755   2.15312  -0.00016 
 H                     5.64919   2.15352  -0.00062 
 H                     6.89809   0.00046  -0.00053 
 C                     1.57314  -0.00031   0.00029 
 C                     0.35588  -0.00008   0.00034 
 C                    -1.06829  -0.00005   0.00022 
 C                    -1.78848  -1.2126   -0.00005 
 C                    -1.78843   1.21254   0.00034 
 C                    -3.18129  -1.21593  -0.00019 
 H                    -1.24671  -2.15361  -0.00013 
 C                    -3.18124   1.21594   0.0002 
 H                    -1.24662   2.15353   0.00053 
 C                    -3.86857   0.00002  -0.00006 
 H                    -3.73166  -2.1513   -0.00039 
 H                    -3.73157   2.15133   0.00028 
 Cl                   -5.62597   0.00006  -0.00022 
 

 GradGradGradGradGradGradGradGradGradGradGradGradGradGradGradGradGradGrad
 Berny optimization.
 Initialization pass.
                           ----------------------------
                           !    Initial Parameters    !
                           ! (Angstroms and Degrees)  !
 --------------------------                            --------------------------
 ! Name  Definition              Value          Derivative Info.                !
 --------------------------------------------------------------------------------
 ! R1    R(1,2)                  1.394          estimate D2E/DX2                !
 ! R2    R(1,6)                  1.3991         estimate D2E/DX2                !
 ! R3    R(1,7)                  1.087          estimate D2E/DX2                !
 ! R4    R(2,3)                  1.4106         estimate D2E/DX2                !
 ! R5    R(2,8)                  1.0862         estimate D2E/DX2                !
 ! R6    R(3,4)                  1.4107         estimate D2E/DX2                !
 ! R7    R(3,12)                 1.4253         estimate D2E/DX2                !
 ! R8    R(4,5)                  1.3939         estimate D2E/DX2                !
 ! R9    R(4,9)                  1.0861         estimate D2E/DX2                !
 ! R10   R(5,6)                  1.3992         estimate D2E/DX2                !
 ! R11   R(5,10)                 1.087          estimate D2E/DX2                !
 ! R12   R(6,11)                 1.0868         estimate D2E/DX2                !
 ! R13   R(12,13)                1.2173         estimate D2E/DX2                !
 ! R14   R(13,14)                1.4242         estimate D2E/DX2                !
 ! R15   R(14,15)                1.4103         estimate D2E/DX2                !
 ! R16   R(14,16)                1.4103         estimate D2E/DX2                !
 ! R17   R(15,17)                1.3928         estimate D2E/DX2                !
 ! R18   R(15,18)                1.0858         estimate D2E/DX2                !
 ! R19   R(16,19)                1.3928         estimate D2E/DX2                !
 ! R20   R(16,20)                1.0858         estimate D2E/DX2                !
 ! R21   R(17,21)                1.3967         estimate D2E/DX2                !
 ! R22   R(17,22)                1.0853         estimate D2E/DX2                !
 ! R23   R(19,21)                1.3967         estimate D2E/DX2                !
 ! R24   R(19,23)                1.0853         estimate D2E/DX2                !
 ! R25   R(21,24)                1.7574         estimate D2E/DX2                !
 ! A1    A(2,1,6)              120.3241         estimate D2E/DX2                !
 ! A2    A(2,1,7)              119.6094         estimate D2E/DX2                !
 ! A3    A(6,1,7)              120.0665         estimate D2E/DX2                !
 ! A4    A(1,2,3)              120.3323         estimate D2E/DX2                !
 ! A5    A(1,2,8)              120.4458         estimate D2E/DX2                !
 ! A6    A(3,2,8)              119.2219         estimate D2E/DX2                !
 ! A7    A(2,3,4)              118.9352         estimate D2E/DX2                !
 ! A8    A(2,3,12)             120.5382         estimate D2E/DX2                !
 ! A9    A(4,3,12)             120.5266         estimate D2E/DX2                !
 ! A10   A(3,4,5)              120.3323         estimate D2E/DX2                !
 ! A11   A(3,4,9)              119.2132         estimate D2E/DX2                !
 ! A12   A(5,4,9)              120.4544         estimate D2E/DX2                !
 ! A13   A(4,5,6)              120.3236         estimate D2E/DX2                !
 ! A14   A(4,5,10)             119.6162         estimate D2E/DX2                !
 ! A15   A(6,5,10)             120.0603         estimate D2E/DX2                !
 ! A16   A(1,6,5)              119.7524         estimate D2E/DX2                !
 ! A17   A(1,6,11)             120.1267         estimate D2E/DX2                !
 ! A18   A(5,6,11)             120.1209         estimate D2E/DX2                !
 ! A19   A(13,14,15)           120.7065         estimate D2E/DX2                !
 ! A20   A(13,14,16)           120.7069         estimate D2E/DX2                !
 ! A21   A(15,14,16)           118.5866         estimate D2E/DX2                !
 ! A22   A(14,15,17)           120.8449         estimate D2E/DX2                !
 ! A23   A(14,15,18)           119.362          estimate D2E/DX2                !
 ! A24   A(17,15,18)           119.7931         estimate D2E/DX2                !
 ! A25   A(14,16,19)           120.845          estimate D2E/DX2                !
 ! A26   A(14,16,20)           119.3618         estimate D2E/DX2                !
 ! A27   A(19,16,20)           119.7932         estimate D2E/DX2                !
 ! A28   A(15,17,21)           119.3391         estimate D2E/DX2                !
 ! A29   A(15,17,22)           120.6093         estimate D2E/DX2                !
 ! A30   A(21,17,22)           120.0516         estimate D2E/DX2                !
 ! A31   A(16,19,21)           119.339          estimate D2E/DX2                !
 ! A32   A(16,19,23)           120.6099         estimate D2E/DX2                !
 ! A33   A(21,19,23)           120.0511         estimate D2E/DX2                !
 ! A34   A(17,21,19)           121.0453         estimate D2E/DX2                !
 ! A35   A(17,21,24)           119.4774         estimate D2E/DX2                !
 ! A36   A(19,21,24)           119.4772         estimate D2E/DX2                !
 ! A37   L(3,12,13,9,-1)       179.9861         estimate D2E/DX2                !
 ! A38   L(12,13,14,18,-1)     179.9908         estimate D2E/DX2                !
 ! A39   L(3,12,13,9,-2)       179.9973         estimate D2E/DX2                !
 ! A40   L(12,13,14,18,-2)     180.0088         estimate D2E/DX2                !
 ! D1    D(6,1,2,3)              0.0023         estimate D2E/DX2                !
 ! D2    D(6,1,2,8)           -179.9997         estimate D2E/DX2                !
 ! D3    D(7,1,2,3)           -179.9974         estimate D2E/DX2                !
 ! D4    D(7,1,2,8)              0.0006         estimate D2E/DX2                !
 ! D5    D(2,1,6,5)             -0.0012         estimate D2E/DX2                !
 ! D6    D(2,1,6,11)          -179.999          estimate D2E/DX2                !
 ! D7    D(7,1,6,5)            179.9985         estimate D2E/DX2                !
 ! D8    D(7,1,6,11)             0.0007         estimate D2E/DX2                !
 ! D9    D(1,2,3,4)             -0.0026         estimate D2E/DX2                !
 ! D10   D(1,2,3,12)           179.9925         estimate D2E/DX2                !
 ! D11   D(8,2,3,4)            179.9993         estimate D2E/DX2                !
 ! D12   D(8,2,3,12)            -0.0055         estimate D2E/DX2                !
 ! D13   D(2,3,4,5)              0.0019         estimate D2E/DX2                !
 ! D14   D(2,3,4,9)           -179.9974         estimate D2E/DX2                !
 ! D15   D(12,3,4,5)          -179.9932         estimate D2E/DX2                !
 ! D16   D(12,3,4,9)             0.0075         estimate D2E/DX2                !
 ! D17   D(2,3,14,15)           -0.0176         estimate D2E/DX2                !
 ! D18   D(2,3,14,16)          179.9899         estimate D2E/DX2                !
 ! D19   D(4,3,14,15)          179.9729         estimate D2E/DX2                !
 ! D20   D(4,3,14,16)           -0.0196         estimate D2E/DX2                !
 ! D21   D(3,4,5,6)             -0.0009         estimate D2E/DX2                !
 ! D22   D(3,4,5,10)           179.9995         estimate D2E/DX2                !
 ! D23   D(9,4,5,6)            179.9984         estimate D2E/DX2                !
 ! D24   D(9,4,5,10)            -0.0011         estimate D2E/DX2                !
 ! D25   D(4,5,6,1)              0.0005         estimate D2E/DX2                !
 ! D26   D(4,5,6,11)           179.9983         estimate D2E/DX2                !
 ! D27   D(10,5,6,1)          -179.9999         estimate D2E/DX2                !
 ! D28   D(10,5,6,11)           -0.0021         estimate D2E/DX2                !
 ! D29   D(13,14,15,17)       -179.9989         estimate D2E/DX2                !
 ! D30   D(13,14,15,18)          0.0025         estimate D2E/DX2                !
 ! D31   D(16,14,15,17)         -0.0001         estimate D2E/DX2                !
 ! D32   D(16,14,15,18)       -179.9986         estimate D2E/DX2                !
 ! D33   D(13,14,16,19)        179.9989         estimate D2E/DX2                !
 ! D34   D(13,14,16,20)         -0.0003         estimate D2E/DX2                !
 ! D35   D(15,14,16,19)          0.0            estimate D2E/DX2                !
 ! D36   D(15,14,16,20)       -179.9992         estimate D2E/DX2                !
 ! D37   D(14,15,17,21)         -0.0001         estimate D2E/DX2                !
 ! D38   D(14,15,17,22)       -179.9994         estimate D2E/DX2                !
 ! D39   D(18,15,17,21)        179.9984         estimate D2E/DX2                !
 ! D40   D(18,15,17,22)         -0.0009         estimate D2E/DX2                !
 ! D41   D(14,16,19,21)          0.0002         estimate D2E/DX2                !
 ! D42   D(14,16,19,23)       -179.9993         estimate D2E/DX2                !
 ! D43   D(20,16,19,21)        179.9994         estimate D2E/DX2                !
 ! D44   D(20,16,19,23)         -0.0001         estimate D2E/DX2                !
 ! D45   D(15,17,21,19)          0.0004         estimate D2E/DX2                !
 ! D46   D(15,17,21,24)       -179.9995         estimate D2E/DX2                !
 ! D47   D(22,17,21,19)        179.9997         estimate D2E/DX2                !
 ! D48   D(22,17,21,24)         -0.0002         estimate D2E/DX2                !
 ! D49   D(16,19,21,17)         -0.0004         estimate D2E/DX2                !
 ! D50   D(16,19,21,24)        179.9994         estimate D2E/DX2                !
 ! D51   D(23,19,21,17)        179.9991         estimate D2E/DX2                !
 ! D52   D(23,19,21,24)         -0.001          estimate D2E/DX2                !
 --------------------------------------------------------------------------------
 Trust Radius=3.00D-01 FncErr=1.00D-07 GrdErr=1.00D-06 EigMax=2.50D+02 EigMin=1.00D-04
 Number of steps in this run=    127 maximum allowed number of steps=    144.
 GradGradGradGradGradGradGradGradGradGradGradGradGradGradGradGradGradGrad

                          Input orientation:                          
 ---------------------------------------------------------------------
 Center     Atomic      Atomic             Coordinates (Angstroms)
 Number     Number       Type             X           Y           Z
 ---------------------------------------------------------------------
      1          6           0        5.109299   -1.210023    0.000004
      2          6           0        3.715268   -1.215113    0.000270
      3          6           0        2.998458   -0.000226    0.000179
      4          6           0        3.714942    1.214994   -0.000128
      5          6           0        5.108878    1.210349   -0.000378
      6          6           0        5.811280    0.000232   -0.000308
      7          1           0        5.649799   -2.153078    0.000035
      8          1           0        3.168312   -2.153500    0.000517
      9          1           0        3.167547    2.153120   -0.000156
     10          1           0        5.649189    2.153515   -0.000621
     11          1           0        6.898089    0.000455   -0.000531
     12          6           0        1.573135   -0.000308    0.000289
     13          6           0        0.355876   -0.000082    0.000336
     14          6           0       -1.068288   -0.000046    0.000216
     15          6           0       -1.788477   -1.212597   -0.000052
     16          6           0       -1.788426    1.212543    0.000338
     17          6           0       -3.181294   -1.215926   -0.000192
     18          1           0       -1.246714   -2.153610   -0.000126
     19          6           0       -3.181237    1.215937    0.000198
     20          1           0       -1.246617    2.153530    0.000531
     21          6           0       -3.868572    0.000018   -0.000062
     22          1           0       -3.731664   -2.151300   -0.000389
     23          1           0       -3.731572    2.151331    0.000282
     24         17           0       -5.625966    0.000060   -0.000224
 ---------------------------------------------------------------------
                    Distance matrix (angstroms):
                    1          2          3          4          5
     1  C    0.000000
     2  C    1.394040   0.000000
     3  C    2.432953   1.410591   0.000000
     4  C    2.797309   2.430107   1.410712   0.000000
     5  C    2.420372   2.797323   2.432974   1.393944   0.000000
     6  C    1.399105   2.422876   2.812822   2.422866   1.399197
     7  H    1.086965   2.149928   3.415316   3.884274   3.406646
     8  H    2.158143   1.086154   2.159963   3.412559   3.883462
     9  H    3.883443   3.412476   2.159975   1.086150   2.158143
    10  H    3.406592   3.884290   3.415403   2.149915   1.086967
    11  H    2.159867   3.407045   3.899631   3.406983   2.159889
    12  C    3.737361   2.462618   1.425323   2.462579   3.737268
    13  C    4.904996   3.572368   2.642582   3.572077   4.904709
    14  C    6.294968   4.935463   4.066746   4.935140   6.294636
    15  C    6.897776   5.503746   4.938076   6.015049   7.310552
    16  C    7.310775   6.015327   4.938124   5.503369   6.897304
    17  C    8.290595   6.896562   6.298195   7.312144   8.637926
    18  H    6.425672   5.049955   4.760100   5.997126   7.190951
    19  C    8.638187   7.312440   6.298229   6.896179   8.290117
    20  H    7.191047   5.997338   4.760181   5.049546   6.425100
    21  C    9.059049   7.680571   6.867030   7.680225   9.058670
    22  H    8.890930   7.505547   7.065526   8.172140   9.458111
    23  H    9.458314   8.172415   7.065586   7.505151   8.890388
    24  Cl  10.803250   9.419942   8.624424   9.419587  10.802855
                    6          7          8          9         10
     6  C    0.000000
     7  H    2.159356   0.000000
     8  H    3.409376   2.481487   0.000000
     9  H    3.409436   4.970404   4.306620   0.000000
    10  H    2.159375   4.306593   4.970426   2.481642   0.000000
    11  H    1.086809   2.489163   4.307059   4.307077   2.489060
    12  C    4.238145   4.610164   2.679706   2.679441   4.610116
    13  C    5.455404   5.714981   3.542175   3.541437   5.714643
    14  C    6.879568   7.054661   4.752488   4.751676   7.054241
    15  C    7.695925   7.497497   5.045300   5.990845   8.163920
    16  C    7.695793   8.164227   5.991619   5.044438   7.496902
    17  C    9.074438   8.880679   6.418453   7.187368   9.451485
    18  H    7.379317   6.896513   4.415026   6.167141   8.130486
    19  C    9.074321   9.451849   7.188176   6.417583   8.880061
    20  H    7.379065   8.130647   6.167828   4.414164   6.895806
    21  C    9.679852   9.758853   7.359034   7.358180   9.758346
    22  H    9.782478   9.381463   6.899976   8.131860  10.321426
    23  H    9.782293  10.321728   8.132648   6.899119   9.380761
    24  Cl  11.437246  11.479498   9.054123   9.053261  11.478959
                   11         12         13         14         15
    11  H    0.000000
    12  C    5.324954   0.000000
    13  C    6.542213   1.217259   0.000000
    14  C    7.966377   2.641423   1.424164   0.000000
    15  C    8.770857   3.573525   2.463421   1.410302   0.000000
    16  C    8.770673   3.573668   2.463431   1.410309   2.425140
    17  C   10.152514   4.907374   3.740301   2.437859   1.392821
    18  H    8.424833   3.547994   2.684395   2.160943   1.085823
    19  C   10.152350   4.907474   3.740304   2.437861   2.799564
    20  H    8.424486   3.548242   2.684405   2.160947   3.409461
    21  C   10.766661   5.441707   4.224448   2.800284   2.407744
    22  H   10.845354   5.724304   4.619061   3.423663   2.158041
    23  H   10.845089   5.724462   4.619070   3.423668   3.884795
    24  Cl  12.524055   7.199101   5.981842   4.557678   4.024532
                   16         17         18         19         20
    16  C    0.000000
    17  C    2.799561   0.000000
    18  H    3.409463   2.149849   0.000000
    19  C    1.392815   2.431863   3.885386   0.000000
    20  H    1.085824   3.885384   4.307140   2.149845   0.000000
    21  C    2.407743   1.396736   3.392971   1.396742   3.392972
    22  H    3.884793   1.085280   2.484951   3.411928   4.970616
    23  H    2.158041   3.411924   4.970617   1.085279   2.484956
    24  Cl   4.024528   2.730392   4.880179   2.730395   4.880177
                   21         22         23         24
    21  C    0.000000
    22  H    2.155670   0.000000
    23  H    2.155671   4.302631   0.000000
    24  Cl   1.757394   2.866484   2.866478   0.000000
 Stoichiometry    C14H9Cl
 Framework group  C1[X(C14H9Cl)]
 Deg. of freedom    66
 Full point group                 C1      NOp   1
 Largest Abelian subgroup         C1      NOp   1
 Largest concise Abelian subgroup C1      NOp   1
                         Standard orientation:                         
 ---------------------------------------------------------------------
 Center     Atomic      Atomic             Coordinates (Angstroms)
 Number     Number       Type             X           Y           Z
 ---------------------------------------------------------------------
      1          6           0        5.109299   -1.210023    0.000004
      2          6           0        3.715268   -1.215113    0.000270
      3          6           0        2.998458   -0.000226    0.000179
      4          6           0        3.714942    1.214994   -0.000128
      5          6           0        5.108878    1.210349   -0.000378
      6          6           0        5.811280    0.000232   -0.000308
      7          1           0        5.649799   -2.153078    0.000035
      8          1           0        3.168312   -2.153500    0.000517
      9          1           0        3.167547    2.153120   -0.000156
     10          1           0        5.649189    2.153515   -0.000621
     11          1           0        6.898089    0.000455   -0.000531
     12          6           0        1.573135   -0.000308    0.000289
     13          6           0        0.355876   -0.000082    0.000336
     14          6           0       -1.068288   -0.000046    0.000216
     15          6           0       -1.788477   -1.212597   -0.000052
     16          6           0       -1.788426    1.212543    0.000338
     17          6           0       -3.181294   -1.215926   -0.000192
     18          1           0       -1.246714   -2.153610   -0.000126
     19          6           0       -3.181237    1.215937    0.000198
     20          1           0       -1.246617    2.153530    0.000531
     21          6           0       -3.868572    0.000018   -0.000062
     22          1           0       -3.731664   -2.151300   -0.000389
     23          1           0       -3.731572    2.151331    0.000282
     24         17           0       -5.625966    0.000060   -0.000224
 ---------------------------------------------------------------------
 Rotational constants (GHZ):           2.8277324           0.1539064           0.1459620
 Standard basis: 6-31+G(d) (6D, 7F)
 There are   307 symmetry adapted cartesian basis functions of A   symmetry.
 There are   307 symmetry adapted basis functions of A   symmetry.
   307 basis functions,   540 primitive gaussians,   307 cartesian basis functions
    55 alpha electrons       55 beta electrons
       nuclear repulsion energy       852.2313639180 Hartrees.
 NAtoms=   24 NActive=   24 NUniq=   24 SFac= 1.00D+00 NAtFMM=   60 NAOKFM=F Big=F
 Integral buffers will be    131072 words long.
 Raffenetti 2 integral format.
 Two-electron integral symmetry is turned on.
 Nuclear repulsion after empirical dispersion term =      852.2149862413 Hartrees.
 One-electron integrals computed using PRISM.
 NBasis=   307 RedAO= T EigKep=  2.18D-06  NBF=   307
 NBsUse=   303 1.00D-06 EigRej=  6.06D-07 NBFU=   303
 ExpMin= 4.38D-02 ExpMax= 2.52D+04 ExpMxC= 3.78D+03 IAcc=3 IRadAn=         5 AccDes= 0.00D+00
 Harris functional with IExCor=  402 and IRadAn=       5 diagonalized for initial guess.
 HarFok:  IExCor=  402 AccDes= 0.00D+00 IRadAn=         5 IDoV= 1 UseB2=F ITyADJ=14
 ICtDFT=  3500011 ScaDFX=  1.000000  1.000000  1.000000  1.000000
 FoFCou: FMM=F IPFlag=           0 FMFlag=      100000 FMFlg1=           0
         NFxFlg=           0 DoJE=T BraDBF=F KetDBF=T FulRan=T
         wScrn=  0.000000 ICntrl=       500 IOpCl=  0 I1Cent=   200000004 NGrid=           0
         NMat0=    1 NMatS0=      1 NMatT0=    0 NMatD0=    1 NMtDS0=    0 NMtDT0=    0
 Petite list used in FoFCou.
 Requested convergence on RMS density matrix=1.00D-08 within 128 cycles.
 Requested convergence on MAX density matrix=1.00D-06.
 Requested convergence on             energy=1.00D-06.
 No special actions if energy rises.
 SCF Done:  E(RB3LYP) =  -999.094863553     A.U. after   14 cycles
            NFock= 14  Conv=0.69D-08     -V/T= 2.0069

 **********************************************************************

            Population analysis using the SCF Density.

 **********************************************************************

 Orbital symmetries:
       Occupied  (A) (A) (A) (A) (A) (A) (A) (A) (A) (A) (A) (A)
                 (A) (A) (A) (A) (A) (A) (A) (A) (A) (A) (A) (A)
                 (A) (A) (A) (A) (A) (A) (A) (A) (A) (A) (A) (A)
                 (A) (A) (A) (A) (A) (A) (A) (A) (A) (A) (A) (A)
                 (A) (A) (A) (A) (A) (A) (A)
       Virtual   (A) (A) (A) (A) (A) (A) (A) (A) (A) (A) (A) (A)
                 (A) (A) (A) (A) (A) (A) (A) (A) (A) (A) (A) (A)
                 (A) (A) (A) (A) (A) (A) (A) (A) (A) (A) (A) (A)
                 (A) (A) (A) (A) (A) (A) (A) (A) (A) (A) (A) (A)
                 (A) (A) (A) (A) (A) (A) (A) (A) (A) (A) (A) (A)
                 (A) (A) (A) (A) (A) (A) (A) (A) (A) (A) (A) (A)
                 (A) (A) (A) (A) (A) (A) (A) (A) (A) (A) (A) (A)
                 (A) (A) (A) (A) (A) (A) (A) (A) (A) (A) (A) (A)
                 (A) (A) (A) (A) (A) (A) (A) (A) (A) (A) (A) (A)
                 (A) (A) (A) (A) (A) (A) (A) (A) (A) (A) (A) (A)
                 (A) (A) (A) (A) (A) (A) (A) (A) (A) (A) (A) (A)
                 (A) (A) (A) (A) (A) (A) (A) (A) (A) (A) (A) (A)
                 (A) (A) (A) (A) (A) (A) (A) (A) (A) (A) (A) (A)
                 (A) (A) (A) (A) (A) (A) (A) (A) (A) (A) (A) (A)
                 (A) (A) (A) (A) (A) (A) (A) (A) (A) (A) (A) (A)
                 (A) (A) (A) (A) (A) (A) (A) (A) (A) (A) (A) (A)
                 (A) (A) (A) (A) (A) (A) (A) (A) (A) (A) (A) (A)
                 (A) (A) (A) (A) (A) (A) (A) (A) (A) (A) (A) (A)
                 (A) (A) (A) (A) (A) (A) (A) (A) (A) (A) (A) (A)
                 (A) (A) (A) (A) (A) (A) (A) (A) (A) (A) (A) (A)
                 (A) (A) (A) (A) (A) (A) (A) (A)
 The electronic state is 1-A.
 Alpha  occ. eigenvalues -- -101.56074 -10.26723 -10.23494 -10.22963 -10.21873
 Alpha  occ. eigenvalues --  -10.21872 -10.21812 -10.21812 -10.20979 -10.20978
 Alpha  occ. eigenvalues --  -10.20828 -10.20761 -10.20740 -10.20500 -10.20273
 Alpha  occ. eigenvalues --   -9.47589  -7.23994  -7.23027  -7.22993  -0.90385
 Alpha  occ. eigenvalues --   -0.87408  -0.85614  -0.79820  -0.77342  -0.77134
 Alpha  occ. eigenvalues --   -0.76153  -0.72261  -0.64284  -0.63565  -0.62040
 Alpha  occ. eigenvalues --   -0.61693  -0.56136  -0.54187  -0.49655  -0.48799
 Alpha  occ. eigenvalues --   -0.48781  -0.46745  -0.45698  -0.44744  -0.44632
 Alpha  occ. eigenvalues --   -0.43653  -0.41139  -0.39124  -0.39105  -0.37903
 Alpha  occ. eigenvalues --   -0.37173  -0.36255  -0.35927  -0.32262  -0.31859
 Alpha  occ. eigenvalues --   -0.28265  -0.27771  -0.27598  -0.26804  -0.22368
 Alpha virt. eigenvalues --   -0.06622  -0.03199  -0.02304  -0.01504  -0.00514
 Alpha virt. eigenvalues --    0.00474   0.01169   0.01654   0.02343   0.02548
 Alpha virt. eigenvalues --    0.03595   0.04274   0.04585   0.05015   0.05038
 Alpha virt. eigenvalues --    0.05377   0.06358   0.06767   0.07163   0.07316
 Alpha virt. eigenvalues --    0.08136   0.08884   0.08971   0.09166   0.09334
 Alpha virt. eigenvalues --    0.09391   0.10232   0.12324   0.12373   0.12499
 Alpha virt. eigenvalues --    0.12884   0.13271   0.13890   0.14293   0.14419
 Alpha virt. eigenvalues --    0.14871   0.14947   0.15328   0.15428   0.16270
 Alpha virt. eigenvalues --    0.16631   0.17109   0.17254   0.17487   0.18312
 Alpha virt. eigenvalues --    0.19379   0.19427   0.19608   0.20425   0.21630
 Alpha virt. eigenvalues --    0.21647   0.21652   0.22273   0.22478   0.22680
 Alpha virt. eigenvalues --    0.22915   0.23718   0.23749   0.24064   0.25274
 Alpha virt. eigenvalues --    0.25346   0.25484   0.26110   0.26833   0.27260
 Alpha virt. eigenvalues --    0.27760   0.28150   0.28554   0.29543   0.30038
 Alpha virt. eigenvalues --    0.31733   0.31934   0.33028   0.33252   0.34026
 Alpha virt. eigenvalues --    0.34031   0.35636   0.36319   0.36918   0.39502
 Alpha virt. eigenvalues --    0.39785   0.41026   0.41914   0.46789   0.52779
 Alpha virt. eigenvalues --    0.53593   0.56669   0.59242   0.61410   0.61542
 Alpha virt. eigenvalues --    0.62762   0.63358   0.65116   0.66019   0.66366
 Alpha virt. eigenvalues --    0.66508   0.68740   0.69529   0.69942   0.70152
 Alpha virt. eigenvalues --    0.70195   0.70507   0.70896   0.72157   0.72814
 Alpha virt. eigenvalues --    0.73143   0.73294   0.74553   0.74760   0.74930
 Alpha virt. eigenvalues --    0.76239   0.77118   0.78908   0.80274   0.80565
 Alpha virt. eigenvalues --    0.80895   0.81077   0.81794   0.82946   0.85716
 Alpha virt. eigenvalues --    0.86354   0.87409   0.87413   0.89479   0.90287
 Alpha virt. eigenvalues --    0.91238   0.92815   0.93230   0.94621   0.94775
 Alpha virt. eigenvalues --    0.95879   0.97505   0.98823   0.99311   1.00387
 Alpha virt. eigenvalues --    1.00757   1.02693   1.07093   1.07712   1.10450
 Alpha virt. eigenvalues --    1.11099   1.11685   1.13457   1.15559   1.17091
 Alpha virt. eigenvalues --    1.17367   1.18646   1.20150   1.22061   1.23398
 Alpha virt. eigenvalues --    1.23765   1.25648   1.26803   1.27562   1.29664
 Alpha virt. eigenvalues --    1.31167   1.33717   1.38787   1.39572   1.41648
 Alpha virt. eigenvalues --    1.41828   1.42969   1.43442   1.43507   1.44708
 Alpha virt. eigenvalues --    1.45555   1.47519   1.47750   1.48186   1.49390
 Alpha virt. eigenvalues --    1.54169   1.55453   1.57577   1.59852   1.69774
 Alpha virt. eigenvalues --    1.76101   1.83528   1.84012   1.85873   1.86636
 Alpha virt. eigenvalues --    1.86774   1.89900   1.90218   1.90390   1.94356
 Alpha virt. eigenvalues --    1.95970   1.97130   1.98261   1.99893   2.05547
 Alpha virt. eigenvalues --    2.06623   2.09060   2.11097   2.11378   2.13038
 Alpha virt. eigenvalues --    2.14019   2.14460   2.16323   2.16583   2.19201
 Alpha virt. eigenvalues --    2.20361   2.23840   2.26130   2.27223   2.28944
 Alpha virt. eigenvalues --    2.29146   2.29697   2.36714   2.45235   2.48772
 Alpha virt. eigenvalues --    2.50118   2.57318   2.59480   2.60785   2.61812
 Alpha virt. eigenvalues --    2.63082   2.64563   2.65015   2.73484   2.73658
 Alpha virt. eigenvalues --    2.74052   2.76299   2.76385   2.77155   2.84714
 Alpha virt. eigenvalues --    2.89371   2.91381   2.99579   3.04453   3.27649
 Alpha virt. eigenvalues --    3.31157   3.38612   3.58825   4.21283   4.22678
 Alpha virt. eigenvalues --    4.22832   4.23434   4.24330   4.26558   4.30895
 Alpha virt. eigenvalues --    4.35849   4.38706   4.39743   4.40350   4.53649
 Alpha virt. eigenvalues --    4.60975   4.76071   4.98017
          Condensed to atoms (all electrons):
               1          2          3          4          5          6
     1  C    8.324026  -6.098476   0.955023   3.879447  -1.542732   0.603776
     2  C   -6.098476  21.717787  -2.163396 -11.479024   3.879865  -0.404112
     3  C    0.955023  -2.163396   9.188209  -2.159412   0.953626   0.286302
     4  C    3.879447 -11.479024  -2.159412  21.709911  -6.097096  -0.403585
     5  C   -1.542732   3.879865   0.953626  -6.097096   8.325039   0.603243
     6  C    0.603776  -0.404112   0.286302  -0.403585   0.603243   5.402034
     7  H    0.291551  -0.023631   0.009509   0.003522   0.001198   0.017154
     8  H   -0.057781   0.311637  -0.023912   0.018902  -0.003602   0.005388
     9  H   -0.003620   0.018933  -0.023917   0.311461  -0.057584   0.005415
    10  H    0.001184   0.003549   0.009504  -0.023649   0.291560   0.017160
    11  H   -0.002093   0.008381   0.001505   0.008418  -0.002116   0.278425
    12  C   -0.257297   0.705902  -1.200301   0.705192  -0.257029  -0.204469
    13  C   -0.045270  -0.014837  -0.220751  -0.011439  -0.046564   0.014824
    14  C    0.107551  -0.229803   0.487867  -0.230385   0.108074  -0.014224
    15  C   -0.114188   0.515630  -0.235942  -0.408450   0.082363  -0.000281
    16  C    0.082342  -0.408487  -0.236732   0.515924  -0.114367  -0.000257
    17  C    0.026498  -0.099305   0.083594   0.075242  -0.019929   0.000777
    18  H    0.000085   0.001892   0.001405   0.000156  -0.000047   0.000045
    19  C   -0.019892   0.075182   0.083677  -0.099169   0.026430   0.000780
    20  H   -0.000048   0.000152   0.001401   0.001896   0.000085   0.000045
    21  C    0.001598   0.002110  -0.035749   0.002104   0.001610  -0.000356
    22  H    0.000002   0.000069  -0.000090  -0.000026  -0.000001   0.000000
    23  H   -0.000001  -0.000026  -0.000090   0.000070   0.000002   0.000000
    24  Cl   0.000030  -0.000038  -0.000472  -0.000037   0.000030  -0.000006
               7          8          9         10         11         12
     1  C    0.291551  -0.057781  -0.003620   0.001184  -0.002093  -0.257297
     2  C   -0.023631   0.311637   0.018933   0.003549   0.008381   0.705902
     3  C    0.009509  -0.023912  -0.023917   0.009504   0.001505  -1.200301
     4  C    0.003522   0.018902   0.311461  -0.023649   0.008418   0.705192
     5  C    0.001198  -0.003602  -0.057584   0.291560  -0.002116  -0.257029
     6  C    0.017154   0.005388   0.005415   0.017160   0.278425  -0.204469
     7  H    0.532513  -0.004619   0.000016  -0.000160  -0.004728  -0.005279
     8  H   -0.004619   0.529356  -0.000144   0.000016  -0.000142   0.027183
     9  H    0.000016  -0.000144   0.529349  -0.004618  -0.000142   0.027094
    10  H   -0.000160   0.000016  -0.004618   0.532512  -0.004729  -0.005285
    11  H   -0.004728  -0.000142  -0.000142  -0.004729   0.534867  -0.000125
    12  C   -0.005279   0.027183   0.027094  -0.005285  -0.000125   7.042814
    13  C   -0.000493   0.001799   0.001826  -0.000494   0.000155   0.320481
    14  C   -0.000156   0.001382   0.001385  -0.000156  -0.000013  -0.962944
    15  C    0.000116   0.001300   0.000347  -0.000042  -0.000001   0.143425
    16  C   -0.000042   0.000342   0.001294   0.000116  -0.000001   0.143204
    17  C    0.000006  -0.000030  -0.000062  -0.000001   0.000000  -0.027812
    18  H    0.000000   0.000002   0.000000   0.000000   0.000000  -0.003901
    19  C   -0.000001  -0.000062  -0.000029   0.000006   0.000000  -0.027352
    20  H    0.000000   0.000000   0.000002   0.000000   0.000000  -0.003918
    21  C    0.000000   0.000031   0.000030   0.000000   0.000000  -0.089915
    22  H    0.000000   0.000000   0.000000   0.000000   0.000000   0.000432
    23  H    0.000000   0.000000   0.000000   0.000000   0.000000   0.000433
    24  Cl   0.000000   0.000000   0.000000   0.000000   0.000000  -0.007813
              13         14         15         16         17         18
     1  C   -0.045270   0.107551  -0.114188   0.082342   0.026498   0.000085
     2  C   -0.014837  -0.229803   0.515630  -0.408487  -0.099305   0.001892
     3  C   -0.220751   0.487867  -0.235942  -0.236732   0.083594   0.001405
     4  C   -0.011439  -0.230385  -0.408450   0.515924   0.075242   0.000156
     5  C   -0.046564   0.108074   0.082363  -0.114367  -0.019929  -0.000047
     6  C    0.014824  -0.014224  -0.000281  -0.000257   0.000777   0.000045
     7  H   -0.000493  -0.000156   0.000116  -0.000042   0.000006   0.000000
     8  H    0.001799   0.001382   0.001300   0.000342  -0.000030   0.000002
     9  H    0.001826   0.001385   0.000347   0.001294  -0.000062   0.000000
    10  H   -0.000494  -0.000156  -0.000042   0.000116  -0.000001   0.000000
    11  H    0.000155  -0.000013  -0.000001  -0.000001   0.000000   0.000000
    12  C    0.320481  -0.962944   0.143425   0.143204  -0.027812  -0.003901
    13  C    5.951275   0.404222  -0.208103  -0.206854   0.118198   0.027695
    14  C    0.404222   6.859787  -0.464610  -0.464731   0.553649  -0.016239
    15  C   -0.208103  -0.464610  11.075168  -3.512711  -2.559727   0.353939
    16  C   -0.206854  -0.464731  -3.512711  11.068603   1.040127   0.025434
    17  C    0.118198   0.553649  -2.559727   1.040127   8.443083  -0.101857
    18  H    0.027695  -0.016239   0.353939   0.025434  -0.101857   0.519074
    19  C    0.118266   0.552342   1.038334  -2.553287  -1.120941  -0.008863
    20  H    0.027719  -0.016190   0.025461   0.353944  -0.008877  -0.000153
    21  C   -0.189287  -0.396061   0.313257   0.312088  -0.100229   0.005124
    22  H   -0.004653   0.007840  -0.078010   0.001728   0.295736  -0.004638
    23  H   -0.004654   0.007847   0.001728  -0.078044   0.035845   0.000014
    24  Cl  -0.009045  -0.072908   0.103559   0.103482  -0.152066   0.001260
              19         20         21         22         23         24
     1  C   -0.019892  -0.000048   0.001598   0.000002  -0.000001   0.000030
     2  C    0.075182   0.000152   0.002110   0.000069  -0.000026  -0.000038
     3  C    0.083677   0.001401  -0.035749  -0.000090  -0.000090  -0.000472
     4  C   -0.099169   0.001896   0.002104  -0.000026   0.000070  -0.000037
     5  C    0.026430   0.000085   0.001610  -0.000001   0.000002   0.000030
     6  C    0.000780   0.000045  -0.000356   0.000000   0.000000  -0.000006
     7  H   -0.000001   0.000000   0.000000   0.000000   0.000000   0.000000
     8  H   -0.000062   0.000000   0.000031   0.000000   0.000000   0.000000
     9  H   -0.000029   0.000002   0.000030   0.000000   0.000000   0.000000
    10  H    0.000006   0.000000   0.000000   0.000000   0.000000   0.000000
    11  H    0.000000   0.000000   0.000000   0.000000   0.000000   0.000000
    12  C   -0.027352  -0.003918  -0.089915   0.000432   0.000433  -0.007813
    13  C    0.118266   0.027719  -0.189287  -0.004653  -0.004654  -0.009045
    14  C    0.552342  -0.016190  -0.396061   0.007840   0.007847  -0.072908
    15  C    1.038334   0.025461   0.313257  -0.078010   0.001728   0.103559
    16  C   -2.553287   0.353944   0.312088   0.001728  -0.078044   0.103482
    17  C   -1.120941  -0.008877  -0.100229   0.295736   0.035845  -0.152066
    18  H   -0.008863  -0.000153   0.005124  -0.004638   0.000014   0.001260
    19  C    8.438475  -0.101921  -0.099826   0.035845   0.295776  -0.151909
    20  H   -0.101921   0.519083   0.005111   0.000014  -0.004638   0.001260
    21  C   -0.099826   0.005111   5.960524   0.033956   0.033944  -0.072593
    22  H    0.035845   0.000014   0.033956   0.504983  -0.000160   0.003481
    23  H    0.295776  -0.004638   0.033944  -0.000160   0.504982   0.003481
    24  Cl  -0.151909   0.001260  -0.072593   0.003481   0.003481  17.011913
 Mulliken charges:
               1
     1  C   -0.131716
     2  C   -0.319954
     3  C    0.239142
     4  C   -0.319972
     5  C   -0.132059
     6  C   -0.208081
     7  H    0.183524
     8  H    0.192956
     9  H    0.192964
    10  H    0.183528
    11  H    0.182339
    12  C   -0.062721
    13  C   -0.024015
    14  C   -0.223527
    15  C   -0.072563
    16  C   -0.073114
    17  C   -0.481918
    18  H    0.199573
    19  C   -0.481859
    20  H    0.199570
    21  C    0.312531
    22  H    0.203491
    23  H    0.203491
    24  Cl   0.238391
 Sum of Mulliken charges =   0.00000
 Mulliken charges with hydrogens summed into heavy atoms:
               1
     1  C    0.051809
     2  C   -0.126999
     3  C    0.239142
     4  C   -0.127008
     5  C    0.051469
     6  C   -0.025742
    12  C   -0.062721
    13  C   -0.024015
    14  C   -0.223527
    15  C    0.127010
    16  C    0.126456
    17  C   -0.278426
    19  C   -0.278368
    21  C    0.312531
    24  Cl   0.238391
 Electronic spatial extent (au):  <R**2>=           6687.9731
 Charge=              0.0000 electrons
 Dipole moment (field-independent basis, Debye):
    X=              2.1014    Y=              0.0001    Z=             -0.0002  Tot=              2.1014
 Quadrupole moment (field-independent basis, Debye-Ang):
   XX=            -90.4703   YY=            -82.7116   ZZ=           -100.7849
   XY=              0.0003   XZ=             -0.0023   YZ=              0.0001
 Traceless Quadrupole moment (field-independent basis, Debye-Ang):
   XX=              0.8519   YY=              8.6107   ZZ=             -9.4626
   XY=              0.0003   XZ=             -0.0023   YZ=              0.0001
 Octapole moment (field-independent basis, Debye-Ang**2):
  XXX=            114.6012  YYY=             -0.0006  ZZZ=             -0.0024  XYY=             -4.4680
  XXY=             -0.0001  XXZ=             -0.0151  XZZ=            -19.1484  YZZ=              0.0001
  YYZ=             -0.0005  XYZ=             -0.0093
 Hexadecapole moment (field-independent basis, Debye-Ang**3):
 XXXX=          -8171.2188 YYYY=           -567.0135 ZZZZ=           -123.7230 XXXY=              0.0255
 XXXZ=             -0.1099 YYYX=             -0.0048 YYYZ=              0.0009 ZZZX=              0.0103
 ZZZY=              0.0002 XXYY=          -1385.8281 XXZZ=          -1560.2291 YYZZ=           -138.5109
 XXYZ=             -0.0160 YYXZ=             -0.0024 ZZXY=             -0.0011
 N-N= 8.522149862413D+02 E-N=-4.044210587105D+03  KE= 9.922934093629D+02
 Evaluate density.
 Using the total density.
 Monte-Carlo method of calculating molar volume:
 based on  0.001 e/bohr**3 density envelope.
 Number of points per bohr**3 =   20 CutOff= 1.00D-04
 Using the SCF density.
 There are       436 points.  Will hold       436 in memory.
 LenV=  4026301688 MDV=  4026531840.
 Box volume =10405.134 fraction occupied=0.197
 Integrated density= 3.3463072681966355D+02 error= 2.2463072681966355D+02
 Molar volume = 2052.389 bohr**3/mol (183.153 cm**3/mol)
 Recommended a0 for SCRF calculation =  5.09 angstrom (  9.62 bohr)
 Calling FoFJK, ICntrl=      2127 FMM=F ISym2X=0 I1Cent= 0 IOpClX= 0 NMat=1 NMatS=1 NMatT=0.
 ***** Axes restored to original set *****
 -------------------------------------------------------------------
 Center     Atomic                   Forces (Hartrees/Bohr)
 Number     Number              X              Y              Z
 -------------------------------------------------------------------
      1        6          -0.000026558   -0.000033209    0.000002512
      2        6           0.000029663   -0.000044480   -0.000002619
      3        6           0.000020502    0.000052993   -0.000002127
      4        6          -0.000049264   -0.000011788    0.000001695
      5        6           0.000045069   -0.000004745    0.000002937
      6        6           0.000004754    0.000037945   -0.000003875
      7        1          -0.000002913    0.000002784    0.000001108
      8        1          -0.000009097    0.000009203   -0.000000662
      9        1           0.000000297   -0.000000901   -0.000002085
     10        1          -0.000011321    0.000000370    0.000000074
     11        1          -0.000004003   -0.000003797    0.000000834
     12        6           0.000075134    0.000002207    0.000004422
     13        6          -0.000083861   -0.000008245   -0.000005460
     14        6          -0.000012706    0.000004983    0.000002038
     15        6           0.000005415   -0.000009149    0.000002533
     16        6           0.000011121    0.000006173   -0.000000780
     17        6          -0.000022019   -0.000019902    0.000000717
     18        1           0.000005202    0.000003980   -0.000001138
     19        6          -0.000027087    0.000016057   -0.000000444
     20        1           0.000004891   -0.000003937    0.000000481
     21        6          -0.000011918    0.000002913   -0.000000157
     22        1           0.000027328    0.000036573   -0.000000218
     23        1           0.000027714   -0.000035967    0.000000456
     24       17           0.000003657   -0.000000063   -0.000000241
 -------------------------------------------------------------------
 Cartesian Forces:  Max     0.000083861 RMS     0.000021702

 GradGradGradGradGradGradGradGradGradGradGradGradGradGradGradGradGradGrad
 Berny optimization.
 FormGI is forming the generalized inverse of G from B-inverse, IUseBI=4.
 Internal  Forces:  Max     0.000072262 RMS     0.000011858
 Search for a local minimum.
 Step number   1 out of a maximum of  127
 All quantities printed in internal units (Hartrees-Bohrs-Radians)
 Mixed Optimization -- En-DIIS/RFO-DIIS
 Second derivative matrix not updated -- first step.
 ITU=  0
     Eigenvalues ---    0.00230   0.01026   0.01401   0.01769   0.01876
     Eigenvalues ---    0.01972   0.01981   0.02046   0.02056   0.02065
     Eigenvalues ---    0.02076   0.02100   0.02107   0.02120   0.02124
     Eigenvalues ---    0.02132   0.02136   0.02140   0.02146   0.02159
     Eigenvalues ---    0.02163   0.03787   0.04506   0.16000   0.16000
     Eigenvalues ---    0.16000   0.16000   0.16000   0.16000   0.16000
     Eigenvalues ---    0.16000   0.16000   0.22000   0.22000   0.22000
     Eigenvalues ---    0.22974   0.23472   0.24000   0.25000   0.25000
     Eigenvalues ---    0.25000   0.29782   0.35165   0.35166   0.35184
     Eigenvalues ---    0.35261   0.35261   0.35300   0.35300   0.35364
     Eigenvalues ---    0.35364   0.40850   0.41115   0.41478   0.41628
     Eigenvalues ---    0.41669   0.41839   0.44569   0.44731   0.45006
     Eigenvalues ---    0.45302   0.45984   0.46321   0.46631   0.46832
     Eigenvalues ---    0.96608
 RFO step:  Lambda=-4.83128353D-08 EMin= 2.30000000D-03
 Linear search not attempted -- first point.
 Iteration  1 RMS(Cart)=  0.00034210 RMS(Int)=  0.00000003
 Iteration  2 RMS(Cart)=  0.00000011 RMS(Int)=  0.00000001
 Variable       Old X    -DE/DX   Delta X   Delta X   Delta X     New X
                                 (Linear)    (Quad)   (Total)
    R1        2.63435  -0.00002   0.00000  -0.00004  -0.00004   2.63431
    R2        2.64393   0.00004   0.00000   0.00008   0.00008   2.64400
    R3        2.05407   0.00000   0.00000  -0.00001  -0.00001   2.05406
    R4        2.66563   0.00003   0.00000   0.00006   0.00006   2.66569
    R5        2.05253   0.00000   0.00000  -0.00001  -0.00001   2.05252
    R6        2.66586  -0.00003   0.00000  -0.00007  -0.00007   2.66579
    R7        2.69347   0.00000   0.00000  -0.00001  -0.00001   2.69346
    R8        2.63417   0.00002   0.00000   0.00005   0.00005   2.63422
    R9        2.05253   0.00000   0.00000   0.00000   0.00000   2.05252
   R10        2.64410   0.00000   0.00000  -0.00001  -0.00001   2.64409
   R11        2.05407  -0.00001   0.00000  -0.00002  -0.00002   2.05406
   R12        2.05377   0.00000   0.00000  -0.00001  -0.00001   2.05376
   R13        2.30029   0.00007   0.00000   0.00007   0.00007   2.30036
   R14        2.69128  -0.00001   0.00000  -0.00003  -0.00003   2.69125
   R15        2.66508  -0.00001   0.00000  -0.00003  -0.00003   2.66506
   R16        2.66510  -0.00002   0.00000  -0.00003  -0.00003   2.66506
   R17        2.63205   0.00000   0.00000   0.00000   0.00000   2.63205
   R18        2.05191   0.00000   0.00000   0.00000   0.00000   2.05191
   R19        2.63204   0.00000   0.00000   0.00001   0.00001   2.63204
   R20        2.05191   0.00000   0.00000   0.00000   0.00000   2.05191
   R21        2.63945   0.00000   0.00000   0.00000   0.00000   2.63944
   R22        2.05088  -0.00005   0.00000  -0.00013  -0.00013   2.05075
   R23        2.63946  -0.00001   0.00000  -0.00001  -0.00001   2.63945
   R24        2.05088  -0.00005   0.00000  -0.00013  -0.00013   2.05075
   R25        3.32099   0.00000   0.00000  -0.00001  -0.00001   3.32098
    A1        2.10005  -0.00001   0.00000  -0.00003  -0.00003   2.10003
    A2        2.08758   0.00000   0.00000   0.00001   0.00001   2.08758
    A3        2.09556   0.00000   0.00000   0.00002   0.00002   2.09558
    A4        2.10020  -0.00001   0.00000  -0.00003  -0.00003   2.10016
    A5        2.10217   0.00002   0.00000   0.00010   0.00010   2.10227
    A6        2.08081  -0.00001   0.00000  -0.00006  -0.00006   2.08075
    A7        2.07581   0.00002   0.00000   0.00008   0.00008   2.07589
    A8        2.10379  -0.00002   0.00000  -0.00008  -0.00008   2.10371
    A9        2.10359   0.00000   0.00000   0.00001   0.00001   2.10359
   A10        2.10020  -0.00001   0.00000  -0.00004  -0.00004   2.10016
   A11        2.08066   0.00000   0.00000   0.00002   0.00002   2.08068
   A12        2.10233   0.00000   0.00000   0.00002   0.00002   2.10235
   A13        2.10004   0.00000   0.00000  -0.00002  -0.00002   2.10003
   A14        2.08770  -0.00001   0.00000  -0.00006  -0.00006   2.08764
   A15        2.09545   0.00001   0.00000   0.00007   0.00007   2.09552
   A16        2.09007   0.00001   0.00000   0.00004   0.00004   2.09011
   A17        2.09661  -0.00001   0.00000  -0.00004  -0.00004   2.09656
   A18        2.09651   0.00000   0.00000   0.00001   0.00001   2.09651
   A19        2.10673   0.00000   0.00000  -0.00002  -0.00002   2.10671
   A20        2.10673   0.00000   0.00000  -0.00002  -0.00002   2.10671
   A21        2.06973   0.00001   0.00000   0.00004   0.00004   2.06976
   A22        2.10914  -0.00001   0.00000  -0.00003  -0.00003   2.10911
   A23        2.08326   0.00000   0.00000  -0.00003  -0.00003   2.08323
   A24        2.09078   0.00001   0.00000   0.00006   0.00006   2.09084
   A25        2.10914  -0.00001   0.00000  -0.00003  -0.00003   2.10911
   A26        2.08326   0.00000   0.00000  -0.00003  -0.00003   2.08323
   A27        2.09079   0.00001   0.00000   0.00005   0.00005   2.09084
   A28        2.08286   0.00001   0.00000   0.00003   0.00003   2.08289
   A29        2.10503  -0.00001   0.00000  -0.00005  -0.00005   2.10498
   A30        2.09529   0.00000   0.00000   0.00002   0.00002   2.09531
   A31        2.08286   0.00001   0.00000   0.00003   0.00003   2.08289
   A32        2.10504  -0.00001   0.00000  -0.00005  -0.00005   2.10499
   A33        2.09529   0.00000   0.00000   0.00002   0.00002   2.09531
   A34        2.11264  -0.00001   0.00000  -0.00004  -0.00004   2.11260
   A35        2.08527   0.00000   0.00000   0.00002   0.00002   2.08529
   A36        2.08527   0.00000   0.00000   0.00002   0.00002   2.08529
   A37        3.14135   0.00001   0.00000   0.00023   0.00023   3.14158
   A38        3.14143   0.00000   0.00000   0.00027   0.00027   3.14171
   A39        3.14154   0.00000   0.00000   0.00008   0.00008   3.14162
   A40        3.14175  -0.00001   0.00000  -0.00043  -0.00043   3.14132
    D1        0.00004   0.00000   0.00000  -0.00005  -0.00005  -0.00001
    D2       -3.14159   0.00000   0.00000   0.00000   0.00000  -3.14158
    D3       -3.14155   0.00000   0.00000  -0.00005  -0.00005   3.14159
    D4        0.00001   0.00000   0.00000   0.00000   0.00000   0.00001
    D5       -0.00002   0.00000   0.00000   0.00004   0.00004   0.00002
    D6       -3.14158   0.00000   0.00000  -0.00001  -0.00001  -3.14158
    D7        3.14157   0.00000   0.00000   0.00005   0.00005  -3.14157
    D8        0.00001   0.00000   0.00000  -0.00001  -0.00001   0.00001
    D9       -0.00005   0.00000   0.00000   0.00004   0.00004  -0.00001
   D10        3.14146   0.00000   0.00000   0.00013   0.00013  -3.14159
   D11        3.14158   0.00000   0.00000  -0.00001  -0.00001   3.14157
   D12       -0.00010   0.00000   0.00000   0.00008   0.00008  -0.00002
   D13        0.00003   0.00000   0.00000  -0.00002  -0.00002   0.00001
   D14       -3.14155   0.00000   0.00000  -0.00003  -0.00003  -3.14158
   D15       -3.14147   0.00000   0.00000  -0.00012  -0.00012  -3.14159
   D16        0.00013   0.00000   0.00000  -0.00012  -0.00012   0.00001
   D17       -0.00031   0.00000   0.00000   0.00011   0.00011  -0.00020
   D18        3.14142   0.00000   0.00000  -0.00020  -0.00020   3.14122
   D19        3.14112   0.00000   0.00000   0.00039   0.00039   3.14151
   D20       -0.00034   0.00000   0.00000   0.00009   0.00009  -0.00025
   D21       -0.00002   0.00000   0.00000   0.00002   0.00002   0.00000
   D22        3.14158   0.00000   0.00000   0.00001   0.00001   3.14159
   D23        3.14157   0.00000   0.00000   0.00002   0.00002   3.14159
   D24       -0.00002   0.00000   0.00000   0.00001   0.00001  -0.00001
   D25        0.00001   0.00000   0.00000  -0.00003  -0.00003  -0.00002
   D26        3.14156   0.00000   0.00000   0.00002   0.00002   3.14159
   D27       -3.14159   0.00000   0.00000  -0.00002  -0.00002   3.14158
   D28       -0.00004   0.00000   0.00000   0.00003   0.00003   0.00000
   D29       -3.14157   0.00000   0.00000   0.00000   0.00000  -3.14158
   D30        0.00004   0.00000   0.00000  -0.00003  -0.00003   0.00001
   D31        0.00000   0.00000   0.00000   0.00001   0.00001   0.00001
   D32       -3.14157   0.00000   0.00000  -0.00002  -0.00002  -3.14159
   D33        3.14157   0.00000   0.00000   0.00000   0.00000   3.14158
   D34       -0.00001   0.00000   0.00000  -0.00001  -0.00001  -0.00001
   D35        0.00000   0.00000   0.00000  -0.00001  -0.00001  -0.00001
   D36       -3.14158   0.00000   0.00000  -0.00002  -0.00002   3.14159
   D37        0.00000   0.00000   0.00000   0.00000   0.00000   0.00000
   D38       -3.14158   0.00000   0.00000  -0.00002  -0.00002   3.14158
   D39        3.14157   0.00000   0.00000   0.00003   0.00003  -3.14159
   D40       -0.00002   0.00000   0.00000   0.00001   0.00001   0.00000
   D41        0.00000   0.00000   0.00000   0.00000   0.00000   0.00000
   D42       -3.14158   0.00000   0.00000  -0.00001  -0.00001  -3.14159
   D43        3.14158   0.00000   0.00000   0.00001   0.00001  -3.14159
   D44        0.00000   0.00000   0.00000   0.00000   0.00000   0.00000
   D45        0.00001   0.00000   0.00000  -0.00001  -0.00001   0.00000
   D46       -3.14158   0.00000   0.00000  -0.00001  -0.00001   3.14159
   D47        3.14159   0.00000   0.00000   0.00001   0.00001  -3.14159
   D48        0.00000   0.00000   0.00000   0.00001   0.00001   0.00000
   D49       -0.00001   0.00000   0.00000   0.00001   0.00001   0.00000
   D50        3.14158   0.00000   0.00000   0.00001   0.00001  -3.14159
   D51        3.14158   0.00000   0.00000   0.00002   0.00002  -3.14159
   D52       -0.00002   0.00000   0.00000   0.00002   0.00002   0.00000
         Item               Value     Threshold  Converged?
 Maximum Force            0.000072     0.000450     YES
 RMS     Force            0.000012     0.000300     YES
 Maximum Displacement     0.001401     0.001800     YES
 RMS     Displacement     0.000342     0.001200     YES
 Predicted change in Energy=-2.415608D-08
 Optimization completed.
    -- Stationary point found.
                           ----------------------------
                           !   Optimized Parameters   !
                           ! (Angstroms and Degrees)  !
 --------------------------                            --------------------------
 ! Name  Definition              Value          Derivative Info.                !
 --------------------------------------------------------------------------------
 ! R1    R(1,2)                  1.394          -DE/DX =    0.0                 !
 ! R2    R(1,6)                  1.3991         -DE/DX =    0.0                 !
 ! R3    R(1,7)                  1.087          -DE/DX =    0.0                 !
 ! R4    R(2,3)                  1.4106         -DE/DX =    0.0                 !
 ! R5    R(2,8)                  1.0862         -DE/DX =    0.0                 !
 ! R6    R(3,4)                  1.4107         -DE/DX =    0.0                 !
 ! R7    R(3,12)                 1.4253         -DE/DX =    0.0                 !
 ! R8    R(4,5)                  1.3939         -DE/DX =    0.0                 !
 ! R9    R(4,9)                  1.0861         -DE/DX =    0.0                 !
 ! R10   R(5,6)                  1.3992         -DE/DX =    0.0                 !
 ! R11   R(5,10)                 1.087          -DE/DX =    0.0                 !
 ! R12   R(6,11)                 1.0868         -DE/DX =    0.0                 !
 ! R13   R(12,13)                1.2173         -DE/DX =    0.0001              !
 ! R14   R(13,14)                1.4242         -DE/DX =    0.0                 !
 ! R15   R(14,15)                1.4103         -DE/DX =    0.0                 !
 ! R16   R(14,16)                1.4103         -DE/DX =    0.0                 !
 ! R17   R(15,17)                1.3928         -DE/DX =    0.0                 !
 ! R18   R(15,18)                1.0858         -DE/DX =    0.0                 !
 ! R19   R(16,19)                1.3928         -DE/DX =    0.0                 !
 ! R20   R(16,20)                1.0858         -DE/DX =    0.0                 !
 ! R21   R(17,21)                1.3967         -DE/DX =    0.0                 !
 ! R22   R(17,22)                1.0853         -DE/DX =    0.0                 !
 ! R23   R(19,21)                1.3967         -DE/DX =    0.0                 !
 ! R24   R(19,23)                1.0853         -DE/DX =    0.0                 !
 ! R25   R(21,24)                1.7574         -DE/DX =    0.0                 !
 ! A1    A(2,1,6)              120.3241         -DE/DX =    0.0                 !
 ! A2    A(2,1,7)              119.6094         -DE/DX =    0.0                 !
 ! A3    A(6,1,7)              120.0665         -DE/DX =    0.0                 !
 ! A4    A(1,2,3)              120.3323         -DE/DX =    0.0                 !
 ! A5    A(1,2,8)              120.4458         -DE/DX =    0.0                 !
 ! A6    A(3,2,8)              119.2219         -DE/DX =    0.0                 !
 ! A7    A(2,3,4)              118.9352         -DE/DX =    0.0                 !
 ! A8    A(2,3,12)             120.5382         -DE/DX =    0.0                 !
 ! A9    A(4,3,12)             120.5266         -DE/DX =    0.0                 !
 ! A10   A(3,4,5)              120.3323         -DE/DX =    0.0                 !
 ! A11   A(3,4,9)              119.2132         -DE/DX =    0.0                 !
 ! A12   A(5,4,9)              120.4544         -DE/DX =    0.0                 !
 ! A13   A(4,5,6)              120.3236         -DE/DX =    0.0                 !
 ! A14   A(4,5,10)             119.6162         -DE/DX =    0.0                 !
 ! A15   A(6,5,10)             120.0603         -DE/DX =    0.0                 !
 ! A16   A(1,6,5)              119.7524         -DE/DX =    0.0                 !
 ! A17   A(1,6,11)             120.1267         -DE/DX =    0.0                 !
 ! A18   A(5,6,11)             120.1209         -DE/DX =    0.0                 !
 ! A19   A(13,14,15)           120.7065         -DE/DX =    0.0                 !
 ! A20   A(13,14,16)           120.7069         -DE/DX =    0.0                 !
 ! A21   A(15,14,16)           118.5866         -DE/DX =    0.0                 !
 ! A22   A(14,15,17)           120.8449         -DE/DX =    0.0                 !
 ! A23   A(14,15,18)           119.362          -DE/DX =    0.0                 !
 ! A24   A(17,15,18)           119.7931         -DE/DX =    0.0                 !
 ! A25   A(14,16,19)           120.845          -DE/DX =    0.0                 !
 ! A26   A(14,16,20)           119.3618         -DE/DX =    0.0                 !
 ! A27   A(19,16,20)           119.7932         -DE/DX =    0.0                 !
 ! A28   A(15,17,21)           119.3391         -DE/DX =    0.0                 !
 ! A29   A(15,17,22)           120.6093         -DE/DX =    0.0                 !
 ! A30   A(21,17,22)           120.0516         -DE/DX =    0.0                 !
 ! A31   A(16,19,21)           119.339          -DE/DX =    0.0                 !
 ! A32   A(16,19,23)           120.6099         -DE/DX =    0.0                 !
 ! A33   A(21,19,23)           120.0511         -DE/DX =    0.0                 !
 ! A34   A(17,21,19)           121.0453         -DE/DX =    0.0                 !
 ! A35   A(17,21,24)           119.4774         -DE/DX =    0.0                 !
 ! A36   A(19,21,24)           119.4772         -DE/DX =    0.0                 !
 ! A37   L(3,12,13,9,-1)       179.9861         -DE/DX =    0.0                 !
 ! A38   L(12,13,14,18,-1)     179.9908         -DE/DX =    0.0                 !
 ! A39   L(3,12,13,9,-2)       179.9973         -DE/DX =    0.0                 !
 ! A40   L(12,13,14,18,-2)     180.0088         -DE/DX =    0.0                 !
 ! D1    D(6,1,2,3)              0.0023         -DE/DX =    0.0                 !
 ! D2    D(6,1,2,8)           -179.9997         -DE/DX =    0.0                 !
 ! D3    D(7,1,2,3)            180.0026         -DE/DX =    0.0                 !
 ! D4    D(7,1,2,8)              0.0006         -DE/DX =    0.0                 !
 ! D5    D(2,1,6,5)             -0.0012         -DE/DX =    0.0                 !
 ! D6    D(2,1,6,11)          -179.999          -DE/DX =    0.0                 !
 ! D7    D(7,1,6,5)           -180.0015         -DE/DX =    0.0                 !
 ! D8    D(7,1,6,11)             0.0007         -DE/DX =    0.0                 !
 ! D9    D(1,2,3,4)             -0.0026         -DE/DX =    0.0                 !
 ! D10   D(1,2,3,12)          -180.0075         -DE/DX =    0.0                 !
 ! D11   D(8,2,3,4)            179.9993         -DE/DX =    0.0                 !
 ! D12   D(8,2,3,12)            -0.0055         -DE/DX =    0.0                 !
 ! D13   D(2,3,4,5)              0.0019         -DE/DX =    0.0                 !
 ! D14   D(2,3,4,9)           -179.9974         -DE/DX =    0.0                 !
 ! D15   D(12,3,4,5)          -179.9932         -DE/DX =    0.0                 !
 ! D16   D(12,3,4,9)             0.0075         -DE/DX =    0.0                 !
 ! D17   D(2,3,14,15)           -0.0176         -DE/DX =    0.0                 !
 ! D18   D(2,3,14,16)          179.9899         -DE/DX =    0.0                 !
 ! D19   D(4,3,14,15)          179.9729         -DE/DX =    0.0                 !
 ! D20   D(4,3,14,16)           -0.0196         -DE/DX =    0.0                 !
 ! D21   D(3,4,5,6)             -0.0009         -DE/DX =    0.0                 !
 ! D22   D(3,4,5,10)           179.9995         -DE/DX =    0.0                 !
 ! D23   D(9,4,5,6)            179.9984         -DE/DX =    0.0                 !
 ! D24   D(9,4,5,10)            -0.0011         -DE/DX =    0.0                 !
 ! D25   D(4,5,6,1)              0.0005         -DE/DX =    0.0                 !
 ! D26   D(4,5,6,11)           179.9983         -DE/DX =    0.0                 !
 ! D27   D(10,5,6,1)           180.0001         -DE/DX =    0.0                 !
 ! D28   D(10,5,6,11)           -0.0021         -DE/DX =    0.0                 !
 ! D29   D(13,14,15,17)       -179.9989         -DE/DX =    0.0                 !
 ! D30   D(13,14,15,18)          0.0025         -DE/DX =    0.0                 !
 ! D31   D(16,14,15,17)         -0.0001         -DE/DX =    0.0                 !
 ! D32   D(16,14,15,18)       -179.9986         -DE/DX =    0.0                 !
 ! D33   D(13,14,16,19)        179.9989         -DE/DX =    0.0                 !
 ! D34   D(13,14,16,20)         -0.0003         -DE/DX =    0.0                 !
 ! D35   D(15,14,16,19)          0.0            -DE/DX =    0.0                 !
 ! D36   D(15,14,16,20)        180.0008         -DE/DX =    0.0                 !
 ! D37   D(14,15,17,21)         -0.0001         -DE/DX =    0.0                 !
 ! D38   D(14,15,17,22)        180.0006         -DE/DX =    0.0                 !
 ! D39   D(18,15,17,21)       -180.0016         -DE/DX =    0.0                 !
 ! D40   D(18,15,17,22)         -0.0009         -DE/DX =    0.0                 !
 ! D41   D(14,16,19,21)          0.0002         -DE/DX =    0.0                 !
 ! D42   D(14,16,19,23)       -179.9993         -DE/DX =    0.0                 !
 ! D43   D(20,16,19,21)       -180.0006         -DE/DX =    0.0                 !
 ! D44   D(20,16,19,23)         -0.0001         -DE/DX =    0.0                 !
 ! D45   D(15,17,21,19)          0.0004         -DE/DX =    0.0                 !
 ! D46   D(15,17,21,24)        180.0005         -DE/DX =    0.0                 !
 ! D47   D(22,17,21,19)       -180.0003         -DE/DX =    0.0                 !
 ! D48   D(22,17,21,24)         -0.0002         -DE/DX =    0.0                 !
 ! D49   D(16,19,21,17)         -0.0004         -DE/DX =    0.0                 !
 ! D50   D(16,19,21,24)       -180.0006         -DE/DX =    0.0                 !
 ! D51   D(23,19,21,17)       -180.0009         -DE/DX =    0.0                 !
 ! D52   D(23,19,21,24)         -0.001          -DE/DX =    0.0                 !
 --------------------------------------------------------------------------------
 GradGradGradGradGradGradGradGradGradGradGradGradGradGradGradGradGradGrad

                          Input orientation:                          
 ---------------------------------------------------------------------
 Center     Atomic      Atomic             Coordinates (Angstroms)
 Number     Number       Type             X           Y           Z
 ---------------------------------------------------------------------
      1          6           0        5.109299   -1.210023    0.000004
      2          6           0        3.715268   -1.215113    0.000270
      3          6           0        2.998458   -0.000226    0.000179
      4          6           0        3.714942    1.214994   -0.000128
      5          6           0        5.108878    1.210349   -0.000378
      6          6           0        5.811280    0.000232   -0.000308
      7          1           0        5.649799   -2.153078    0.000035
      8          1           0        3.168312   -2.153500    0.000517
      9          1           0        3.167547    2.153120   -0.000156
     10          1           0        5.649189    2.153515   -0.000621
     11          1           0        6.898089    0.000455   -0.000531
     12          6           0        1.573135   -0.000308    0.000289
     13          6           0        0.355876   -0.000082    0.000336
     14          6           0       -1.068288   -0.000046    0.000216
     15          6           0       -1.788477   -1.212597   -0.000052
     16          6           0       -1.788426    1.212543    0.000338
     17          6           0       -3.181294   -1.215926   -0.000192
     18          1           0       -1.246714   -2.153610   -0.000126
     19          6           0       -3.181237    1.215937    0.000198
     20          1           0       -1.246617    2.153530    0.000531
     21          6           0       -3.868572    0.000018   -0.000062
     22          1           0       -3.731664   -2.151300   -0.000389
     23          1           0       -3.731572    2.151331    0.000282
     24         17           0       -5.625966    0.000060   -0.000224
 ---------------------------------------------------------------------
                    Distance matrix (angstroms):
                    1          2          3          4          5
     1  C    0.000000
     2  C    1.394040   0.000000
     3  C    2.432953   1.410591   0.000000
     4  C    2.797309   2.430107   1.410712   0.000000
     5  C    2.420372   2.797323   2.432974   1.393944   0.000000
     6  C    1.399105   2.422876   2.812822   2.422866   1.399197
     7  H    1.086965   2.149928   3.415316   3.884274   3.406646
     8  H    2.158143   1.086154   2.159963   3.412559   3.883462
     9  H    3.883443   3.412476   2.159975   1.086150   2.158143
    10  H    3.406592   3.884290   3.415403   2.149915   1.086967
    11  H    2.159867   3.407045   3.899631   3.406983   2.159889
    12  C    3.737361   2.462618   1.425323   2.462579   3.737268
    13  C    4.904996   3.572368   2.642582   3.572077   4.904709
    14  C    6.294968   4.935463   4.066746   4.935140   6.294636
    15  C    6.897776   5.503746   4.938076   6.015049   7.310552
    16  C    7.310775   6.015327   4.938124   5.503369   6.897304
    17  C    8.290595   6.896562   6.298195   7.312144   8.637926
    18  H    6.425672   5.049955   4.760100   5.997126   7.190951
    19  C    8.638187   7.312440   6.298229   6.896179   8.290117
    20  H    7.191047   5.997338   4.760181   5.049546   6.425100
    21  C    9.059049   7.680571   6.867030   7.680225   9.058670
    22  H    8.890930   7.505547   7.065526   8.172140   9.458111
    23  H    9.458314   8.172415   7.065586   7.505151   8.890388
    24  Cl  10.803250   9.419942   8.624424   9.419587  10.802855
                    6          7          8          9         10
     6  C    0.000000
     7  H    2.159356   0.000000
     8  H    3.409376   2.481487   0.000000
     9  H    3.409436   4.970404   4.306620   0.000000
    10  H    2.159375   4.306593   4.970426   2.481642   0.000000
    11  H    1.086809   2.489163   4.307059   4.307077   2.489060
    12  C    4.238145   4.610164   2.679706   2.679441   4.610116
    13  C    5.455404   5.714981   3.542175   3.541437   5.714643
    14  C    6.879568   7.054661   4.752488   4.751676   7.054241
    15  C    7.695925   7.497497   5.045300   5.990845   8.163920
    16  C    7.695793   8.164227   5.991619   5.044438   7.496902
    17  C    9.074438   8.880679   6.418453   7.187368   9.451485
    18  H    7.379317   6.896513   4.415026   6.167141   8.130486
    19  C    9.074321   9.451849   7.188176   6.417583   8.880061
    20  H    7.379065   8.130647   6.167828   4.414164   6.895806
    21  C    9.679852   9.758853   7.359034   7.358180   9.758346
    22  H    9.782478   9.381463   6.899976   8.131860  10.321426
    23  H    9.782293  10.321728   8.132648   6.899119   9.380761
    24  Cl  11.437246  11.479498   9.054123   9.053261  11.478959
                   11         12         13         14         15
    11  H    0.000000
    12  C    5.324954   0.000000
    13  C    6.542213   1.217259   0.000000
    14  C    7.966377   2.641423   1.424164   0.000000
    15  C    8.770857   3.573525   2.463421   1.410302   0.000000
    16  C    8.770673   3.573668   2.463431   1.410309   2.425140
    17  C   10.152514   4.907374   3.740301   2.437859   1.392821
    18  H    8.424833   3.547994   2.684395   2.160943   1.085823
    19  C   10.152350   4.907474   3.740304   2.437861   2.799564
    20  H    8.424486   3.548242   2.684405   2.160947   3.409461
    21  C   10.766661   5.441707   4.224448   2.800284   2.407744
    22  H   10.845354   5.724304   4.619061   3.423663   2.158041
    23  H   10.845089   5.724462   4.619070   3.423668   3.884795
    24  Cl  12.524055   7.199101   5.981842   4.557678   4.024532
                   16         17         18         19         20
    16  C    0.000000
    17  C    2.799561   0.000000
    18  H    3.409463   2.149849   0.000000
    19  C    1.392815   2.431863   3.885386   0.000000
    20  H    1.085824   3.885384   4.307140   2.149845   0.000000
    21  C    2.407743   1.396736   3.392971   1.396742   3.392972
    22  H    3.884793   1.085280   2.484951   3.411928   4.970616
    23  H    2.158041   3.411924   4.970617   1.085279   2.484956
    24  Cl   4.024528   2.730392   4.880179   2.730395   4.880177
                   21         22         23         24
    21  C    0.000000
    22  H    2.155670   0.000000
    23  H    2.155671   4.302631   0.000000
    24  Cl   1.757394   2.866484   2.866478   0.000000
 Stoichiometry    C14H9Cl
 Framework group  C1[X(C14H9Cl)]
 Deg. of freedom    66
 Full point group                 C1      NOp   1
 Largest Abelian subgroup         C1      NOp   1
 Largest concise Abelian subgroup C1      NOp   1
                         Standard orientation:                         
 ---------------------------------------------------------------------
 Center     Atomic      Atomic             Coordinates (Angstroms)
 Number     Number       Type             X           Y           Z
 ---------------------------------------------------------------------
      1          6           0        5.109299   -1.210023    0.000004
      2          6           0        3.715268   -1.215113    0.000270
      3          6           0        2.998458   -0.000226    0.000179
      4          6           0        3.714942    1.214994   -0.000128
      5          6           0        5.108878    1.210349   -0.000378
      6          6           0        5.811280    0.000232   -0.000308
      7          1           0        5.649799   -2.153078    0.000035
      8          1           0        3.168312   -2.153500    0.000517
      9          1           0        3.167547    2.153120   -0.000156
     10          1           0        5.649189    2.153515   -0.000621
     11          1           0        6.898089    0.000455   -0.000531
     12          6           0        1.573135   -0.000308    0.000289
     13          6           0        0.355876   -0.000082    0.000336
     14          6           0       -1.068288   -0.000046    0.000216
     15          6           0       -1.788477   -1.212597   -0.000052
     16          6           0       -1.788426    1.212543    0.000338
     17          6           0       -3.181294   -1.215926   -0.000192
     18          1           0       -1.246714   -2.153610   -0.000126
     19          6           0       -3.181237    1.215937    0.000198
     20          1           0       -1.246617    2.153530    0.000531
     21          6           0       -3.868572    0.000018   -0.000062
     22          1           0       -3.731664   -2.151300   -0.000389
     23          1           0       -3.731572    2.151331    0.000282
     24         17           0       -5.625966    0.000060   -0.000224
 ---------------------------------------------------------------------
 Rotational constants (GHZ):           2.8277324           0.1539064           0.1459620
 1\1\GINC-IP-172-31-7-107\FOpt\RB3LYP\6-31+G(d)\C14H9Cl1\UBUNTU\17-Sep-
 2023\0\\# opt freq b3lyp/6-31+g(d) empiricaldispersion=gd3 volume\\Tit
 le Card Required\\0,1\C,5.109299,-1.210023,0.000004\C,3.715268,-1.2151
 13,0.00027\C,2.998458,-0.000226,0.000179\C,3.714942,1.214994,-0.000128
 \C,5.108878,1.210349,-0.000378\C,5.81128,0.000232,-0.000308\H,5.649799
 ,-2.153078,0.000035\H,3.168312,-2.1535,0.000517\H,3.167547,2.15312,-0.
 000156\H,5.649189,2.153515,-0.000621\H,6.898089,0.000455,-0.000531\C,1
 .573135,-0.000308,0.000289\C,0.355876,-0.000082,0.000336\C,-1.068288,-
 0.000046,0.000216\C,-1.788477,-1.212597,-0.000052\C,-1.788426,1.212543
 ,0.000338\C,-3.181294,-1.215926,-0.000192\H,-1.246714,-2.15361,-0.0001
 26\C,-3.181237,1.215937,0.000198\H,-1.246617,2.15353,0.000531\C,-3.868
 572,0.000018,-0.000062\H,-3.731664,-2.1513,-0.000389\H,-3.731572,2.151
 331,0.000282\Cl,-5.625966,0.00006,-0.000224\\Version=EM64L-G16RevB.01\
 State=1-A\HF=-999.0948636\RMSD=6.874e-09\RMSF=2.170e-05\Dipole=0.82675
 28,0.0000398,-0.0000883\Quadrupole=0.6334033,6.4018219,-7.0352252,0.00
 02498,-0.0017075,0.0000957\PG=C01 [X(C14H9Cl1)]\\@


 NATURE WILL TELL YOU A DIRECT LIE IF SHE CAN.

                                -- CHARLES DARWIN
 Job cpu time:       0 days  0 hours 14 minutes 35.4 seconds.
 Elapsed time:       0 days  0 hours  0 minutes 29.2 seconds.
 File lengths (MBytes):  RWF=     54 Int=      0 D2E=      0 Chk=      8 Scr=      1
 Normal termination of Gaussian 16 at Sun Sep 17 16:39:45 2023.
 Link1:  Proceeding to internal job step number  2.
 ---------------------------------------------------------------------
 #N Geom=AllCheck Guess=TCheck SCRF=Check GenChk RB3LYP/6-31+G(d) Freq
 ---------------------------------------------------------------------
 1/10=4,29=7,30=1,38=1,40=1/1,3;
 2/12=2,40=1/2;
 3/5=1,6=6,7=11,11=2,14=-4,25=1,30=1,70=2,71=2,74=-5,116=1,124=31,140=1/1,2,3;
 4/5=101/1;
 5/5=2,38=6,98=1/2;
 8/6=4,10=90,11=11/1;
 11/6=1,8=1,9=11,15=111,16=1/1,2,10;
 10/6=1/2;
 6/7=2,8=2,9=2,10=2,28=1/1;
 7/8=1,10=1,25=1/1,2,3,16;
 1/10=4,30=1/3;
 99//99;
 Structure from the checkpoint file:  "molecule_15.chk"
 -------------------
 Title Card Required
 -------------------
 Charge =  0 Multiplicity = 1
 Redundant internal coordinates found in file.  (old form).
 C,0,5.109299,-1.210023,0.000004
 C,0,3.715268,-1.215113,0.00027
 C,0,2.998458,-0.000226,0.000179
 C,0,3.714942,1.214994,-0.000128
 C,0,5.108878,1.210349,-0.000378
 C,0,5.81128,0.000232,-0.000308
 H,0,5.649799,-2.153078,0.000035
 H,0,3.168312,-2.1535,0.000517
 H,0,3.167547,2.15312,-0.000156
 H,0,5.649189,2.153515,-0.000621
 H,0,6.898089,0.000455,-0.000531
 C,0,1.573135,-0.000308,0.000289
 C,0,0.355876,-0.000082,0.000336
 C,0,-1.068288,-0.000046,0.000216
 C,0,-1.788477,-1.212597,-0.000052
 C,0,-1.788426,1.212543,0.000338
 C,0,-3.181294,-1.215926,-0.000192
 H,0,-1.246714,-2.15361,-0.000126
 C,0,-3.181237,1.215937,0.000198
 H,0,-1.246617,2.15353,0.000531
 C,0,-3.868572,0.000018,-0.000062
 H,0,-3.731664,-2.1513,-0.000389
 H,0,-3.731572,2.151331,0.000282
 Cl,0,-5.625966,0.00006,-0.000224
 Recover connectivity data from disk.

 GradGradGradGradGradGradGradGradGradGradGradGradGradGradGradGradGradGrad
 Berny optimization.
 Initialization pass.
                           ----------------------------
[...]
 073588,-0.00000008,0.,0.00020085,0.00000001,-0.00000001,-0.00001255,0.
 00000008,0.00000003,0.00017372,0.00000005,-0.00000002,0.00017358,0.,0.
 ,-0.00001258,0.00000002,0.00000002,0.00004035,0.00000364,0.00000053,-0
 .00183405,-0.00002248,-0.00000362,-0.04794818,0.00004531,0.00007627,0.
 14230566,-0.00043646,0.00000775,0.00000010,0.00002623,-0.00101222,-0.0
 0000002,-0.00221053,0.00145206,0.00000027,0.00046917,0.00078202,-0.000
 00022,-0.00029996,0.00012027,0.00000011,0.00010415,0.00005140,-0.00000
 009,-0.00009723,0.00002057,0.00000002,0.00003386,0.00002118,0.,0.00007
 018,0.00002758,-0.00000002,-0.00005572,-0.00002255,0.00000001,-0.00003
 210,0.00000225,0.00000002,0.00772117,-0.00126910,-0.00000029,-0.041981
 46,-0.03082725,-0.00000833,-0.15527446,-0.05110047,-0.00001851,0.69624
 327,-0.00031368,-0.00024528,0.00000011,0.00099429,-0.00038636,-0.00000
 022,-0.00314093,-0.00028285,0.00000031,0.00076172,0.00060796,-0.000000
 06,-0.00033807,0.00011622,0.,0.00029305,0.00000031,-0.00000004,0.00004
 626,-0.00001279,0.,0.00003150,-0.00002936,0.00000004,-0.00003426,-0.00
 005916,0.00000003,0.00002215,0.00000779,-0.00000002,0.00000510,-0.0000
 0936,0.,0.01103414,-0.00127569,-0.00000070,-0.02030587,0.00527472,-0.0
 0000105,-0.09808549,-0.26410918,-0.00004156,-0.04317780,0.70203004,0.0
 0000007,-0.00000005,-0.00010455,0.00000002,0.,-0.00013557,-0.00000018,
 0.00000013,-0.00013097,0.00000013,0.00000006,0.00016218,0.00000004,0.0
 0000008,0.00009726,-0.00000007,-0.00000002,0.00000367,0.,0.,0.00000389
 ,0.,0.00000001,0.00002483,0.,-0.00000001,-0.00003090,0.,0.,-0.00001072
 ,0.,0.,0.00000006,0.00000180,-0.00000077,0.00201233,-0.00000647,-0.000
 00205,0.00215009,-0.00002612,-0.00003696,-0.06323633,0.00005347,0.0000
 8113,0.13081828,-0.00030006,-0.00012055,0.00000008,0.00046998,-0.00078
 198,-0.00000012,-0.00221005,-0.00145263,-0.00000001,0.00002545,0.00101
 204,0.,-0.00043628,-0.00000809,0.00000012,0.00010418,-0.00005121,-0.00
 000004,-0.00005568,0.00002253,0.00000002,0.00007014,-0.00002745,0.,0.0
 0003387,-0.00002111,-0.00000002,-0.00009723,-0.00002059,0.00000002,-0.
 00003209,-0.00000228,0.,0.00771598,0.00126815,-0.00000014,-0.04197319,
 0.03083174,0.00000148,-0.15526752,0.05108811,-0.00000134,0.05909528,0.
 01905902,0.00000859,0.69626026,0.00033825,0.00011626,-0.00000005,-0.00
 076208,0.00060824,0.00000005,0.00314097,-0.00028338,-0.00000031,-0.000
 99407,-0.00038617,0.00000001,0.00031360,-0.00024527,0.00000006,-0.0002
 9308,0.00000012,0.00000003,-0.00002214,0.00000777,0.,0.00003428,-0.000
 05913,0.,-0.00003156,-0.00002939,0.,-0.00004627,-0.00001280,0.00000003
 ,-0.00000509,-0.00000937,0.,-0.01103563,-0.00127338,-0.00000027,0.0203
 0836,0.00527264,0.00000150,0.09807423,-0.26410718,-0.00002256,-0.01906
 402,-0.05401212,-0.00001190,0.04318415,0.70201280,-0.00000006,-0.00000
 001,0.00009774,0.00000006,-0.00000010,0.00016137,-0.00000025,-0.000000
 23,-0.00013198,-0.00000014,0.00000019,-0.00013640,-0.00000010,-0.00000
 010,-0.00010394,0.00000006,0.00000005,0.00000341,-0.00000002,0.,-0.000
 01070,0.,-0.00000004,-0.00003087,-0.00000003,0.,0.00002483,-0.00000003
 ,0.,0.00000394,0.,0.,0.00000007,-0.00000052,0.00000005,0.00201553,-0.0
 0000097,0.00000289,0.00214913,0.00000652,-0.00002655,-0.06323911,0.000
 00200,-0.00000796,0.00811637,0.00006165,0.00009248,0.13081897,0.000253
 00,0.00009717,-0.00000015,-0.00049166,0.00028761,0.00000022,0.00157197
 ,0.00004418,-0.00000014,-0.00036643,-0.00031874,-0.00000004,0.00016170
 ,-0.00005140,0.,-0.00018171,-0.00004291,0.00000007,-0.00001691,0.00001
 301,0.,0.00001867,-0.00001086,0.,0.00002632,0.00002533,-0.00000002,-0.
 00001640,-0.00001133,0.00000001,-0.00001252,0.00000067,0.,-0.00399366,
 0.00063968,0.00000022,0.00775004,-0.00188205,-0.00000033,-0.03119877,-
 0.06943796,-0.00001453,-0.34724266,0.03061977,-0.00002522,-0.04661886,
 0.02567311,-0.00000028,0.69294589,-0.00013191,0.00011148,-0.00000016,0
 .00002867,-0.00022656,0.00000017,-0.00068391,0.00031827,0.00000014,0.0
 0015968,0.00010398,-0.00000005,-0.00008624,-0.00006635,0.00000009,0.00
 019323,0.00002330,0.,-0.00001214,-0.00001402,0.,-0.00000913,0.00000639
 ,0.00000002,0.00001870,0.00002944,-0.00000002,0.00000253,0.00001701,0.
 ,0.00000927,0.00000472,0.,0.00064020,-0.00000441,0.00000003,-0.0045948
 5,-0.00480004,-0.00000235,-0.02574149,0.03339270,0.00000162,-0.0349859
 1,-0.12891779,-0.00001399,0.02797488,-0.01703686,0.00000065,0.04463225
 ,0.72218687,-0.00000002,0.00000011,0.00015397,-0.00000008,-0.00000005,
 -0.00009929,0.00000005,0.00000008,-0.00043715,-0.00000006,0.,0.0001251
 1,-0.00000002,-0.00000012,-0.00009090,0.00000009,0.00000002,-0.0000089
 1,0.,0.,0.00000582,0.,-0.00000002,-0.00004932,0.00000001,0.00000002,0.
 00001457,0.,0.,-0.00000722,0.,0.,-0.00000128,-0.00000052,0.00000016,-0
 .00029301,-0.00000028,-0.00000217,0.00682186,-0.00000787,-0.00000240,0
 .00569119,-0.00003435,-0.00000777,-0.05846513,0.00000017,0.00000033,-0
 .00371079,0.00006210,0.00009808,0.12666379,0.00000281,0.00000834,-0.00
 000003,0.00002832,-0.00004351,0.00000006,-0.00011226,0.00003782,0.,0.0
 0007173,-0.00003077,0.00000002,0.00000969,0.00002829,-0.00000004,0.000
 01320,0.00000118,0.00000001,0.00000997,-0.00000575,0.,-0.00003259,0.00
 002793,-0.00000002,-0.00000811,-0.00000174,0.,0.00001278,0.00000553,0.
 ,0.00000937,0.00000335,0.,-0.00002639,0.00016233,-0.00000004,0.0010702
 2,-0.00093655,0.00000035,0.01080849,-0.01555134,-0.00000147,-0.1293718
 7,0.12358559,0.00000745,-0.00149358,-0.00298639,-0.00000125,-0.0114158
 5,0.02836010,0.00000265,0.13513312,0.00000235,0.00000695,0.,-0.0000102
 9,-0.00002418,0.00000003,-0.00002067,-0.00001730,0.,0.00003976,-0.0000
 5663,0.00000003,0.00001249,0.00002847,-0.00000003,-0.00000318,-0.00000
 007,0.,0.00000720,-0.00000246,0.,-0.00002466,0.00003725,-0.00000002,-0
 .00000392,0.00000255,0.,0.00001139,0.00000367,0.,0.00000708,0.00000345
 ,0.,-0.00078292,0.00023991,0.00000004,0.00110518,0.00043965,0.00000053
 ,0.01542503,-0.01854885,-0.00000164,0.12192558,-0.27296238,-0.00002073
 ,-0.00412572,-0.00296357,-0.00000165,-0.00241186,0.00444272,-0.0000001
 2,-0.13054673,0.28758734,0.,-0.00000002,-0.00004745,0.00000001,-0.0000
 0001,0.00001742,0.00000002,0.,0.00017474,0.00000002,-0.00000002,-0.000
 02783,0.,0.00000003,0.00000960,0.,0.,0.00000781,0.,0.,0.00000434,-0.00
 000001,0.00000002,0.00004485,0.,0.,0.00000394,0.,0.,0.00000373,0.,0.,0
 .00000126,-0.00000007,-0.00000002,-0.00001765,0.00000051,0.00000061,-0
 .00353353,0.00000317,-0.00000544,0.00365264,0.00000679,-0.00001982,-0.
 03632191,-0.00000148,-0.00000171,0.00564013,-0.00000158,0.00000294,0.0
 0358652,-0.00000668,0.00002363,0.02495162,0.00016183,0.00005142,-0.000
 00005,-0.00036667,0.00031889,0.00000007,0.00157209,-0.00004455,-0.0000
 0008,-0.00049150,-0.00028756,-0.00000001,0.00025294,-0.00009709,-0.000
 00005,-0.00018177,0.00004281,0.00000003,-0.00001640,0.00001133,0.,0.00
 002631,-0.00002531,0.,0.00001866,0.00001087,0.,-0.00001692,-0.00001301
 ,0.00000001,-0.00001252,-0.00000067,0.,-0.00399426,-0.00063830,0.00000
 024,0.00775003,0.00188042,-0.00000037,-0.03119368,0.06944074,0.0000073
 8,-0.04662116,-0.02567211,-0.00000829,-0.34725671,-0.03060884,-0.00003
 360,0.05975317,-0.02228637,0.00000151,-0.00062179,-0.00076708,-0.00000
 014,0.69295527,0.00008617,-0.00006633,0.00000007,-0.00015985,0.0001039
 2,-0.00000003,0.00068367,0.00031902,0.00000008,-0.00002837,-0.00022654
 ,0.00000004,0.00013193,0.00011152,-0.00000012,-0.00019322,0.00002332,0
 .00000002,-0.00000255,0.00001701,0.,-0.00001871,0.00002942,-0.00000003
 ,0.00000916,0.00000638,0.00000002,0.00001216,-0.00001402,0.,-0.0000092
 7,0.00000471,0.,-0.00063903,-0.00000540,0.00000004,0.00459307,-0.00480
 055,-0.00000148,0.02574472,0.03338874,0.00000728,-0.02797315,-0.017034
 47,-0.00000509,0.03499595,-0.12891700,-0.00000741,0.02228134,-0.052894
 76,-0.00000725,-0.00067261,0.00027164,0.00000010,-0.04463982,0.7221782
 6,0.00000006,-0.00000005,-0.00009104,-0.00000005,0.00000009,0.00012545
 ,0.00000022,0.00000014,-0.00043678,0.00000004,-0.00000011,-0.00009892,
 0.00000007,0.00000013,0.00015366,-0.00000011,-0.00000004,-0.00000880,0
 .,0.,-0.00000722,-0.00000001,0.00000002,0.00001450,0.,-0.00000002,-0.0
 0004935,0.00000001,0.,0.00000580,0.,0.,-0.00000128,-0.00000073,-0.0000
 0024,-0.00029416,0.00000105,-0.00000141,0.00682184,0.00000028,0.000011
 22,0.00569193,-0.00000864,-0.00000475,-0.00371090,-0.00002363,-0.00001
 397,-0.05846396,0.00000884,-0.00001191,0.00749027,-0.00000010,0.000000
 06,-0.00071076,0.00005048,0.00008698,0.12666361,0.00000970,-0.00002828
 ,0.,0.00007166,0.00003077,0.,-0.00011213,-0.00003765,0.00000002,0.0000
 2830,0.00004350,-0.00000002,0.00000284,-0.00000833,0.,0.00001320,-0.00
 000117,0.,0.00001278,-0.00000553,0.,-0.00000813,0.00000173,0.,-0.00003
 261,-0.00002794,0.00000001,0.00000997,0.00000576,0.,0.00000937,-0.0000
 0335,0.,-0.00002657,-0.00016227,-0.00000006,0.00107012,0.00093578,0.00
 000060,0.01080928,0.01555020,0.00000306,-0.00149340,0.00298642,-0.0000
 0019,-0.12938393,-0.12359155,-0.00002749,-0.00062177,0.00067262,0.0000
 0008,0.00061108,0.00081620,0.00000017,-0.01141715,-0.02835956,-0.00000
 588,0.13514561,-0.00001250,0.00002846,-0.00000002,-0.00003967,-0.00005
 661,0.00000003,0.00002052,-0.00001744,-0.00000002,0.00001034,-0.000024
 17,-0.00000002,-0.00000238,0.00000695,0.00000001,0.00000320,-0.0000000
 9,0.,-0.00001139,0.00000367,0.,0.00000393,0.00000257,0.,0.00002469,0.0
 0003728,-0.00000001,-0.00000720,-0.00000246,0.,-0.00000709,0.00000345,
 0.,0.00078292,0.00023946,-0.00000009,-0.00110488,0.00044023,0.00000070
 ,-0.01542666,-0.01854879,-0.00000489,0.00412566,-0.00296402,-0.0000008
 8,-0.12193189,-0.27294944,-0.00004744,0.00076715,0.00027164,0.00000026
 ,-0.00081622,-0.00099690,-0.00000031,0.00241253,0.00444374,0.00000041,
 0.13055350,0.28757375,-0.00000001,0.00000002,0.00000956,0.,-0.00000001
 ,-0.00002780,0.,-0.00000005,0.00017481,0.,-0.00000004,0.00001739,0.,-0
 .00000002,-0.00004743,0.00000002,0.00000001,0.00000782,0.,0.,0.0000037
 3,0.,0.,0.00000395,0.00000002,0.00000002,0.00004488,0.,0.,0.00000434,0
 .,0.,0.00000125,0.00000021,0.00000010,-0.00001766,0.00000008,0.0000006
 3,-0.00353365,-0.00000154,-0.00000224,0.00365260,0.00000009,-0.0000009
 9,0.00564006,-0.00002730,-0.00004705,-0.03632188,0.00000007,0.00000027
 ,-0.00071076,-0.00000013,-0.00000014,0.00030013,-0.00000111,-0.0000027
 4,0.00358655,0.00003027,0.00005219,0.02495166,-0.00015373,-0.00000671,
 0.,0.00047548,-0.00017140,-0.00000005,-0.00154980,0.00000021,0.0000003
 1,0.00047541,0.00017135,0.00000005,-0.00015367,0.00000673,0.,0.0002788
 3,0.00000003,-0.00000003,0.00005053,-0.00004252,-0.00000001,-0.0000582
 8,0.00004430,0.,-0.00005828,-0.00004435,0.,0.00005052,0.00004253,-0.00
 000003,0.00005107,0.00000001,-0.00000002,0.00348309,-0.00000086,-0.000
 00069,-0.00499021,0.00000056,0.00000045,0.00445394,-0.00000136,0.00000
 105,-0.03053450,0.02555464,0.00000033,-0.03053925,-0.02555196,-0.00000
 776,-0.15037599,0.11481158,0.00001009,-0.00400860,-0.00073892,-0.00000
 118,-0.15038066,-0.11481115,-0.00002699,-0.00400847,0.00073911,-0.0000
 0105,0.50257073,0.00004944,0.00002373,0.,-0.00005701,0.00000041,0.,0.0
 0000001,0.00002629,-0.00000003,0.00005702,0.00000041,0.,-0.00004945,0.
 00002371,0.00000001,0.00000001,-0.00005538,0.,0.00000117,-0.00000013,0
 .,-0.00000187,-0.00000092,0.,0.00000187,-0.00000091,0.,-0.00000117,-0.
 00000014,0.,0.,0.00000046,0.,0.00000010,0.00079298,0.00000005,0.000000
 42,-0.00107154,0.00000031,-0.00000216,-0.07003545,-0.00001035,0.081544
 23,0.03309159,0.00001211,-0.08154141,0.03309608,-0.00000395,0.04942227
 ,-0.28534344,-0.00003157,-0.00140435,0.00159178,-0.00000096,-0.0494217
 1,-0.28532525,-0.00003994,0.00140460,0.00159175,-0.00000077,-0.0000034
 0,0.65055407,-0.00000002,0.00000003,0.00005809,0.00000005,-0.00000006,
 -0.00008242,-0.00000015,-0.00000003,-0.00025423,0.00000003,0.,-0.00008
 255,-0.00000004,0.00000003,0.00005818,0.00000003,0.,-0.00002827,0.,0.,
 0.00000287,-0.00000002,0.,0.00001126,0.,0.,0.00001126,0.,0.,0.00000288
 ,0.,0.,0.00000417,0.00000047,0.00000003,0.00105558,-0.00000046,0.00000
 018,-0.00185035,0.00000099,-0.00001025,-0.00543064,0.00000913,0.000006
 67,0.00587417,-0.00001662,0.00000171,0.00587459,-0.00000016,-0.0000253
 8,-0.06055933,-0.00000142,-0.00000084,0.00730286,-0.00001667,-0.000046
 84,-0.06056079,-0.00000084,-0.00000082,0.00730300,0.00003641,0.0000852
 9,0.11800401,0.00000200,0.00001644,-0.00000001,-0.00009060,-0.00004266
 ,0.00000002,0.00013023,0.00008857,0.00000001,-0.00004831,0.00002091,-0
 .00000002,0.00000189,-0.00000255,0.00000001,-0.00002569,-0.00000073,0.
 ,-0.00001584,0.00000503,0.,0.00000947,-0.00000447,0.,0.00001131,0.0000
 0932,0.,-0.00000971,-0.00000403,0.,-0.00000577,0.00000049,0.,-0.000350
 48,0.00002827,0.00000003,-0.00033983,-0.00126888,-0.00000029,-0.004698
 54,0.00161026,-0.00000090,-0.01080907,-0.02809951,-0.00000581,-0.00072
 081,0.00070923,0.00000008,-0.13027687,-0.12619766,-0.00002850,0.000628
 19,0.00029484,0.00000052,-0.00153591,0.00310459,-0.00000015,0.00008524
 ,-0.00009356,0.00000007,0.00984491,0.01527501,0.00000304,0.13667968,-0
 .00000333,-0.00000711,0.,-0.00000389,-0.00000736,0.,0.00001716,-0.0000
 1417,-0.00000001,-0.00001054,0.00000514,0.00000001,-0.00000051,0.00000
 797,0.,-0.00001424,0.00000061,0.,-0.00000245,0.00000279,0.,0.00000304,
 -0.00000039,0.,0.00000298,0.00000075,0.,-0.00000288,-0.00000287,0.,-0.
 00000312,-0.00000010,0.,0.00010030,-0.00004744,0.00000001,-0.00005437,
 0.00016984,-0.00000003,0.00124177,0.00168031,-0.00000073,0.00188947,0.
 00496261,0.00000046,0.00085114,0.00029007,0.00000027,-0.12336784,-0.27
 215785,-0.00004851,-0.00024178,0.00081309,0.00000076,0.00414889,-0.002
 84350,-0.00000089,-0.00008666,-0.00000112,0.00000012,-0.01639831,-0.01
 949462,-0.00000501,0.13261388,0.28689773,0.,0.,0.00000321,0.,-0.000000
 02,0.00000295,-0.00000003,0.00000001,-0.00000701,0.,0.,-0.00002285,0.,
 0.,-0.00000072,0.,0.,-0.00000283,0.,0.,0.00000169,0.,0.,0.00000510,0.,
 0.,0.00000391,0.,0.,0.00000195,0.,0.,0.00000139,0.00000004,0.,-0.00015
 641,-0.00000017,-0.00000017,0.00040798,-0.00000101,-0.00000072,0.00718
 223,-0.00000104,-0.00000251,0.00325547,0.00000012,0.00000033,-0.000730
 90,-0.00002805,-0.00004852,-0.03539758,0.00000050,0.00000076,-0.004309
 50,0.00000009,-0.00000100,0.00538110,0.00000007,0.00000011,-0.00082319
 ,-0.00000196,-0.00000210,0.00276022,0.00003122,0.00005334,0.02464472,0
 .00000190,0.00000253,-0.00000002,-0.00004826,-0.00002091,0.00000003,0.
 00013027,-0.00008872,0.00000002,-0.00009066,0.00004266,0.,0.00000200,-
 0.00001646,0.,-0.00002569,0.00000073,0.,-0.00000971,0.00000403,0.,0.00
 001130,-0.00000931,0.,0.00000948,0.00000449,0.,-0.00001584,-0.00000503
 ,0.,-0.00000577,-0.00000050,0.,-0.00035077,-0.00002781,-0.00000006,-0.
 00033954,0.00126870,0.00000012,-0.00469849,-0.00161010,-0.00000146,-0.
 00072094,-0.00070911,-0.00000013,-0.01080783,0.02810003,0.00000290,-0.
 00153627,-0.00310471,-0.00000117,0.00008524,0.00009358,0.00000011,-0.1
 3026780,0.12619301,0.00000931,0.00062821,-0.00029484,0.00000046,0.0098
 4500,-0.01527627,-0.00000164,0.00067555,-0.00078478,-0.00000012,0.1366
 6976,0.00000052,0.00000798,0.,0.00001053,0.00000514,0.,-0.00001716,-0.
 00001418,0.00000003,0.00000390,-0.00000735,0.,0.00000332,-0.00000711,0
 .,0.00001424,0.00000061,0.,0.00000288,-0.00000287,0.,-0.00000298,0.000
 00074,0.,-0.00000304,-0.00000039,0.,0.00000245,0.00000279,0.,0.0000031
 2,-0.00000009,0.,-0.00010031,-0.00004734,-0.00000002,0.00005440,0.0001
 6963,-0.00000003,-0.00124143,0.00168048,-0.00000094,-0.00085113,0.0002
 9018,0.00000009,-0.00188884,0.00496158,0.00000007,-0.00414896,-0.00284
 328,-0.00000165,0.00008664,-0.00000113,0.00000013,0.12336292,-0.272168
 00,-0.00002307,0.00024181,0.00081308,0.00000079,0.01639712,-0.01949480
 ,-0.00000179,0.00078471,-0.00091529,-0.00000014,-0.13260864,0.28690867
 ,0.,0.,-0.00000073,-0.00000001,0.,-0.00002282,0.00000003,0.,-0.0000070
 3,0.,0.,0.00000293,0.,0.,0.00000322,0.,0.,-0.00000283,0.,0.,0.00000195
 ,0.,0.,0.00000391,0.,0.,0.00000510,0.,0.,0.00000169,0.,0.,0.00000139,-
 0.00000007,0.,-0.00015635,-0.00000006,0.00000008,0.00040788,-0.0000013
 3,-0.00000104,0.00718246,-0.00000005,0.00000014,-0.00073088,-0.0000017
 4,0.00000312,0.00325545,-0.00000152,-0.00000152,0.00538092,0.00000012,
 0.00000013,-0.00082319,0.00000891,-0.00002246,-0.03539740,0.00000051,0
 .00000074,-0.00430962,0.00000325,-0.00000536,0.00276021,0.00000016,-0.
 00000030,0.00036039,-0.00000852,0.00002604,0.02464457,0.00005687,-0.00
 013745,0.00000007,-0.00035348,-0.00009507,-0.00000005,0.00095418,0.000
 00009,0.00000010,-0.00035359,0.00009499,0.,0.00005690,0.00013732,-0.00
 000007,-0.00035771,0.00000004,0.00000004,-0.00006782,0.00005975,0.0000
 0001,0.00006355,-0.00002669,0.,0.00006358,0.00002675,0.,-0.00006781,-0
 .00005976,0.00000002,-0.00006275,-0.00000002,0.00000002,-0.00100556,0.
 00000024,-0.00000033,0.00093607,-0.00000014,0.00000044,-0.00188925,0.0
 0000003,-0.00000035,0.00341821,0.00488319,0.00000062,0.00341793,-0.004
 88355,-0.00000075,-0.03811441,0.00033062,-0.00000387,-0.00140317,-0.00
 030472,-0.00000018,-0.03811540,-0.00032849,-0.00000408,-0.00140320,0.0
 0030475,-0.00000013,-0.15476805,0.00000264,-0.00001213,0.00085895,0.00
 010605,0.00000035,0.00085885,-0.00010609,0.00000030,0.22727708,-0.0000
 0353,0.00000686,-0.00000001,0.00000097,-0.00001124,0.00000002,-0.00000
 003,-0.00001642,0.00000006,-0.00000094,-0.00001126,0.,0.00000352,0.000
 00685,-0.00000001,0.,0.00000287,0.,-0.00000183,0.00000038,0.,-0.000003
 60,0.00000500,0.,0.00000359,0.00000500,0.,0.00000183,0.00000038,0.,0.,
 -0.00000021,0.,0.,-0.00001282,-0.00000014,0.00000001,0.00031447,0.0000
 0023,0.00000014,0.00194005,0.00000047,-0.00168644,-0.00408060,-0.00000
 159,0.00168604,-0.00408051,-0.00000121,0.02718038,0.00339685,0.0000025
 5,0.00093065,0.00010501,0.00000009,-0.02717841,0.00339814,-0.00000265,
 -0.00093059,0.00010502,-0.00000011,0.00000275,-0.03997068,-0.00000293,
 0.00115252,0.00066092,0.00000061,-0.00115258,0.00066096,0.00000042,-0.
 00000449,0.03757499,0.00000001,-0.00000002,-0.00001143,-0.00000003,0.,
 0.00001521,0.00000010,0.,0.00007903,-0.00000003,0.00000001,0.00001522,
 0.00000001,0.,-0.00001143,-0.00000004,0.,0.00000871,0.,0.,-0.00000173,
 0.,0.,-0.00000350,0.,0.,-0.00000351,0.,0.,-0.00000173,0.,0.,-0.0000020
 7,-0.00000012,0.00000001,-0.00009372,0.00000016,0.00000013,-0.00062538
 ,-0.00000013,0.00000049,-0.00078647,-0.00000047,-0.00000098,0.00471920
 ,0.00000019,-0.00000187,0.00471900,0.00000050,-0.00000007,0.00389665,0
 .00000002,-0.00000002,0.00009025,-0.00000836,-0.00000020,0.00389664,-0
 .00000029,0.00000004,0.00009026,-0.00001218,-0.00000273,-0.02223478,0.
 00000051,0.00000051,-0.00256132,0.00000016,0.00000049,-0.00256124,0.00
 001998,0.00000421,0.01136816\\0.00002654,0.00003322,-0.00000251,-0.000
 02964,0.00004445,0.00000262,-0.00002050,-0.00005299,0.00000213,0.00004
 928,0.00001182,-0.00000169,-0.00004509,0.00000473,-0.00000294,-0.00000
 476,-0.00003794,0.00000388,0.00000291,-0.00000278,-0.00000111,0.000009
 10,-0.00000920,0.00000066,-0.00000030,0.00000090,0.00000208,0.00001132
 ,-0.00000037,-0.00000007,0.00000401,0.00000380,-0.00000083,-0.00007514
 ,-0.00000221,-0.00000442,0.00008386,0.00000824,0.00000546,0.00001269,-
 0.00000498,-0.00000204,-0.00000540,0.00000918,-0.00000253,-0.00001110,
 -0.00000620,0.00000078,0.00002200,0.00001991,-0.00000072,-0.00000520,-
 0.00000399,0.00000114,0.00002707,-0.00001606,0.00000044,-0.00000489,0.
 00000394,-0.00000048,0.00001192,-0.00000291,0.00000016,-0.00002733,-0.
 00003658,0.00000022,-0.00002771,0.00003597,-0.00000046,-0.00000365,0.0
 0000006,0.00000024\\\@


 Age does not diminish the extreme disappointment of
 having a scoop of ice cream fall from the cone.
 -- Jim Fiebig
 Job cpu time:       0 days  1 hours 37 minutes 57.5 seconds.
 Elapsed time:       0 days  0 hours  3 minutes 16.0 seconds.
 File lengths (MBytes):  RWF=    243 Int=      0 D2E=      0 Chk=      9 Scr=      1
 Normal termination of Gaussian 16 at Sun Sep 17 16:43:01 2023.
