 Entering Gaussian System, Link 0=g16
 Input=/home/ubuntu/products/molecule_35.gjf
 Output=/home/ubuntu/products/molecule_35.log
 Initial command:
 /home/ubuntu/g16/l1.exe "/home/ubuntu/Scratch/Gau-73531.inp" -scrdir="/home/ubuntu/Scratch/"
 Entering Link 1 = /home/ubuntu/g16/l1.exe PID=     73535.
  
 Copyright (c) 1988-2017, Gaussian, Inc.  All Rights Reserved.
  
 This is part of the Gaussian(R) 16 program.  It is based on
 the Gaussian(R) 09 system (copyright 2009, Gaussian, Inc.),
 the Gaussian(R) 03 system (copyright 2003, Gaussian, Inc.),
 the Gaussian(R) 98 system (copyright 1998, Gaussian, Inc.),
 the Gaussian(R) 94 system (copyright 1995, Gaussian, Inc.),
 the Gaussian 92(TM) system (copyright 1992, Gaussian, Inc.),
 the Gaussian 90(TM) system (copyright 1990, Gaussian, Inc.),
 the Gaussian 88(TM) system (copyright 1988, Gaussian, Inc.),
 the Gaussian 86(TM) system (copyright 1986, Carnegie Mellon
 University), and the Gaussian 82(TM) system (copyright 1983,
 Carnegie Mellon University). Gaussian is a federally registered
 trademark of Gaussian, Inc.
  
 This software contains proprietary and confidential information,
 including trade secrets, belonging to Gaussian, Inc.
  
 This software is provided under written license and may be
 used, copied, transmitted, or stored only in accord with that
 written license.
  
 The following legend is applicable only to US Government
 contracts under FAR:
  
                    RESTRICTED RIGHTS LEGEND
  
 Use, reproduction and disclosure by the US Government is
 subject to restrictions as set forth in subparagraphs (a)
 and (c) of the Commercial Computer Software - Restricted
 Rights clause in FAR 52.227-19.
  
 Gaussian, Inc.
 340 Quinnipiac St., Bldg. 40, Wallingford CT 06492
  
  
 ---------------------------------------------------------------
 Warning -- This program may not be used in any manner that
 competes with the business of Gaussian, Inc. or will provide
 assistance to any competitor of Gaussian, Inc.  The licensee
 of this program is prohibited from giving any competitor of
 Gaussian, Inc. access to this program.  By using this program,
 the user acknowledges that Gaussian, Inc. is engaged in the
 business of creating and licensing software in the field of
 computational chemistry and represents and warrants to the
 licensee that it is not a competitor of Gaussian, Inc. and that
 it will not use this program in any manner prohibited above.
 ---------------------------------------------------------------
  

 Cite this work as:
 Gaussian 16, Revision B.01,
 M. J. Frisch, G. W. Trucks, H. B. Schlegel, G. E. Scuseria, 
 M. A. Robb, J. R. Cheeseman, G. Scalmani, V. Barone, 
 G. A. Petersson, H. Nakatsuji, X. Li, M. Caricato, A. V. Marenich, 
 J. Bloino, B. G. Janesko, R. Gomperts, B. Mennucci, H. P. Hratchian, 
 J. V. Ortiz, A. F. Izmaylov, J. L. Sonnenberg, D. Williams-Young, 
 F. Ding, F. Lipparini, F. Egidi, J. Goings, B. Peng, A. Petrone, 
 T. Henderson, D. Ranasinghe, V. G. Zakrzewski, J. Gao, N. Rega, 
 G. Zheng, W. Liang, M. Hada, M. Ehara, K. Toyota, R. Fukuda, 
 J. Hasegawa, M. Ishida, T. Nakajima, Y. Honda, O. Kitao, H. Nakai, 
 T. Vreven, K. Throssell, J. A. Montgomery, Jr., J. E. Peralta, 
 F. Ogliaro, M. J. Bearpark, J. J. Heyd, E. N. Brothers, K. N. Kudin, 
 V. N. Staroverov, T. A. Keith, R. Kobayashi, J. Normand, 
 K. Raghavachari, A. P. Rendell, J. C. Burant, S. S. Iyengar, 
 J. Tomasi, M. Cossi, J. M. Millam, M. Klene, C. Adamo, R. Cammi, 
 J. W. Ochterski, R. L. Martin, K. Morokuma, O. Farkas, 
 J. B. Foresman, and D. J. Fox, Gaussian, Inc., Wallingford CT, 2016.
 
 ******************************************
 Gaussian 16:  EM64L-G16RevB.01 20-Dec-2017
                18-Sep-2023 
 ******************************************
 %nprocshared=30
 Will use up to   30 processors via shared memory.
 %mem=30GB
 %chk=molecule_35.chk
 ----------------------------------------------------------------------
 # opt=cartesian freq b3lyp/6-31+g(d) nosymm geom=connectivity empirica
 ldispersion=gd3 volume
 ----------------------------------------------------------------------
 1/10=7,18=10,26=3,38=1,57=2/1,3;
 2/12=2,15=1,17=6,18=5,29=2,40=1/2;
 3/5=1,6=6,7=11,11=2,25=1,30=1,71=1,74=-5,124=31/1,2,3;
 4//1;
 5/5=2,38=5/2;
 6/7=2,8=2,9=2,10=2,28=1,44=1/1,4;
 7/7=1,29=1,30=1/1,2,3,16;
 1/10=7,18=10,26=3/3(2);
 2/15=1,29=1/2;
 99/12=1/99;
 2/15=1,29=1/2;
 3/5=1,6=6,7=11,11=2,25=1,30=1,71=1,74=-5,124=31/1,2,3;
 4/5=5,16=3,69=1/1;
 5/5=2,38=5/2;
 7/7=1,30=1/1,2,3,16;
 1/18=10,26=3/3(-5);
 2/15=1,29=1/2;
 6/7=2,8=2,9=2,10=2,19=2,28=1,44=1/1,4;
 99/9=1,12=1/99;
 -------------------
 Title Card Required
 -------------------
 Symbolic Z-matrix:
 Charge =  0 Multiplicity = 1
 C
 C                    1    B1
 C                    1    B2       2    A1
 C                    2    B3       1    A2       3    D1       0
 C                    3    B4       1    A3       2    D2       0
 C                    4    B5       2    A4       1    D3       0
 C                    4    B6       2    A5       1    D4       0
 C                    5    B7       3    A6       1    D5       0
 C                    6    B8       4    A7       2    D6       0
 H                    6    B9       4    A8       2    D7       0
 C                    7    B10      4    A9       2    D8       0
 H                    7    B11      4    A10      2    D9       0
 C                    8    B12      5    A11      3    D10      0
 C                    8    B13      5    A12      3    D11      0
 C                    9    B14      6    A13      4    D12      0
 H                    9    B15      6    A14      4    D13      0
 H                    11   B16      7    A15      4    D14      0
 C                    13   B17      8    A16      5    D15      0
 H                    13   B18      8    A17      5    D16      0
 C                    14   B19      8    A18      5    D17      0
 H                    14   B20      8    A19      5    D18      0
 O                    15   B21      9    A20      6    D19      0
 C                    20   B22      14   A21      8    D20      0
 H                    18   B23      13   A22      8    D21      0
 H                    20   B24      14   A23      8    D22      0
 C                    22   B25      15   A24      9    D23      0
 H                    23   B26      20   A25      14   D24      0
 H                    26   B27      22   A26      15   D25      0
 H                    26   B28      22   A27      15   D26      0
 H                    26   B29      22   A28      15   D27      0
       Variables:
  B1                    1.22291                  
  B2                    1.36034                  
  B3                    1.42005                  
  B4                    1.22258                  
  B5                    1.4076                   
  B6                    1.41507                  
  B7                    1.42204                  
  B8                    1.39505                  
  B9                    1.08605                  
  B10                   1.386                    
  B11                   1.08594                  
  B12                   1.41169                  
  B13                   1.41166                  
  B14                   1.40267                  
  B15                   1.084                    
  B16                   1.08576                  
  B17                   1.3937                   
  B18                   1.08605                  
  B19                   1.39374                  
  B20                   1.08607                  
  B21                   1.36307                  
  B22                   1.39928                  
  B23                   1.08698                  
  B24                   1.08699                  
  B25                   1.42388                  
  B26                   1.08682                  
  B27                   1.09812                  
  B28                   1.0912                   
  B29                   1.09812                  
  A1                  179.98077                  
  A2                  179.78089                  
  A3                  179.95221                  
  A4                  120.94267                  
  A5                  120.83544                  
  A6                  179.89209                  
  A7                  121.23426                  
  A8                  119.23235                  
  A9                  120.81104                  
  A10                 119.24207                  
  A11                 120.51173                  
  A12                 120.54331                  
  A13                 119.69248                  
  A14                 119.14621                  
  A15                 121.17147                  
  A16                 120.30118                  
  A17                 119.19013                  
  A18                 120.29155                  
  A19                 119.19474                  
  A20                 124.62069                  
  A21                 120.35364                  
  A22                 119.58891                  
  A23                 119.58572                  
  A24                 118.74517                  
  A25                 120.11645                  
  A26                 111.24593                  
  A27                 105.69983                  
  A28                 111.24551                  
  D1                  175.45588                  
  D2                    1.16713                  
  D3                 -179.83612                  
  D4                    0.16403                  
  D5                 -175.80675                  
  D6                  180.                       
  D7                   -0.0003                   
  D8                 -180.                       
  D9                    0.                       
  D10                  -0.93571                  
  D11                 179.06558                  
  D12                   0.                       
  D13                 180.                       
  D14                 180.                       
  D15                -179.9996                   
  D16                   0.                       
  D17                 179.99969                  
  D18                  -0.00035                  
  D19                -180.                       
  D20                  -0.00037                  
  D21                -180.                       
  D22                 180.                       
  D23                   0.00202                  
  D24                -180.                       
  D25                  61.25199                  
  D26                 179.9984                   
  D27                 -61.25569                  
 

 GradGradGradGradGradGradGradGradGradGradGradGradGradGradGradGradGradGrad
 Berny optimization.
 Initialization pass.
 Trust Radius=3.00D-01 FncErr=1.00D-07 GrdErr=1.00D-06 EigMax=2.50D+02 EigMin=1.00D-04
 Number of steps in this run=    100 maximum allowed number of steps=    180.
 GradGradGradGradGradGradGradGradGradGradGradGradGradGradGradGradGradGrad

 ---------------------------------------------------------------------------------------------------
                            Z-MATRIX (ANGSTROMS AND DEGREES)
   CD    Cent   Atom    N1       Length/X        N2       Alpha/Y        N3        Beta/Z          J
 ---------------------------------------------------------------------------------------------------
      1      1  C 
      2      2  C        1   1.222913(     1)
      3      3  C        1   1.360343(     2)      2  179.981(    30)
      4      4  C        2   1.420049(     3)      1  179.781(    31)      3  175.456(    58)      0
      5      5  C        3   1.222584(     4)      1  179.952(    32)      2    1.167(    59)      0
      6      6  C        4   1.407603(     5)      2  120.943(    33)      1 -179.836(    60)      0
      7      7  C        4   1.415074(     6)      2  120.835(    34)      1    0.164(    61)      0
      8      8  C        5   1.422041(     7)      3  179.892(    35)      1 -175.807(    62)      0
      9      9  C        6   1.395046(     8)      4  121.234(    36)      2  180.000(    63)      0
     10     10  H        6   1.086053(     9)      4  119.232(    37)      2    0.000(    64)      0
     11     11  C        7   1.385999(    10)      4  120.811(    38)      2 -180.000(    65)      0
     12     12  H        7   1.085937(    11)      4  119.242(    39)      2    0.000(    66)      0
     13     13  C        8   1.411692(    12)      5  120.512(    40)      3   -0.936(    67)      0
     14     14  C        8   1.411665(    13)      5  120.543(    41)      3  179.066(    68)      0
     15     15  C        9   1.402672(    14)      6  119.692(    42)      4    0.000(    69)      0
     16     16  H        9   1.084003(    15)      6  119.146(    43)      4  180.000(    70)      0
     17     17  H       11   1.085759(    16)      7  121.171(    44)      4  180.000(    71)      0
     18     18  C       13   1.393702(    17)      8  120.301(    45)      5 -180.000(    72)      0
     19     19  H       13   1.086055(    18)      8  119.190(    46)      5    0.000(    73)      0
     20     20  C       14   1.393735(    19)      8  120.292(    47)      5  180.000(    74)      0
     21     21  H       14   1.086068(    20)      8  119.195(    48)      5    0.000(    75)      0
     22     22  O       15   1.363071(    21)      9  124.621(    49)      6 -180.000(    76)      0
     23     23  C       20   1.399280(    22)     14  120.354(    50)      8    0.000(    77)      0
     24     24  H       18   1.086983(    23)     13  119.589(    51)      8 -180.000(    78)      0
     25     25  H       20   1.086994(    24)     14  119.586(    52)      8  180.000(    79)      0
     26     26  C       22   1.423875(    25)     15  118.745(    53)      9    0.002(    80)      0
     27     27  H       23   1.086821(    26)     20  120.116(    54)     14 -180.000(    81)      0
     28     28  H       26   1.098116(    27)     22  111.246(    55)     15   61.252(    82)      0
     29     29  H       26   1.091205(    28)     22  105.700(    56)     15  179.998(    83)      0
     30     30  H       26   1.098118(    29)     22  111.246(    57)     15  -61.256(    84)      0
 ---------------------------------------------------------------------------------------------------
                         Z-Matrix orientation:                         
 ---------------------------------------------------------------------
 Center     Atomic      Atomic             Coordinates (Angstroms)
 Number     Number       Type             X           Y           Z
 ---------------------------------------------------------------------
      1          6           0        0.000000    0.000000    0.000000
      2          6           0        0.000000    0.000000    1.222913
      3          6           0        0.000457    0.000000   -1.360343
      4          6           0       -0.005413    0.000430    2.642952
      5          6           0        0.001887   -0.000021   -2.582926
      6          6           0        1.195568   -0.091556    3.371325
      7          6           0       -1.219664    0.093445    3.363630
      8          6           0        0.000883    0.000205   -4.004966
      9          6           0        1.197329   -0.091675    4.766370
     10          1           0        2.137072   -0.163685    2.834781
     11          6           0       -1.224359    0.093820    4.749621
     12          1           0       -2.156026    0.165161    2.818339
     13          6           0       -1.212206    0.094148   -4.720832
     14          6           0        1.212540   -0.093504   -4.723229
     15          6           0       -0.016730    0.001328    5.462716
     16          1           0        2.141976   -0.164028    5.293124
     17          1           0       -2.152544    0.164922    5.308451
     18          6           0       -1.208084    0.093966   -6.114528
     19          1           0       -2.146737    0.166403   -4.172247
     20          6           0        1.205451   -0.092816   -6.116946
     21          1           0        2.148200   -0.165976   -4.176572
     22          8           0       -0.131772    0.010155    6.820896
     23          6           0       -0.002002    0.000701   -6.817873
     24          1           0       -2.148904    0.166822   -6.654046
     25          1           0        2.145159   -0.165494   -6.658446
     26          6           0        1.050732   -0.080371    7.608875
     27          1           0       -0.003045    0.000890   -7.904694
     28          1           0        1.721324    0.768240    7.419074
     29          1           0        0.716305   -0.054722    8.647253
     30          1           0        1.584280   -1.021216    7.419142
 ---------------------------------------------------------------------
                    Distance matrix (angstroms):
                    1          2          3          4          5
     1  C    0.000000
     2  C    1.222913   0.000000
     3  C    1.360343   2.583256   0.000000
     4  C    2.642957   1.420049   4.003299   0.000000
     5  C    2.582926   3.805839   1.222584   5.225883   0.000000
     6  C    3.578212   2.460374   4.881122   1.407603   6.073414
     7  C    3.579151   2.465559   4.879892   1.415074   6.071445
     8  C    4.004966   5.227879   2.644623   6.647921   1.422041
     9  C    4.915311   3.741402   6.243197   2.442125   7.446451
    10  H    3.553850   2.681788   4.710731   2.157307   5.825577
    11  C    4.905788   3.734371   6.232225   2.435694   7.434967
    12  H    3.552289   2.687212   4.705218   2.164031   5.818722
    13  C    4.874891   6.066829   3.573836   7.462603   2.460392
    14  C    4.877283   6.069234   3.575877   7.466784   2.460756
    15  C    5.462742   4.239836   6.823081   2.819787   8.045664
    16  H    5.712454   4.602345   6.991540   3.414929   8.163274
    17  H    5.730645   4.620851   7.009666   3.426676   8.181846
    18  C    6.233438   7.436823   4.906290   8.840171   3.734311
    19  H    4.695084   5.808952   3.541883   7.145610   2.677727
    20  C    6.235283   7.438767   4.907739   8.843682   3.734498
    21  H    4.699581   5.813497   3.545631   7.153436   2.678416
    22  O    6.822176   5.599542   8.182313   4.179865   9.404777
    23  C    6.817874   8.040787   5.457531   9.460826   4.234950
    24  H    6.994423   8.166523   5.715844   9.542348   4.607359
    25  H    6.997428   8.169756   5.718132   9.548219   4.607696
    26  C    7.681502   6.472326   9.030858   5.077634  10.245942
    27  H    7.904695   9.127608   6.544352  10.547646   5.321771
    28  H    7.654790   6.476539   8.979406   5.136389  10.177755
    29  H    8.677043   7.459015  10.033315   6.047772  11.253013
    30  H    7.654834   6.476579   8.979461   5.136426  10.177827
                    6          7          8          9         10
     6  C    0.000000
     7  C    2.422320   0.000000
     8  C    7.472975   7.469581   0.000000
     9  C    1.395046   2.800679   8.853036   0.000000
    10  H    1.086053   3.407855   7.167447   2.149264   0.000000
    11  C    2.791078   1.385999   8.840406   2.428840   3.877130
    12  H    3.406594   1.085937   7.157999   3.886616   4.305705
    13  C    8.444813   8.084465   1.411692   9.790168   8.268702
    14  C    8.094572   8.446766   1.411665   9.489611   7.614670
    15  C    2.419135   2.421095   9.467699   1.402672   3.401784
    16  H    2.143421   3.884567   9.542837   1.084003   2.458348
    17  H    3.876609   2.158171   9.560550   3.403138   4.962643
    18  C    9.787409   9.478165   2.433238  11.145152   9.557541
    19  H    8.254879   7.593038   2.160527   9.547159   8.219393
    20  C    9.488276   9.787604   2.433125  10.883319   9.000354
    21  H    7.608140   8.262231   2.160563   8.993658   7.011363
    22  O    3.697528   3.625346  10.826679   2.449072   4.589878
    23  C   10.259749  10.254478   2.812909  11.646528   9.888195
    24  H   10.571675  10.060950   3.415695  11.903361  10.417134
    25  H   10.074894  10.575022   3.415601  11.464303   9.493231
    26  C    4.240039   4.817366  11.661474   2.846305   4.896840
    27  H   11.339922  11.334190   3.899730  12.728131  10.951873
    28  H    4.171324   5.054838  11.578363   2.837405   4.696496
    29  H    5.297779   5.629085  12.672549   3.910755   5.984587
    30  H    4.171353   5.054874  11.578458   2.837424   4.696520
                   11         12         13         14         15
    11  C    0.000000
    12  H    2.145447   0.000000
    13  C    9.470461   7.598351   0.000000
    14  C    9.783070   8.263740   2.431998   0.000000
    15  C    1.405500   3.405314  10.253899  10.260292   0.000000
    16  H    3.419663   4.970488  10.563925  10.059630   2.171661
    17  H    1.085759   2.490114  10.073518  10.584195   2.147618
    18  C   10.864162   8.983306   1.393702   2.798264  11.638750
    19  H    8.969714   6.990592   1.086055   3.414071   9.868976
    20  C   11.136476   9.550152   2.798062   1.393735  11.644362
    21  H    9.545605   8.219780   3.414119   1.086068   9.880830
    22  O    2.343273   4.487994  11.592492  11.622596   1.363071
    23  C   11.632272   9.875396   2.422996   2.423122  12.280599
    24  H   11.441317   9.472388   2.149419   3.885246  12.304044
    25  H   11.898105  10.412443   3.885056   2.149424  12.313577
    26  C    3.658103   5.769993  12.536866  12.333172   2.398363
    27  H   12.713455  10.938270   3.407014   3.407092  13.367418
    28  H    4.032105   6.046843  12.507490  12.183472   2.726962
    29  H    4.356579   6.501913  13.507295  13.379744   3.268296
    30  H    4.032133   6.046881  12.507731  12.183432   2.726981
                   16         17         18         19         20
    16  H    0.000000
    17  H    4.307127   0.000000
    18  C   11.892182  11.462176   0.000000
    19  H   10.396898   9.480699   2.158419   0.000000
    20  C   11.448662  11.911434   2.420752   3.884097   0.000000
    21  H    9.469699  10.419767   3.884312   4.307781   2.158513
    22  O    2.744878   2.528827  12.980395  11.177374  13.007172
    23  C   12.300408  12.316637   1.399295   3.409793   1.399280
    24  H   12.698661  11.962497   1.086983   2.481800   3.406991
    25  H   11.951571  12.719514   3.406964   4.971088   1.086994
    26  C    2.561350   3.951341  13.909149  12.209813  13.726699
    27  H   13.372013  13.387847   2.159971   4.307432   2.159927
    28  H    2.359181   4.452592  13.863422  12.234493  13.573187
    29  H    3.646185   4.407510  14.887430  13.137179  14.772349
    30  H    2.359183   4.452616  13.863663  12.234836  13.573176
                   21         22         23         24         25
    21  H    0.000000
    22  O   11.232702   0.000000
    23  C    3.409929  13.639390   0.000000
    24  H    4.971291  13.625983   2.159543   0.000000
    25  H    2.481875  13.671427   2.159477   4.306906   0.000000
    26  C   11.836745   1.423875  14.465334  14.619497  14.309488
    27  H    4.307504  14.726155   1.086821   2.489251   2.489096
    28  H   11.641048   2.089611  14.361394  14.607980  14.114817
    29  H   12.903999   2.014702  15.481898  15.568823  15.372648
    30  H   11.640877   2.089607  14.361518  14.608310  14.114720
                   26         27         28         29         30
    26  C    0.000000
    27  H   15.549530   0.000000
    28  H    1.098116  15.439564   0.000000
    29  H    1.091205  16.567665   1.787667   0.000000
    30  H    1.098118  15.439697   1.794696   1.787666   0.000000
 Symmetry turned off by external request.
 Stoichiometry    C17H12O
 Framework group  C1[X(C17H12O)]
 Deg. of freedom    84
 Full point group                 C1      NOp   1
 Rotational constants (GHZ):           2.5650035           0.0932096           0.0899932
 Standard basis: 6-31+G(d) (6D, 7F)
   366 basis functions,   624 primitive gaussians,   366 cartesian basis functions
    61 alpha electrons       61 beta electrons
       nuclear repulsion energy       987.2725569474 Hartrees.
 NAtoms=   30 NActive=   30 NUniq=   30 SFac= 1.00D+00 NAtFMM=   60 NAOKFM=F Big=F
 Integral buffers will be    131072 words long.
 Raffenetti 2 integral format.
 Two-electron integral symmetry is turned off.
 Nuclear repulsion after empirical dispersion term =      987.2531330677 Hartrees.
 One-electron integrals computed using PRISM.
 NBasis=   366 RedAO= T EigKep=  1.56D-06  NBF=   366
 NBsUse=   360 1.00D-06 EigRej=  6.37D-07 NBFU=   360
 ExpMin= 4.38D-02 ExpMax= 5.48D+03 ExpMxC= 8.25D+02 IAcc=3 IRadAn=         5 AccDes= 0.00D+00
 Harris functional with IExCor=  402 and IRadAn=       5 diagonalized for initial guess.
 HarFok:  IExCor=  402 AccDes= 0.00D+00 IRadAn=         5 IDoV= 1 UseB2=F ITyADJ=14
 ICtDFT=  3500011 ScaDFX=  1.000000  1.000000  1.000000  1.000000
 FoFCou: FMM=F IPFlag=           0 FMFlag=      100000 FMFlg1=           0
         NFxFlg=           0 DoJE=T BraDBF=F KetDBF=T FulRan=T
         wScrn=  0.000000 ICntrl=       500 IOpCl=  0 I1Cent=   200000004 NGrid=           0
         NMat0=    1 NMatS0=      1 NMatT0=    0 NMatD0=    1 NMtDS0=    0 NMtDT0=    0
 Symmetry not used in FoFCou.
 Requested convergence on RMS density matrix=1.00D-08 within 128 cycles.
 Requested convergence on MAX density matrix=1.00D-06.
 Requested convergence on             energy=1.00D-06.
 No special actions if energy rises.
 SCF Done:  E(RB3LYP) =  -730.191602718     A.U. after   15 cycles
            NFock= 15  Conv=0.60D-08     -V/T= 2.0098

 **********************************************************************

            Population analysis using the SCF Density.

 **********************************************************************

 Alpha  occ. eigenvalues --  -19.20042 -10.26813 -10.25522 -10.22731 -10.22307
 Alpha  occ. eigenvalues --  -10.21259 -10.21071 -10.21025 -10.20863 -10.20725
 Alpha  occ. eigenvalues --  -10.20699 -10.20695 -10.20642 -10.20589 -10.20551
 Alpha  occ. eigenvalues --  -10.20476 -10.20457 -10.20248  -1.08334  -0.87321
 Alpha  occ. eigenvalues --   -0.87124  -0.80734  -0.79154  -0.76925  -0.76379
 Alpha  occ. eigenvalues --   -0.75865  -0.73275  -0.70823  -0.64622  -0.62895
 Alpha  occ. eigenvalues --   -0.61923  -0.61748  -0.58806  -0.55336  -0.54171
 Alpha  occ. eigenvalues --   -0.52271  -0.49979  -0.48992  -0.48391  -0.46504
 Alpha  occ. eigenvalues --   -0.46226  -0.44481  -0.44039  -0.43360  -0.43263
 Alpha  occ. eigenvalues --   -0.40475  -0.39935  -0.38946  -0.37945  -0.36947
 Alpha  occ. eigenvalues --   -0.36152  -0.36135  -0.34536  -0.33781  -0.33562
 Alpha  occ. eigenvalues --   -0.29473  -0.26996  -0.26516  -0.25272  -0.24713
 Alpha  occ. eigenvalues --   -0.20724
 Alpha virt. eigenvalues --   -0.06541  -0.02370  -0.02006  -0.01928  -0.01668
 Alpha virt. eigenvalues --   -0.00177   0.00438   0.01543   0.01993   0.02500
 Alpha virt. eigenvalues --    0.02940   0.03374   0.03742   0.04298   0.04775
 Alpha virt. eigenvalues --    0.04836   0.05474   0.05780   0.05994   0.06810
 Alpha virt. eigenvalues --    0.07092   0.07273   0.08535   0.08780   0.08893
 Alpha virt. eigenvalues --    0.08915   0.09169   0.09901   0.10292   0.10719
 Alpha virt. eigenvalues --    0.12051   0.12315   0.12596   0.13453   0.13602
 Alpha virt. eigenvalues --    0.14181   0.14224   0.14413   0.14755   0.14940
 Alpha virt. eigenvalues --    0.15149   0.15264   0.15406   0.15594   0.15758
 Alpha virt. eigenvalues --    0.16447   0.16481   0.17383   0.17867   0.18393
 Alpha virt. eigenvalues --    0.18605   0.18939   0.19122   0.20018   0.20798
 Alpha virt. eigenvalues --    0.20885   0.20969   0.21287   0.21596   0.22049
 Alpha virt. eigenvalues --    0.22725   0.23080   0.23093   0.23581   0.23640
 Alpha virt. eigenvalues --    0.24156   0.24418   0.24621   0.25056   0.25892
 Alpha virt. eigenvalues --    0.26284   0.26747   0.26914   0.27381   0.27572
 Alpha virt. eigenvalues --    0.27706   0.28649   0.29054   0.29560   0.29992
 Alpha virt. eigenvalues --    0.31160   0.31236   0.31673   0.31995   0.32789
 Alpha virt. eigenvalues --    0.33608   0.34410   0.34685   0.35219   0.35335
 Alpha virt. eigenvalues --    0.36392   0.36444   0.37265   0.38369   0.38928
 Alpha virt. eigenvalues --    0.42993   0.43617   0.45034   0.45822   0.48959
 Alpha virt. eigenvalues --    0.51959   0.56088   0.56569   0.59190   0.60114
 Alpha virt. eigenvalues --    0.63683   0.64470   0.65580   0.66751   0.67282
 Alpha virt. eigenvalues --    0.68016   0.68043   0.68457   0.68733   0.70126
 Alpha virt. eigenvalues --    0.71090   0.71336   0.71580   0.71747   0.72077
 Alpha virt. eigenvalues --    0.72711   0.73685   0.74033   0.74088   0.74905
 Alpha virt. eigenvalues --    0.75269   0.75814   0.76411   0.77285   0.77758
 Alpha virt. eigenvalues --    0.78970   0.79520   0.81029   0.81581   0.82177
 Alpha virt. eigenvalues --    0.82816   0.84659   0.85129   0.87217   0.88187
 Alpha virt. eigenvalues --    0.89116   0.90279   0.90987   0.92035   0.92376
 Alpha virt. eigenvalues --    0.93169   0.94028   0.95680   0.96239   0.97259
 Alpha virt. eigenvalues --    0.97579   0.98450   0.99948   1.00217   1.01874
 Alpha virt. eigenvalues --    1.03038   1.05566   1.08220   1.08907   1.10508
 Alpha virt. eigenvalues --    1.11248   1.11937   1.14163   1.14625   1.15583
 Alpha virt. eigenvalues --    1.17582   1.19011   1.19999   1.20605   1.21830
 Alpha virt. eigenvalues --    1.22110   1.22805   1.23091   1.23659   1.24859
 Alpha virt. eigenvalues --    1.25222   1.28381   1.28944   1.29791   1.31144
 Alpha virt. eigenvalues --    1.32051   1.32591   1.36334   1.38477   1.41892
 Alpha virt. eigenvalues --    1.42568   1.42941   1.43244   1.44784   1.44849
 Alpha virt. eigenvalues --    1.45105   1.47184   1.48165   1.48925   1.49493
 Alpha virt. eigenvalues --    1.49734   1.49873   1.50255   1.53135   1.54001
 Alpha virt. eigenvalues --    1.59148   1.61292   1.61962   1.63224   1.66936
 Alpha virt. eigenvalues --    1.71438   1.80020   1.80444   1.83885   1.83963
 Alpha virt. eigenvalues --    1.85957   1.87144   1.87958   1.87985   1.88125
 Alpha virt. eigenvalues --    1.90474   1.91892   1.94018   1.95361   1.96244
 Alpha virt. eigenvalues --    1.98467   1.98779   1.99335   2.00478   2.01395
 Alpha virt. eigenvalues --    2.02525   2.07094   2.07615   2.09040   2.10559
 Alpha virt. eigenvalues --    2.11344   2.11638   2.14260   2.15195   2.15904
 Alpha virt. eigenvalues --    2.16298   2.18296   2.19614   2.19946   2.22143
 Alpha virt. eigenvalues --    2.25404   2.28163   2.29121   2.29974   2.30085
 Alpha virt. eigenvalues --    2.31745   2.34857   2.35966   2.36663   2.40021
 Alpha virt. eigenvalues --    2.49791   2.52639   2.52702   2.57142   2.57725
 Alpha virt. eigenvalues --    2.60697   2.61353   2.63268   2.64423   2.64662
 Alpha virt. eigenvalues --    2.65505   2.67717   2.72760   2.74286   2.74408
 Alpha virt. eigenvalues --    2.75797   2.78594   2.80990   2.84396   2.85542
 Alpha virt. eigenvalues --    2.91460   3.01734   3.03928   3.07466   3.16463
 Alpha virt. eigenvalues --    3.18051   3.30707   3.33680   3.39650   3.48787
 Alpha virt. eigenvalues --    3.72518   4.18918   4.23178   4.24169   4.24461
 Alpha virt. eigenvalues --    4.25136   4.26586   4.27553   4.34106   4.37339
 Alpha virt. eigenvalues --    4.38631   4.40494   4.43176   4.50450   4.57495
 Alpha virt. eigenvalues --    4.66592   4.79918   4.88695   5.58569
          Condensed to atoms (all electrons):
               1          2          3          4          5          6
     1  C    9.594987  -0.727387  -2.129408  -0.219288  -1.251744   0.074410
     2  C   -0.727387  10.212411  -1.682627  -0.550637   0.217209  -1.039051
     3  C   -2.129408  -1.682627   9.933942   0.331525  -1.776666  -0.467096
     4  C   -0.219288  -0.550637   0.331525   8.077895  -0.364234   0.195256
     5  C   -1.251744   0.217209  -1.776666  -0.364234  11.682884   0.060830
     6  C    0.074410  -1.039051  -0.467096   0.195256   0.060830  16.989502
     7  C   -0.020698   1.154360   0.113418  -1.401033   0.067735  -5.310128
     8  C    0.036089  -0.301827   0.775722   0.101833  -2.603617  -0.048962
     9  C   -0.213356   0.504429   0.220541  -0.523283  -0.036060  -4.760366
    10  H   -0.008040   0.039180   0.001664  -0.027599   0.000296   0.334561
    11  C    0.081166  -0.630087  -0.043486   1.113663  -0.016716   0.371903
    12  H   -0.007462   0.024667  -0.000075  -0.035724   0.000257   0.024832
    13  C   -0.377266  -0.007591  -0.317328  -0.073110   0.024354  -0.022234
    14  C    0.101987   0.161487  -0.161450   0.022559   2.373019   0.028237
    15  C   -0.147623  -0.183731   0.032139  -0.625626  -0.014046   0.196626
    16  H    0.002058  -0.009687  -0.000239   0.037186   0.000015   0.018547
    17  H    0.001345  -0.004714  -0.000072   0.024140   0.000009  -0.006409
    18  C    0.144894  -0.012967   0.008243   0.016644  -0.043165   0.003033
    19  H   -0.000756   0.000517   0.000313  -0.000020   0.019311   0.000001
    20  C    0.019225  -0.051472  -0.041812  -0.000549  -0.837601  -0.005014
    21  H    0.000378   0.000361  -0.004625  -0.000043   0.031702   0.000007
    22  O    0.000053   0.000427  -0.000057  -0.036214   0.000017  -0.008562
    23  C   -0.032350   0.005211   0.075389  -0.000914  -0.247257   0.000034
    24  H   -0.000094   0.000000  -0.000012  -0.000001  -0.005831   0.000000
    25  H   -0.000085   0.000003   0.000090   0.000000  -0.005724   0.000000
    26  C   -0.007025   0.011539   0.001241  -0.053004  -0.000195   0.068957
    27  H   -0.000035   0.000002   0.000391   0.000000  -0.000867   0.000000
    28  H   -0.000001  -0.000086  -0.000002  -0.001612   0.000000   0.042801
    29  H    0.000005  -0.000003   0.000000   0.000789   0.000000  -0.019941
    30  H   -0.000001  -0.000086  -0.000002  -0.001613   0.000000   0.042829
               7          8          9         10         11         12
     1  C   -0.020698   0.036089  -0.213356  -0.008040   0.081166  -0.007462
     2  C    1.154360  -0.301827   0.504429   0.039180  -0.630087   0.024667
     3  C    0.113418   0.775722   0.220541   0.001664  -0.043486  -0.000075
     4  C   -1.401033   0.101833  -0.523283  -0.027599   1.113663  -0.035724
     5  C    0.067735  -2.603617  -0.036060   0.000296  -0.016716   0.000257
     6  C   -5.310128  -0.048962  -4.760366   0.334561   0.371903   0.024832
     7  C   12.686157   0.004292   1.767871   0.019068  -2.186013   0.370331
     8  C    0.004292  11.578026   0.016970  -0.000008  -0.000085  -0.000040
     9  C    1.767871   0.016970  10.752081  -0.064030  -2.674204  -0.016211
    10  H    0.019068  -0.000008  -0.064030   0.521108  -0.011561  -0.000153
    11  C   -2.186013  -0.000085  -2.674204  -0.011561  10.742226  -0.092701
    12  H    0.370331  -0.000040  -0.016211  -0.000153  -0.092701   0.519787
    13  C    0.024161  -1.284427   0.005418  -0.000004  -0.004230   0.000011
    14  C   -0.020328  -4.800084  -0.007704   0.000012   0.003183  -0.000003
    15  C   -0.731157   0.000987  -0.063434   0.002295  -0.396991   0.018185
    16  H    0.003741  -0.000001   0.246369  -0.004649   0.012634   0.000016
    17  H   -0.099522   0.000000   0.027054   0.000014   0.351981  -0.004361
    18  C   -0.003888   0.492741  -0.000667   0.000000   0.000695  -0.000001
    19  H   -0.000001  -0.015276  -0.000001   0.000000   0.000000   0.000000
    20  C    0.003360   1.679984   0.001282  -0.000001  -0.000478   0.000000
    21  H   -0.000003  -0.032951  -0.000001   0.000000   0.000000   0.000000
    22  O    0.001616   0.000000   0.173783  -0.000588  -0.586526  -0.000496
    23  C   -0.000071   0.193366  -0.000005   0.000000   0.000009   0.000000
    24  H    0.000000  -0.000266   0.000000   0.000000   0.000000   0.000000
    25  H    0.000000   0.000308   0.000000   0.000000   0.000000   0.000000
    26  C   -0.004599   0.000014  -0.088129   0.000793   0.025906   0.000261
    27  H    0.000000   0.001502   0.000000   0.000000   0.000000   0.000000
    28  H   -0.000814   0.000000   0.048075   0.000003  -0.022554   0.000000
    29  H    0.002835   0.000000  -0.066781   0.000000   0.042706   0.000000
    30  H   -0.000817   0.000000   0.048067   0.000003  -0.022548   0.000000
              13         14         15         16         17         18
     1  C   -0.377266   0.101987  -0.147623   0.002058   0.001345   0.144894
     2  C   -0.007591   0.161487  -0.183731  -0.009687  -0.004714  -0.012967
     3  C   -0.317328  -0.161450   0.032139  -0.000239  -0.000072   0.008243
     4  C   -0.073110   0.022559  -0.625626   0.037186   0.024140   0.016644
     5  C    0.024354   2.373019  -0.014046   0.000015   0.000009  -0.043165
     6  C   -0.022234   0.028237   0.196626   0.018547  -0.006409   0.003033
     7  C    0.024161  -0.020328  -0.731157   0.003741  -0.099522  -0.003888
     8  C   -1.284427  -4.800084   0.000987  -0.000001   0.000000   0.492741
     9  C    0.005418  -0.007704  -0.063434   0.246369   0.027054  -0.000667
    10  H   -0.000004   0.000012   0.002295  -0.004649   0.000014   0.000000
    11  C   -0.004230   0.003183  -0.396991   0.012634   0.351981   0.000695
    12  H    0.000011  -0.000003   0.018185   0.000016  -0.004361  -0.000001
    13  C   24.249961 -13.950402  -0.000412   0.000000   0.000000  -6.132484
    14  C  -13.950402  26.344663   0.000183   0.000000   0.000000   3.868159
    15  C   -0.000412   0.000183   7.821664  -0.007209   0.006784   0.000075
    16  H    0.000000   0.000000  -0.007209   0.538153  -0.000146   0.000000
    17  H    0.000000   0.000000   0.006784  -0.000146   0.516833   0.000000
    18  C   -6.132484   3.868159   0.000075   0.000000   0.000000   8.358704
    19  H    0.313489   0.028213   0.000000   0.000000   0.000000  -0.063553
    20  C    4.421233  -7.617422   0.000006   0.000000   0.000000  -1.535615
    21  H    0.020748   0.336784   0.000000   0.000000   0.000000  -0.006500
    22  O    0.000000   0.000000   0.436300  -0.012921  -0.006577   0.000000
    23  C   -0.467761  -0.244229  -0.000007   0.000000   0.000000   0.591413
    24  H   -0.030375   0.001618   0.000000   0.000000   0.000000   0.298839
    25  H    0.002377  -0.032625   0.000000   0.000000   0.000000   0.002370
    26  C    0.000000  -0.000001  -0.158412  -0.003083  -0.001985   0.000000
    27  H    0.009439   0.016520   0.000000   0.000000   0.000000  -0.006389
    28  H    0.000000   0.000000  -0.081042  -0.000743   0.000005   0.000000
    29  H    0.000000   0.000000   0.054609   0.000146  -0.000013   0.000000
    30  H    0.000000   0.000000  -0.081050  -0.000743   0.000005   0.000000
              19         20         21         22         23         24
     1  C   -0.000756   0.019225   0.000378   0.000053  -0.032350  -0.000094
     2  C    0.000517  -0.051472   0.000361   0.000427   0.005211   0.000000
     3  C    0.000313  -0.041812  -0.004625  -0.000057   0.075389  -0.000012
     4  C   -0.000020  -0.000549  -0.000043  -0.036214  -0.000914  -0.000001
     5  C    0.019311  -0.837601   0.031702   0.000017  -0.247257  -0.005831
     6  C    0.000001  -0.005014   0.000007  -0.008562   0.000034   0.000000
     7  C   -0.000001   0.003360  -0.000003   0.001616  -0.000071   0.000000
     8  C   -0.015276   1.679984  -0.032951   0.000000   0.193366  -0.000266
     9  C   -0.000001   0.001282  -0.000001   0.173783  -0.000005   0.000000
    10  H    0.000000  -0.000001   0.000000  -0.000588   0.000000   0.000000
    11  C    0.000000  -0.000478   0.000000  -0.586526   0.000009   0.000000
    12  H    0.000000   0.000000   0.000000  -0.000496   0.000000   0.000000
    13  C    0.313489   4.421233   0.020748   0.000000  -0.467761  -0.030375
    14  C    0.028213  -7.617422   0.336784   0.000000  -0.244229   0.001618
    15  C    0.000000   0.000006   0.000000   0.436300  -0.000007   0.000000
    16  H    0.000000   0.000000   0.000000  -0.012921   0.000000   0.000000
    17  H    0.000000   0.000000   0.000000  -0.006577   0.000000   0.000000
    18  C   -0.063553  -1.535615  -0.006500   0.000000   0.591413   0.298839
    19  H    0.525779  -0.008055  -0.000141   0.000000   0.009277  -0.004549
    20  C   -0.008055   9.201211  -0.071845   0.000000   0.520671   0.002856
    21  H   -0.000141  -0.071845   0.525968   0.000000   0.009026   0.000016
    22  O    0.000000   0.000000   0.000000   8.459756   0.000000   0.000000
    23  C    0.009277   0.520671   0.009026   0.000000   5.452302   0.026135
    24  H   -0.004549   0.002856   0.000016   0.000000   0.026135   0.533240
    25  H    0.000016   0.299507  -0.004552   0.000000   0.026621  -0.000159
    26  C    0.000000   0.000000   0.000000   0.086591   0.000000   0.000000
    27  H   -0.000140  -0.009868  -0.000140   0.000000   0.281475  -0.004660
    28  H    0.000000   0.000000   0.000000  -0.035455   0.000000   0.000000
    29  H    0.000000   0.000000   0.000000  -0.062335   0.000000   0.000000
    30  H    0.000000   0.000000   0.000000  -0.035453   0.000000   0.000000
              25         26         27         28         29         30
     1  C   -0.000085  -0.007025  -0.000035  -0.000001   0.000005  -0.000001
     2  C    0.000003   0.011539   0.000002  -0.000086  -0.000003  -0.000086
     3  C    0.000090   0.001241   0.000391  -0.000002   0.000000  -0.000002
     4  C    0.000000  -0.053004   0.000000  -0.001612   0.000789  -0.001613
     5  C   -0.005724  -0.000195  -0.000867   0.000000   0.000000   0.000000
     6  C    0.000000   0.068957   0.000000   0.042801  -0.019941   0.042829
     7  C    0.000000  -0.004599   0.000000  -0.000814   0.002835  -0.000817
     8  C    0.000308   0.000014   0.001502   0.000000   0.000000   0.000000
     9  C    0.000000  -0.088129   0.000000   0.048075  -0.066781   0.048067
    10  H    0.000000   0.000793   0.000000   0.000003   0.000000   0.000003
    11  C    0.000000   0.025906   0.000000  -0.022554   0.042706  -0.022548
    12  H    0.000000   0.000261   0.000000   0.000000   0.000000   0.000000
    13  C    0.002377   0.000000   0.009439   0.000000   0.000000   0.000000
    14  C   -0.032625  -0.000001   0.016520   0.000000   0.000000   0.000000
    15  C    0.000000  -0.158412   0.000000  -0.081042   0.054609  -0.081050
    16  H    0.000000  -0.003083   0.000000  -0.000743   0.000146  -0.000743
    17  H    0.000000  -0.001985   0.000000   0.000005  -0.000013   0.000005
    18  C    0.002370   0.000000  -0.006389   0.000000   0.000000   0.000000
    19  H    0.000016   0.000000  -0.000140   0.000000   0.000000   0.000000
    20  C    0.299507   0.000000  -0.009868   0.000000   0.000000   0.000000
    21  H   -0.004552   0.000000  -0.000140   0.000000   0.000000   0.000000
    22  O    0.000000   0.086591   0.000000  -0.035455  -0.062335  -0.035453
    23  C    0.026621   0.000000   0.281475   0.000000   0.000000   0.000000
    24  H   -0.000159   0.000000  -0.004660   0.000000   0.000000   0.000000
    25  H    0.533429   0.000000  -0.004662   0.000000   0.000000   0.000000
    26  C    0.000000   5.279754   0.000000   0.387490   0.396634   0.387476
    27  H   -0.004662   0.000000   0.535787   0.000000   0.000000   0.000000
    28  H    0.000000   0.387490   0.000000   0.531533  -0.028383  -0.045267
    29  H    0.000000   0.396634   0.000000  -0.028383   0.496346  -0.028384
    30  H    0.000000   0.387476   0.000000  -0.045267  -0.028384   0.531534
 Mulliken charges:
               1
     1  C    1.086024
     2  C   -1.129852
     3  C    1.130337
     4  C   -0.006987
     5  C   -1.273915
     6  C   -0.764601
     7  C   -0.439877
     8  C    0.205711
     9  C    0.702292
    10  H    0.197635
    11  C   -0.057895
    12  H    0.198881
    13  C   -0.403566
    14  C   -0.452378
    15  C   -0.079116
    16  H    0.180554
    17  H    0.195629
    18  C    0.019418
    19  H    0.195576
    20  C    0.030395
    21  H    0.195808
    22  O   -0.373357
    23  C   -0.198334
    24  H    0.183243
    25  H    0.183085
    26  C   -0.330226
    27  H    0.181644
    28  H    0.206051
    29  H    0.211770
    30  H    0.206050
 Sum of Mulliken charges =   0.00000
 Mulliken charges with hydrogens summed into heavy atoms:
               1
     1  C    1.086024
     2  C   -1.129852
     3  C    1.130337
     4  C   -0.006987
     5  C   -1.273915
     6  C   -0.566966
     7  C   -0.240996
     8  C    0.205711
     9  C    0.882846
    11  C    0.137735
    13  C   -0.207990
    14  C   -0.256569
    15  C   -0.079116
    18  C    0.202661
    20  C    0.213480
    22  O   -0.373357
    23  C   -0.016690
    26  C    0.293645
 Electronic spatial extent (au):  <R**2>=          11147.4883
 Charge=              0.0000 electrons
 Dipole moment (field-independent basis, Debye):
    X=              1.3148    Y=             -0.1005    Z=              1.4769  Tot=              1.9799
 Quadrupole moment (field-independent basis, Debye-Ang):
   XX=            -93.8361   YY=           -111.7891   ZZ=            -66.0837
   XY=             -1.3904   XZ=             10.5190   YZ=             -0.8066
 Traceless Quadrupole moment (field-independent basis, Debye-Ang):
   XX=             -3.2665   YY=            -21.2195   ZZ=             24.4859
   XY=             -1.3904   XZ=             10.5190   YZ=             -0.8066
 Octapole moment (field-independent basis, Debye-Ang**2):
  XXX=            -21.7996  YYY=              1.4683  ZZZ=            -11.2376  XYY=             -6.6471
  XXY=              0.6378  XXZ=            -23.1589  XZZ=             73.2382  YZZ=             -5.6072
  YYZ=            -15.5326  XYZ=              0.6266
 Hexadecapole moment (field-independent basis, Debye-Ang**3):
 XXXX=           -641.9883 YYYY=           -146.2841 ZZZZ=         -11935.3602 XXXY=             14.1265
 XXXZ=           -169.2236 YYYX=             24.2388 YYYZ=             12.3399 ZZZX=            440.8895
 ZZZY=            -33.6366 XXYY=           -152.6152 XXZZ=          -2279.6832 YYZZ=          -2645.3572
 XXYZ=              4.9625 YYXZ=            -52.6883 ZZXY=            -28.3589
 N-N= 9.872531330677D+02 E-N=-3.666577849739D+03  KE= 7.230736107320D+02
 Evaluate density.
 Using the total density.
 Monte-Carlo method of calculating molar volume:
 based on  0.001 e/bohr**3 density envelope.
 Number of points per bohr**3 =   20 CutOff= 1.00D-04
 Using the SCF density.
 There are       423 points.  Will hold       423 in memory.
 LenV=  4026241008 MDV=  4026531840.
 Box volume = 9503.930 fraction occupied=0.184
 Integrated density= 6.5309068543356219D+01 error=-5.6690931456643781D+01
 Molar volume = 1752.498 bohr**3/mol (156.391 cm**3/mol)
 Recommended a0 for SCRF calculation =  4.86 angstrom (  9.18 bohr)
 Calling FoFJK, ICntrl=      2127 FMM=F ISym2X=0 I1Cent= 0 IOpClX= 0 NMat=1 NMatS=1 NMatT=0.
 -------------------------------------------------------------------
 Center     Atomic                   Forces (Hartrees/Bohr)
 Number     Number              X              Y              Z
 -------------------------------------------------------------------
      1        6          -0.000014391   -0.000000229   -0.000002668
      2        6           0.000015511   -0.000000958   -0.000000522
      3        6           0.000013993    0.000001985    0.000002593
      4        6          -0.000013401    0.000000730    0.000023343
      5        6          -0.000013783    0.000001571    0.000002552
      6        6           0.000034928   -0.000006582   -0.000038420
      7        6           0.000014172    0.000002048   -0.000025533
      8        6           0.000005673   -0.000003720   -0.000025108
      9        6          -0.000000692   -0.000004463    0.000021430
     10        1          -0.000001514   -0.000000137    0.000000710
     11        6          -0.000033997    0.000006679    0.000028401
     12        1           0.000005321    0.000000004    0.000006626
     13        6          -0.000032039    0.000004947    0.000032610
     14        6          -0.000005028   -0.000001323    0.000020474
     15        6           0.000006158   -0.000003796    0.000061422
     16        1           0.000006625    0.000001889   -0.000058349
     17        1           0.000001603    0.000000497   -0.000005972
     18        6           0.000006784    0.000002906   -0.000025384
     19        1           0.000002711    0.000000535   -0.000000911
     20        6           0.000029174   -0.000005628   -0.000020419
     21        1          -0.000005594    0.000000250   -0.000006225
     22        8           0.000015092   -0.000000240   -0.000018287
     23        6          -0.000002985    0.000000013    0.000005750
     24        1           0.000002216    0.000000266    0.000003324
     25        1          -0.000001140   -0.000000038    0.000004614
     26        6          -0.000074224    0.000002696   -0.000048642
     27        1          -0.000000778    0.000000007    0.000002759
     28        1           0.000019947    0.000010481    0.000029334
     29        1           0.000002537   -0.000000203   -0.000002092
     30        1           0.000017126   -0.000010185    0.000032588
 -------------------------------------------------------------------
 Cartesian Forces:  Max     0.000074224 RMS     0.000018781

 GradGradGradGradGradGradGradGradGradGradGradGradGradGradGradGradGradGrad
 Berny optimization.
 Search for a local minimum.
 Step number   1 out of a maximum of  100
 All quantities printed in internal units (Hartrees-Bohrs-Radians)
 Second derivative matrix not updated -- first step.
 ITU=  0
     Eigenvalues ---    0.00000   0.00031   0.00033   0.00155   0.00230
     Eigenvalues ---    0.00274   0.00533   0.00558   0.01117   0.01125
     Eigenvalues ---    0.01588   0.01627   0.02001   0.02614   0.02794
     Eigenvalues ---    0.03054   0.03410   0.03986   0.04979   0.06085
     Eigenvalues ---    0.06194   0.06850   0.06873   0.06931   0.07147
     Eigenvalues ---    0.07188   0.07826   0.08951   0.09496   0.09598
     Eigenvalues ---    0.10127   0.10195   0.10498   0.11358   0.12591
     Eigenvalues ---    0.12719   0.13159   0.13394   0.14544   0.15306
     Eigenvalues ---    0.16290   0.17479   0.20604   0.23360   0.24403
     Eigenvalues ---    0.28004   0.29538   0.29720   0.29971   0.30934
     Eigenvalues ---    0.34227   0.36812   0.38945   0.42124   0.42549
     Eigenvalues ---    0.44673   0.45194   0.48763   0.55468   0.58600
     Eigenvalues ---    0.58880   0.67551   0.68795   0.69759   0.76570
     Eigenvalues ---    0.89032   0.92229   0.97737   1.02784   1.06908
     Eigenvalues ---    1.11088   1.14690   1.21622   1.23396   1.26925
     Eigenvalues ---    1.38513   1.44847   1.45947   1.56367   1.57847
     Eigenvalues ---    1.58287   1.67989   2.21320   2.71228
 RFO step:  Lambda=-6.03626065D-07 EMin= 7.87526525D-07
 Linear search not attempted -- first point.
 Maximum step size (   0.300) exceeded in Quadratic search.
    -- Step size scaled by   0.693
 B after Tr=    -0.000102   -0.001780   -0.000079
         Rot=    1.000000   -0.000105    0.000003    0.000048 Ang=  -0.01 deg.
 Variable       Old X    -DE/DX   Delta X   Delta X   Delta X     New X
                                 (Linear)    (Quad)   (Total)
    X1        0.00000  -0.00001   0.00000  -0.00027  -0.00037  -0.00037
    Y1        0.00000   0.00000   0.00000  -0.00420  -0.00598  -0.00598
    Z1        0.00000   0.00000   0.00000  -0.00020  -0.00028  -0.00028
    X2        0.00000   0.00002   0.00000  -0.00004  -0.00015  -0.00015
    Y2        0.00000   0.00000   0.00000  -0.00575  -0.00802  -0.00802
    Z2        2.31097   0.00000   0.00000  -0.00019  -0.00027   2.31070
    X3        0.00086   0.00001   0.00000  -0.00047  -0.00055   0.00031
    Y3        0.00000   0.00000   0.00000  -0.00242  -0.00366  -0.00366
    Z3       -2.57068   0.00000   0.00000  -0.00020  -0.00028  -2.57096
    X4       -0.01023  -0.00001   0.00000   0.00003  -0.00010  -0.01033
    Y4        0.00081   0.00000   0.00000  -0.00746  -0.01028  -0.00947
    Z4        4.99446   0.00002   0.00000  -0.00018  -0.00026   4.99419
    X5        0.00356  -0.00001   0.00000  -0.00059  -0.00066   0.00290
    Y5       -0.00004   0.00000   0.00000  -0.00081  -0.00157  -0.00161
    Z5       -4.88102   0.00000   0.00000  -0.00021  -0.00029  -4.88131
    X6        2.25930   0.00003   0.00000   0.00332   0.00317   2.26247
    Y6       -0.17302  -0.00001   0.00000   0.03486   0.03152  -0.14149
    Z6        6.37088  -0.00004   0.00000  -0.00028  -0.00038   6.37050
    X7       -2.30483   0.00001   0.00000  -0.00328  -0.00340  -2.30824
    Y7        0.17659   0.00000   0.00000  -0.05147  -0.05436   0.12222
    Z7        6.35634  -0.00003   0.00000  -0.00013  -0.00019   6.35615
    X8        0.00167   0.00001   0.00000  -0.00041  -0.00047   0.00120
    Y8        0.00039   0.00000   0.00000   0.00106   0.00086   0.00125
    Z8       -7.56829  -0.00003   0.00000  -0.00022  -0.00030  -7.56859
    X9        2.26262   0.00000   0.00000   0.00325   0.00308   2.26571
    Y9       -0.17324   0.00000   0.00000   0.03359   0.02971  -0.14353
    Z9        9.00713   0.00002   0.00000  -0.00024  -0.00033   9.00680
   X10        4.03848   0.00000   0.00000   0.00591   0.00575   4.04423
   Y10       -0.30932   0.00000   0.00000   0.06897   0.06568  -0.24364
   Z10        5.35696   0.00000   0.00000  -0.00033  -0.00044   5.35652
   X11       -2.31370  -0.00003   0.00000  -0.00341  -0.00355  -2.31725
   Y11        0.17729   0.00001   0.00000  -0.05287  -0.05631   0.12099
   Z11        8.97548   0.00003   0.00000  -0.00012  -0.00018   8.97530
   X12       -4.07430   0.00001   0.00000  -0.00580  -0.00591  -4.08021
   Y12        0.31211   0.00000   0.00000  -0.08426  -0.08677   0.22534
   Z12        5.32589   0.00001   0.00000  -0.00008  -0.00013   5.32576
   X13       -2.29074  -0.00003   0.00000   0.00396   0.00392  -2.28681
   Y13        0.17791   0.00000   0.00000   0.05669   0.05699   0.23491
   Z13       -8.92108   0.00003   0.00000  -0.00034  -0.00039  -8.92147
   X14        2.29137  -0.00001   0.00000  -0.00444  -0.00452   2.28685
   Y14       -0.17670   0.00000   0.00000  -0.05262  -0.05275  -0.22945
   Z14       -8.92561   0.00002   0.00000  -0.00001  -0.00013  -8.92574
   X15       -0.03161   0.00001   0.00000  -0.00018  -0.00034  -0.03195
   Y15        0.00251   0.00000   0.00000  -0.01073  -0.01467  -0.01216
   Z15       10.32304   0.00006   0.00000  -0.00007  -0.00015  10.32289
   X16        4.04775   0.00001   0.00000   0.00604   0.00586   4.05360
   Y16       -0.30997   0.00000   0.00000   0.06704   0.06277  -0.24720
   Z16       10.00256  -0.00006   0.00000  -0.00074  -0.00085  10.00171
   X17       -4.06772   0.00000   0.00000  -0.00600  -0.00613  -4.07385
   Y17        0.31166   0.00000   0.00000  -0.08638  -0.08988   0.22178
   Z17       10.03152  -0.00001   0.00000  -0.00017  -0.00023  10.03129
   X18       -2.28295   0.00001   0.00000   0.00441   0.00439  -2.27855
   Y18        0.17757   0.00000   0.00000   0.05838   0.05924   0.23681
   Z18      -11.55478  -0.00003   0.00000  -0.00038  -0.00042 -11.55521
   X19       -4.05674   0.00000   0.00000   0.00708   0.00706  -4.04969
   Y19        0.31446   0.00000   0.00000   0.09811   0.09837   0.41282
   Z19       -7.88440   0.00000   0.00000  -0.00049  -0.00051  -7.88491
   X20        2.27797   0.00003   0.00000  -0.00396  -0.00402   2.27395
   Y20       -0.17540  -0.00001   0.00000  -0.05055  -0.05013  -0.22552
   Z20      -11.55935  -0.00002   0.00000  -0.00002  -0.00014 -11.55949
   X21        4.05951  -0.00001   0.00000  -0.00787  -0.00797   4.05154
   Y21       -0.31365   0.00000   0.00000  -0.09549  -0.09600  -0.40965
   Z21       -7.89258  -0.00001   0.00000   0.00014   0.00000  -7.89258
   X22       -0.24901   0.00002   0.00000  -0.00122  -0.00139  -0.25040
   Y22        0.01919   0.00000   0.00000  -0.01514  -0.01960  -0.00041
   Z22       12.88962  -0.00002   0.00000  -0.00014  -0.00022  12.88941
   X23       -0.00378   0.00000   0.00000   0.00041   0.00038  -0.00341
   Y23        0.00133   0.00000   0.00000   0.00486   0.00578   0.00711
   Z23      -12.88391   0.00001   0.00000  -0.00017  -0.00025 -12.88416
   X24       -4.06084   0.00000   0.00000   0.00785   0.00786  -4.05298
   Y24        0.31525   0.00000   0.00000   0.10146   0.10270   0.41795
   Z24      -12.57432   0.00000   0.00000  -0.00055  -0.00057 -12.57489
   X25        4.05376   0.00000   0.00000  -0.00707  -0.00715   4.04662
   Y25       -0.31274   0.00000   0.00000  -0.09214  -0.09167  -0.40441
   Z25      -12.58264   0.00000   0.00000   0.00017   0.00003 -12.58261
   X26        1.98559  -0.00007   0.00000   0.00095   0.00075   1.98635
   Y26       -0.15188   0.00000   0.00000   0.02734   0.02236  -0.12952
   Z26       14.37869  -0.00005   0.00000   0.00143   0.00134  14.38003
   X27       -0.00575   0.00000   0.00000   0.00068   0.00066  -0.00509
   Y27        0.00168   0.00000   0.00000   0.00634   0.00769   0.00937
   Z27      -14.93771   0.00000   0.00000  -0.00017  -0.00024 -14.93795
   X28        3.25283   0.00002   0.00000  -0.02921  -0.02924   3.22359
   Y28        1.45176   0.00001   0.00000   0.05154   0.04651   1.49827
   Z28       14.02002   0.00003   0.00000   0.00289   0.00314  14.02316
   X29        1.35362   0.00000   0.00000  -0.00164  -0.00184   1.35178
   Y29       -0.10341   0.00000   0.00000   0.01525   0.00992  -0.09349
   Z29       16.34094   0.00000   0.00000   0.00089   0.00080  16.34174
   X30        2.99385   0.00002   0.00000   0.03525   0.03489   3.02875
   Y30       -1.92982  -0.00001   0.00000   0.04654   0.04153  -1.88829
   Z30       14.02015   0.00003   0.00000   0.00257   0.00211  14.02226
         Item               Value     Threshold  Converged?
 Maximum Force            0.000074     0.000450     YES
 RMS     Force            0.000019     0.000300     YES
 Maximum Displacement     0.102701     0.001800     NO 
 RMS     Displacement     0.031577     0.001200     NO 
 Predicted change in Energy=-3.014001D-07
 GradGradGradGradGradGradGradGradGradGradGradGradGradGradGradGradGradGrad

                          Input orientation:                          
 ---------------------------------------------------------------------
 Center     Atomic      Atomic             Coordinates (Angstroms)
 Number     Number       Type             X           Y           Z
 ---------------------------------------------------------------------
      1          6           0       -0.000196   -0.003165   -0.000147
      2          6           0       -0.000082   -0.004243    1.222768
      3          6           0        0.000163   -0.001937   -1.360492
      4          6           0       -0.005468   -0.005010    2.642813
      5          6           0        0.001536   -0.000850   -2.583077
      6          6           0        1.197247   -0.074874    3.371124
      7          6           0       -1.221465    0.064677    3.363528
      8          6           0        0.000633    0.000662   -4.005124
      9          6           0        1.198960   -0.075954    4.766193
     10          1           0        2.140116   -0.128927    2.834550
     11          6           0       -1.226236    0.064024    4.749525
     12          1           0       -2.159155    0.119245    2.818270
     13          6           0       -1.210129    0.124308   -4.721036
     14          6           0        1.210149   -0.121419   -4.723298
     15          6           0       -0.016908   -0.006434    5.462637
     16          1           0        2.145075   -0.130811    5.292676
     17          1           0       -2.155790    0.117360    5.308330
     18          6           0       -1.205759    0.125316   -6.114751
     19          1           0       -2.143003    0.218456   -4.172515
     20          6           0        1.203322   -0.119342   -6.117019
     21          1           0        2.143981   -0.216777   -4.176573
     22          8           0       -0.132506   -0.000215    6.820782
     23          6           0       -0.001802    0.003762   -6.818006
     24          1           0       -2.144746    0.221169   -6.654346
     25          1           0        2.141378   -0.214005   -6.658430
     26          6           0        1.051131   -0.068540    7.609582
     27          1           0       -0.002694    0.004959   -7.904823
     28          1           0        1.705849    0.792852    7.420736
     29          1           0        0.715331   -0.049473    8.647676
     30          1           0        1.602744   -0.999240    7.420261
 ---------------------------------------------------------------------
                    Distance matrix (angstroms):
                    1          2          3          4          5
     1  C    0.000000
     2  C    1.222916   0.000000
     3  C    1.360345   2.583261   0.000000
     4  C    2.642966   1.420055   4.003310   0.000000
     5  C    2.582932   3.805847   1.222586   5.225896   0.000000
     6  C    3.578334   2.460491   4.881241   1.407779   6.073525
     7  C    3.579163   2.465640   4.879874   1.415251   6.071419
     8  C    4.004979   5.227895   2.644634   6.647942   1.422048
     9  C    4.915412   3.741484   6.243305   2.442217   7.446559
    10  H    3.554188   2.682132   4.711040   2.157695   5.825857
    11  C    4.905820   3.734451   6.232231   2.435831   7.434963
    12  H    3.552402   2.687466   4.705251   2.164392   5.818725
    13  C    4.875139   6.067088   3.574074   7.462855   2.460623
    14  C    4.877199   6.069110   3.575864   7.466650   2.460859
    15  C    5.462810   4.239902   6.823151   2.819847   8.045737
    16  H    5.712482   4.602376   6.991559   3.415030   8.163279
    17  H    5.730710   4.621004   7.009675   3.426929   8.181829
    18  C    6.233641   7.437045   4.906468   8.840397   3.734462
    19  H    4.695679   5.809543   3.542486   7.146166   2.678330
    20  C    6.235228   7.438676   4.907741   8.843579   3.734578
    21  H    4.699538   5.813352   3.545761   7.153251   2.678792
    22  O    6.822212   5.599581   8.182349   4.179902   9.404814
    23  C    6.817863   8.040778   5.457517   9.460824   4.234933
    24  H    6.994840   8.166965   5.716231   9.542789   4.607716
    25  H    6.997394   8.169648   5.718210   9.548076   4.607913
    26  C    7.682287   6.473065   9.031677   5.078309  10.246781
    27  H    7.904681   9.127597   6.544336  10.547641   5.321751
    28  H    7.655961   6.477682   8.980591   5.137484  10.178945
    29  H    8.677497   7.459431  10.033800   6.048132  11.253518
    30  H    7.656633   6.478270   8.981341   5.137980  10.179755
                    6          7          8          9         10
     6  C    0.000000
     7  C    2.422747   0.000000
     8  C    7.473060   7.469582   0.000000
     9  C    1.395071   2.801019   8.853128   0.000000
    10  H    1.086202   3.408450   7.167658   2.149378   0.000000
    11  C    2.791514   1.386005   8.840424   2.429289   3.877716
    12  H    3.407163   1.086068   7.158034   3.887086   4.306458
    13  C    8.445009   8.084792   1.412006   9.790370   8.268927
    14  C    8.094566   8.446545   1.411951   9.489607   7.614851
    15  C    2.419356   2.421214   9.467780   1.402926   3.402146
    16  H    2.143331   3.885025   9.542798   1.084125   2.458132
    17  H    3.877187   2.158238   9.560554   3.403767   4.963371
    18  C    9.787561   9.478486   2.433402  11.145319   9.557694
    19  H    8.255289   7.593736   2.161163   9.547560   8.219778
    20  C    9.488248   9.787452   2.433303  10.883299   9.000458
    21  H    7.608164   8.261874   2.161161   8.993663   7.011674
    22  O    3.697832   3.625279  10.826724   2.449464   4.590362
    23  C   10.259740  10.254507   2.812884  11.646538   9.888238
    24  H   10.571972  10.061547   3.416087  11.903670  10.417377
    25  H   10.074854  10.574782   3.415978  11.464259   9.493361
    26  C    4.240981   4.817822  11.662321   2.847238   4.898006
    27  H   11.339895  11.334227   3.899703  12.728126  10.951881
    28  H    4.172647   5.055725  11.579534   2.838725   4.698018
    29  H    5.298574   5.629070  12.673068   3.911586   5.985713
    30  H    4.173055   5.056200  11.580414   2.838938   4.698399
                   11         12         13         14         15
    11  C    0.000000
    12  H    2.145491   0.000000
    13  C    9.470766   7.598804   0.000000
    14  C    9.782879   8.263497   2.432721   0.000000
    15  C    1.405691   3.405538  10.254173  10.260222   0.000000
    16  H    3.420338   4.971077  10.563944  10.059518   2.172217
    17  H    1.085900   2.490063  10.073852  10.583956   2.148012
    18  C   10.864468   8.983756   1.393723   2.798863  11.639014
    19  H    8.970346   6.991508   1.086274   3.415040   9.869499
    20  C   11.136343   9.550003   2.798729   1.393739  11.644317
    21  H    9.545283   8.219350   3.415089   1.086298   9.880691
    22  O    2.343176   4.487947  11.592684  11.622529   1.363070
    23  C   11.632310   9.875491   2.423194   2.423282  12.280656
    24  H   11.441880   9.473175   2.149553   3.886082  12.304502
    25  H   11.897880  10.412180   3.885943   2.149534  12.313470
    26  C    3.658401   5.770430  12.537728  12.334018   2.398736
    27  H   12.713499  10.938378   3.407146   3.407207  13.367473
    28  H    4.032826   6.047702  12.504900  12.188486   2.727802
    29  H    4.356391   6.501777  13.507778  13.380320   3.268409
    30  H    4.033173   6.048239  12.513421  12.181573   2.727861
                   16         17         18         19         20
    16  H    0.000000
    17  H    4.308048   0.000000
    18  C   11.892144  11.462522   0.000000
    19  H   10.397088   9.481393   2.158560   0.000000
    20  C   11.448500  11.911266   2.421474   3.884983   0.000000
    21  H    9.469639  10.419360   3.885141   4.309022   2.158625
    22  O    2.745822   2.528836  12.980587  11.177768  13.007125
    23  C   12.300236  12.316679   1.399591   3.410198   1.399594
    24  H   12.698731  11.963131   1.087219   2.481832   3.407966
    25  H   11.951396  12.719230   3.407940   4.972194   1.087215
    26  C    2.562937   3.951539  13.910013  12.210760  13.727538
    27  H   13.371811  13.387900   2.160141   4.307740   2.160132
    28  H    2.361083   4.453180  13.861187  12.228944  13.577755
    29  H    3.647850   4.407085  14.887928  13.137700  14.772922
    30  H    2.361125   4.453496  13.868989  12.243605  13.571724
                   21         22         23         24         25
    21  H    0.000000
    22  O   11.232591   0.000000
    23  C    3.410306  13.639414   0.000000
    24  H    4.972357  13.626341   2.160152   0.000000
    25  H    2.481860  13.671335   2.160118   4.308161   0.000000
    26  C   11.837641   1.424033  14.466139  14.620437  14.310345
    27  H    4.307810  14.726178   1.086819   2.489745   2.489676
    28  H   11.649416   2.090084  14.362469  14.603487  14.121841
    29  H   12.904665   2.014646  15.482391  15.569366  15.373274
    30  H   11.635795   2.090100  14.363454  14.616006  14.110856
                   26         27         28         29         30
    26  C    0.000000
    27  H   15.550328   0.000000
    28  H    1.098323  15.440618   0.000000
    29  H    1.091222  16.568155   1.787741   0.000000
    30  H    1.098327  15.441633   1.795055   1.787766   0.000000
 Symmetry turned off by external request.
 Stoichiometry    C17H12O
 Framework group  C1[X(C17H12O)]
 Deg. of freedom    84
 Full point group                 C1      NOp   1
 Rotational constants (GHZ):           2.5641181           0.0932042           0.0899901
 Standard basis: 6-31+G(d) (6D, 7F)
   366 basis functions,   624 primitive gaussians,   366 cartesian basis functions
    61 alpha electrons       61 beta electrons
       nuclear repulsion energy       987.1982691029 Hartrees.
 NAtoms=   30 NActive=   30 NUniq=   30 SFac= 1.00D+00 NAtFMM=   60 NAOKFM=F Big=F
 Integral buffers will be    131072 words long.
 Raffenetti 2 integral format.
 Two-electron integral symmetry is turned off.
 Nuclear repulsion after empirical dispersion term =      987.1788437026 Hartrees.
 One-electron integrals computed using PRISM.
 NBasis=   366 RedAO= T EigKep=  1.57D-06  NBF=   366
 NBsUse=   360 1.00D-06 EigRej=  6.39D-07 NBFU=   360
 Initial guess from the checkpoint file:  "molecule_35.chk"
 B after Tr=    -0.000170   -0.002923   -0.000129
         Rot=    1.000000   -0.000185    0.000005    0.000157 Ang=  -0.03 deg.
 ExpMin= 4.38D-02 ExpMax= 5.48D+03 ExpMxC= 8.25D+02 IAcc=3 IRadAn=         5 AccDes= 0.00D+00
 Harris functional with IExCor=  402 and IRadAn=       5 diagonalized for initial guess.
 HarFok:  IExCor=  402 AccDes= 0.00D+00 IRadAn=         5 IDoV= 1 UseB2=F ITyADJ=14
 ICtDFT=  3500011 ScaDFX=  1.000000  1.000000  1.000000  1.000000
 FoFCou: FMM=F IPFlag=           0 FMFlag=      100000 FMFlg1=           0
         NFxFlg=           0 DoJE=T BraDBF=F KetDBF=T FulRan=T
         wScrn=  0.000000 ICntrl=       500 IOpCl=  0 I1Cent=   200000004 NGrid=           0
         NMat0=    1 NMatS0=      1 NMatT0=    0 NMatD0=    1 NMtDS0=    0 NMtDT0=    0
 Symmetry not used in FoFCou.
 Requested convergence on RMS density matrix=1.00D-08 within 128 cycles.
 Requested convergence on MAX density matrix=1.00D-06.
 Requested convergence on             energy=1.00D-06.
 No special actions if energy rises.
 SCF Done:  E(RB3LYP) =  -730.191601473     A.U. after   12 cycles
            NFock= 12  Conv=0.67D-08     -V/T= 2.0099
 Calling FoFJK, ICntrl=      2127 FMM=F ISym2X=0 I1Cent= 0 IOpClX= 0 NMat=1 NMatS=1 NMatT=0.
 -------------------------------------------------------------------
 Center     Atomic                   Forces (Hartrees/Bohr)
 Number     Number              X              Y              Z
 -------------------------------------------------------------------
      1        6          -0.000015844   -0.000005183   -0.000014998
      2        6           0.000014912    0.000004984    0.000019197
      3        6           0.000016334    0.000001919    0.000017198
      4        6          -0.000010515    0.000003302    0.000084623
      5        6          -0.000020181    0.000000931   -0.000028105
      6        6          -0.000061448   -0.000022144   -0.000088602
      7        6           0.000077854    0.000008968   -0.000087128
      8        6          -0.000009091   -0.000000114   -0.000136683
      9        6          -0.000096424   -0.000019042    0.000114893
     10        1          -0.000104538    0.000012197    0.000035896
     11        6           0.000048750   -0.000024838    0.000075275
     12        1           0.000098443   -0.000007378    0.000030327
     13        6           0.000107851   -0.000012026    0.000135866
     14        6          -0.000108041    0.000013641    0.000125704
     15        6           0.000028002    0.000071778   -0.000044526
     16        1          -0.000091118    0.000006866   -0.000037071
     17        1           0.000102491   -0.000004754   -0.000036659
     18        6           0.000126604   -0.000026675   -0.000135112
     19        1           0.000157623   -0.000011968   -0.000046326
     20        6          -0.000120558    0.000025553   -0.000139025
     21        1          -0.000165748    0.000012594   -0.000054114
     22        8           0.000148534   -0.000032083    0.000022580
     23        6           0.000007916   -0.000000750    0.000161947
     24        1           0.000165140   -0.000013102    0.000053335
     25        1          -0.000156882    0.000011910    0.000047522
     26        6          -0.000014858   -0.000002482   -0.000094099
     27        1           0.000000843   -0.000000210    0.000001654
     28        1          -0.000074529   -0.000094829    0.000009557
     29        1           0.000014560   -0.000003528   -0.000008372
     30        1          -0.000066080    0.000106462    0.000015246
 -------------------------------------------------------------------
 Cartesian Forces:  Max     0.000165748 RMS     0.000072348

 GradGradGradGradGradGradGradGradGradGradGradGradGradGradGradGradGradGrad
 Berny optimization.
 Search for a local minimum.
 Step number   2 out of a maximum of  100
 All quantities printed in internal units (Hartrees-Bohrs-Radians)
 Update second derivatives using D2CorN and points    2    1
 DE=  1.24D-06 DEPred=-3.01D-07 R=-4.13D+00
 Trust test=-4.13D+00 RLast= 3.00D-01 DXMaxT set to 1.50D-01
 ITU= -1  0
     Eigenvalues ---    0.00005   0.00031   0.00033   0.00155   0.00230
     Eigenvalues ---    0.00274   0.00533   0.00558   0.01117   0.01125
     Eigenvalues ---    0.01588   0.01627   0.02001   0.02614   0.02794
     Eigenvalues ---    0.03054   0.03410   0.03986   0.04979   0.06085
     Eigenvalues ---    0.06194   0.06850   0.06873   0.06931   0.07147
     Eigenvalues ---    0.07188   0.07826   0.08951   0.09496   0.09598
     Eigenvalues ---    0.10124   0.10194   0.10500   0.11358   0.12591
     Eigenvalues ---    0.12719   0.13159   0.13394   0.14542   0.15306
     Eigenvalues ---    0.16290   0.17479   0.20604   0.23360   0.24403
     Eigenvalues ---    0.28004   0.29538   0.29720   0.29971   0.30934
     Eigenvalues ---    0.34227   0.36812   0.38945   0.42124   0.42549
     Eigenvalues ---    0.44673   0.45194   0.48763   0.55468   0.58600
     Eigenvalues ---    0.58880   0.67549   0.68795   0.69758   0.76569
     Eigenvalues ---    0.89033   0.92229   0.97734   1.02784   1.06908
     Eigenvalues ---    1.11088   1.14690   1.21622   1.23396   1.26925
     Eigenvalues ---    1.38513   1.44847   1.45947   1.56367   1.57847
     Eigenvalues ---    1.58287   1.67989   2.21320   2.71228
 RFO step:  Lambda=-2.89526639D-07 EMin= 4.74202460D-05
 Quartic linear search produced a step of -0.73825.
 B after Tr=     0.000025   -0.000091   -0.000078
         Rot=    1.000000   -0.000002   -0.000006    0.000000 Ang=   0.00 deg.
 Variable       Old X    -DE/DX   Delta X   Delta X   Delta X     New X
                                 (Linear)    (Quad)   (Total)
    X1       -0.00037  -0.00002   0.00027  -0.00005   0.00025  -0.00012
    Y1       -0.00598  -0.00001   0.00442  -0.00088   0.00344  -0.00254
    Z1       -0.00028  -0.00001   0.00020  -0.00020  -0.00007  -0.00035
    X2       -0.00015   0.00001   0.00011   0.00039   0.00055   0.00040
    Y2       -0.00802   0.00000   0.00592  -0.00099   0.00483  -0.00319
    Z2        2.31070   0.00002   0.00020  -0.00019  -0.00007   2.31063
    X3        0.00031   0.00002   0.00041  -0.00045  -0.00004   0.00027
    Y3       -0.00366   0.00000   0.00270  -0.00064   0.00199  -0.00167
    Z3       -2.57096   0.00002   0.00021  -0.00020  -0.00007  -2.57103
    X4       -0.01033  -0.00001   0.00008   0.00061   0.00077  -0.00956
    Y4       -0.00947   0.00000   0.00759  -0.00096   0.00652  -0.00295
    Z4        4.99419   0.00008   0.00019  -0.00018  -0.00007   4.99412
    X5        0.00290  -0.00002   0.00049  -0.00074  -0.00028   0.00262
    Y5       -0.00161   0.00000   0.00116  -0.00038   0.00071  -0.00090
    Z5       -4.88131  -0.00003   0.00021  -0.00021  -0.00008  -4.88139
    X6        2.26247  -0.00006  -0.00234   0.00054  -0.00170   2.26077
    Y6       -0.14149  -0.00002  -0.02327  -0.00097  -0.02436  -0.16585
    Z6        6.37050  -0.00009   0.00028  -0.00027  -0.00009   6.37041
    X7       -2.30824   0.00008   0.00251   0.00082   0.00343  -2.30480
    Y7        0.12222   0.00001   0.04013  -0.00070   0.03932   0.16154
    Z7        6.35615  -0.00009   0.00014  -0.00014  -0.00005   6.35610
    X8        0.00120  -0.00001   0.00035  -0.00063  -0.00035   0.00085
    Y8        0.00125   0.00000  -0.00064  -0.00006  -0.00076   0.00049
    Z8       -7.56859  -0.00014   0.00022  -0.00022  -0.00007  -7.56866
    X9        2.26571  -0.00010  -0.00227   0.00059  -0.00155   2.26415
    Y9       -0.14353  -0.00002  -0.02193  -0.00045  -0.02251  -0.16604
    Z9        9.00680   0.00011   0.00025  -0.00021  -0.00007   9.00673
   X10        4.04423  -0.00010  -0.00425   0.00040  -0.00375   4.04048
   Y10       -0.24364   0.00001  -0.04849  -0.00118  -0.04978  -0.29342
   Z10        5.35652   0.00004   0.00032  -0.00031  -0.00011   5.35641
   X11       -2.31725   0.00005   0.00262   0.00081   0.00356  -2.31369
   Y11        0.12099  -0.00002   0.04157  -0.00027   0.04117   0.16215
   Z11        8.97530   0.00008   0.00013  -0.00013  -0.00004   8.97526
   X12       -4.08021   0.00010   0.00436   0.00090   0.00535  -4.07486
   Y12        0.22534  -0.00001   0.06406  -0.00082   0.06312   0.28846
   Z12        5.32576   0.00003   0.00010  -0.00011  -0.00004   5.32572
   X13       -2.28681   0.00011  -0.00290  -0.00029  -0.00327  -2.29008
   Y13        0.23491  -0.00001  -0.04208   0.00039  -0.04174   0.19317
   Z13       -8.92147   0.00014   0.00028  -0.00042  -0.00019  -8.92165
   X14        2.28685  -0.00011   0.00334  -0.00066   0.00260   2.28945
   Y14       -0.22945   0.00001   0.03894  -0.00010   0.03879  -0.19065
   Z14       -8.92574   0.00013   0.00010   0.00006   0.00005  -8.92569
   X15       -0.03195   0.00003   0.00025   0.00072   0.00111  -0.03084
   Y15       -0.01216   0.00007   0.01083   0.00003   0.01072  -0.00144
   Z15       10.32289  -0.00004   0.00011  -0.00005  -0.00002  10.32287
   X16        4.05360  -0.00009  -0.00432   0.00077  -0.00341   4.05019
   Y16       -0.24720   0.00001  -0.04634  -0.00029  -0.04676  -0.29396
   Z16       10.00171  -0.00004   0.00063  -0.00075  -0.00026  10.00145
   X17       -4.07385   0.00010   0.00453   0.00088   0.00556  -4.06830
   Y17        0.22178   0.00000   0.06635  -0.00007   0.06614   0.28792
   Z17       10.03129  -0.00004   0.00017  -0.00020  -0.00006  10.03123
   X18       -2.27855   0.00013  -0.00324   0.00019  -0.00317  -2.28172
   Y18        0.23681  -0.00003  -0.04374   0.00074  -0.04304   0.19378
   Z18      -11.55521  -0.00014   0.00031  -0.00046  -0.00020 -11.55541
   X19       -4.04969   0.00016  -0.00521  -0.00026  -0.00553  -4.05522
   Y19        0.41282  -0.00001  -0.07262   0.00048  -0.07220   0.34063
   Z19       -7.88491  -0.00005   0.00037  -0.00062  -0.00027  -7.88519
   X20        2.27395  -0.00012   0.00297  -0.00018   0.00268   2.27663
   Y20       -0.22552   0.00003   0.03701   0.00030   0.03727  -0.18826
   Z20      -11.55949  -0.00014   0.00010   0.00006   0.00005 -11.55944
   X21        4.05154  -0.00017   0.00589  -0.00099   0.00482   4.05636
   Y21       -0.40965   0.00001   0.07087  -0.00044   0.07038  -0.33927
   Z21       -7.89258  -0.00005   0.00000   0.00031   0.00018  -7.89240
   X22       -0.25040   0.00015   0.00102   0.00003   0.00123  -0.24917
   Y22       -0.00041  -0.00003   0.01447   0.00068   0.01499   0.01459
   Z22       12.88941   0.00002   0.00016  -0.00015  -0.00006  12.88934
   X23       -0.00341   0.00001  -0.00028   0.00018  -0.00023  -0.00363
   Y23        0.00711   0.00000  -0.00427   0.00071  -0.00359   0.00352
   Z23      -12.88416   0.00016   0.00018  -0.00018  -0.00008 -12.88424
   X24       -4.05298   0.00017  -0.00580   0.00052  -0.00541  -4.05839
   Y24        0.41795  -0.00001  -0.07582   0.00108  -0.07477   0.34318
   Z24      -12.57489   0.00005   0.00042  -0.00072  -0.00033 -12.57522
   X25        4.04662  -0.00016   0.00528  -0.00018   0.00497   4.05159
   Y25       -0.40441   0.00001   0.06768   0.00027   0.06791  -0.33650
   Z25      -12.58261   0.00005  -0.00002   0.00031   0.00016 -12.58245
   X26        1.98635  -0.00001  -0.00056  -0.00114  -0.00150   1.98485
   Y26       -0.12952   0.00000  -0.01651   0.00143  -0.01523  -0.14476
   Z26       14.38003  -0.00009  -0.00099   0.00144   0.00035  14.38037
   X27       -0.00509   0.00000  -0.00049   0.00044  -0.00021  -0.00530
[...]
 00042,-0.00002130,-0.00006041,0.00000472,-0.00036940,-0.00000636,0.000
 00058,0.00004036,-0.00122566,0.00009962,-0.00034736,0.00002924,-0.0000
 0200,-0.00001411,-0.00003742,0.00000263,-0.00001627,0.00146212,-0.0001
 1356,-0.00503428,0.00001850,-0.00000148,-0.00003279,0.00000611,-0.0000
 0041,0.00000803,-0.00001279,0.00000099,-0.00002960,-0.00000404,0.00000
 030,0.00000796,-0.02923620,0.00237358,-0.01119201,0.00083262,-0.000067
 21,-0.00074009,-0.00001339,0.00000102,0.00008518,-0.00000363,0.0000002
 6,-0.00000743,0.00000277,-0.00000019,-0.00000859,-0.11972518,0.0097345
 9,-0.12867268,0.00037084,-0.00003172,0.00061124,0.00310842,-0.00024810
 ,-0.00118921,-0.00009568,0.00000722,0.00010667,-0.00000941,0.00000067,
 -0.00011621,0.01521839,-0.00123591,0.01227842,0.12873488,-0.01047123,0
 .13338041,-0.00001634,-0.00000077,0.00006445,-0.00000279,0.00000117,-0
 .00004480,0.00000112,-0.00001708,-0.00009618,0.00000419,-0.00000037,-0
 .00000050,0.00003669,0.00004090,0.00003465,-0.00002231,0.00000158,-0.0
 0000929,0.00001972,-0.00000165,-0.00000614,0.00189687,0.00042982,-0.00
 101117,-0.00002435,0.00000190,0.00003098,-0.00000175,0.00000032,-0.000
 00423,0.00002342,-0.00000206,0.00002555,0.00000231,0.00000002,-0.00000
 439,0.00021897,-0.00007040,-0.00082678,0.00391899,-0.00006433,-0.00189
 437,0.00001077,-0.00000080,-0.00007667,0.00000339,-0.00000015,0.000004
 55,-0.00000256,0.00000030,0.00000343,-0.00292256,0.00079651,-0.0042339
 6,-0.00000766,-0.00009123,0.00010114,-0.26813667,0.01869884,0.11997847
 ,0.00082161,-0.00040347,0.00033539,0.00001177,-0.00000097,0.00010640,-
 0.01855697,0.00175110,0.01611033,-0.00104222,0.00010071,0.00084164,0.2
 8309818,-0.00000067,-0.00002344,-0.00000549,0.00000114,0.00001102,0.00
 000394,-0.00001715,-0.00021224,0.00000813,-0.00000040,-0.00000063,-0.0
 0000020,0.00004049,0.00054062,-0.00000280,0.00000182,-0.00000132,0.000
 00080,-0.00000177,-0.00000167,0.00000054,0.00043009,0.00716463,0.00008
 701,0.00000208,0.00000163,-0.00000255,0.00000030,0.00000212,0.00000034
 ,-0.00000224,-0.00000437,-0.00000211,-0.00000002,0.00000243,0.00000036
 ,-0.00007029,-0.00064970,0.00006730,-0.00007676,0.00312275,0.00015813,
 -0.00000083,0.00000027,0.00000621,-0.00000018,0.00000129,-0.00000038,0
 .00000030,0.00000120,-0.00000027,0.00079520,0.00681964,0.00034605,-0.0
 0009120,-0.00112666,-0.00000871,0.01869811,-0.03809804,-0.00967640,-0.
 00040317,-0.00412527,-0.00002897,-0.00000108,-0.00000139,-0.00000858,0
 .00176481,0.00301122,-0.00130825,0.00010142,0.00019723,-0.00006827,-0.
 02080264,0.02720674,-0.00012573,0.00000979,0.00001761,0.00000372,0.000
 00003,-0.00002002,0.00007447,-0.00000587,-0.00037018,0.00000276,-0.000
 00033,0.00003882,0.00121791,-0.00009806,-0.00034889,0.00003610,-0.0000
 0252,-0.00001220,-0.00003027,0.00000210,-0.00001734,-0.00147260,0.0001
 2445,-0.00502879,0.00001517,-0.00000118,-0.00003505,0.00000411,-0.0000
 0030,0.00000780,-0.00001605,0.00000127,-0.00002856,-0.00000590,0.00000
 040,0.00000816,-0.00083233,0.00006727,-0.00073673,0.02921214,-0.002359
 53,-0.01123189,-0.00000945,0.00000070,0.00008643,-0.00000385,0.0000002
 6,-0.00000907,0.00000272,-0.00000020,-0.00000704,-0.00311010,0.0002550
 4,-0.00117909,0.00009507,-0.00000821,0.00010532,0.11994472,-0.00967476
 ,-0.12904770,-0.00037229,0.00002787,0.00061102,-0.00001546,0.00000113,
 -0.00011951,-0.01516767,0.00122415,0.01227947,-0.00083895,0.00006782,0
 .00046367,-0.12896769,0.01039933,0.13378005,-0.00000702,-0.00000844,0.
 00097309,-0.00017207,-0.00000851,-0.00142098,0.00007262,0.00000499,-0.
 00040266,0.00053580,-0.00001779,0.00191415,-0.00004418,-0.00000162,0.0
 0040445,-0.00169726,0.00015051,-0.00145922,0.00000730,0.00011901,-0.00
 050595,0.00000396,0.00000074,-0.00050160,0.00218087,-0.00025475,0.0096
 8021,-0.00009962,0.00000908,0.00047208,0.00201365,0.00007490,0.0052260
 9,0.00010853,-0.00003174,0.00034229,-0.00005919,0.00000418,0.00018957,
 0.00007289,-0.00000573,0.00020120,0.00356207,-0.00068083,-0.01462320,-
 0.00080430,0.00005259,0.00144190,0.00005613,-0.00005225,-0.00005935,-0
 .00008235,0.00000704,-0.00003460,-0.00001663,0.00000151,-0.00003253,0.
 00007887,-0.00000735,-0.00003666,0.00001124,-0.00000030,-0.00003432,-0
 .18731170,0.00933676,-0.06968098,0.00000080,-0.00000021,0.00021014,0.0
 0003296,-0.00000248,0.00003616,-0.00003597,0.00000309,0.00004172,0.495
 92275,-0.00000764,-0.00011111,-0.00007154,-0.00000882,-0.00028713,0.00
 010445,0.00000403,0.00012508,0.00002962,-0.00001794,0.00028484,-0.0001
 4073,-0.00000100,-0.00005560,-0.00002976,0.00014987,0.00033448,0.00010
 729,0.00011965,0.00162126,0.00003785,0.00000052,0.00001000,0.00003689,
 -0.00025749,-0.00130483,-0.00071054,0.00000883,0.00002025,-0.00003453,
 0.00007602,0.00302240,-0.00038444,-0.00003163,-0.00031807,-0.00002513,
 0.00000395,-0.00000490,-0.00001392,-0.00000540,0.00000059,-0.00001484,
 -0.00068499,-0.00555061,0.00106969,0.00004798,-0.00012911,-0.00010785,
 -0.00005276,-0.00064672,0.00000433,0.00000598,-0.00000182,0.00000255,0
 .00000153,0.00000349,0.00000239,-0.00000626,-0.00000525,0.00000271,-0.
 00000039,0.00000532,0.00000253,0.00934204,-0.06078255,0.00511280,-0.00
 000012,-0.00000069,-0.00001546,-0.00000222,0.00000266,-0.00000265,0.00
 000284,0.00000207,-0.00000308,0.00587996,0.57546585,0.00009149,-0.0000
 0657,0.00083419,-0.00012261,0.00000909,-0.00126598,-0.00006844,0.00000
 477,-0.00037552,-0.00028834,0.00002159,0.00160100,0.00002151,-0.000001
 31,0.00033619,-0.00194370,0.00014384,-0.00066984,-0.00143524,0.0001056
 8,-0.00156525,0.00000145,-0.00000010,-0.00037766,-0.00048448,0.0000343
 4,0.00228169,-0.00004985,0.00000371,0.00042203,0.00507751,-0.00037672,
 -0.00083808,0.00013823,-0.00001014,-0.00024466,-0.00003277,0.00000247,
 0.00014094,0.00003983,-0.00000316,0.00014490,-0.03554450,0.00260472,-0
 .04312707,-0.00088745,0.00006778,-0.00248584,-0.00042687,0.00003150,-0
 .00000141,-0.00005727,0.00000500,-0.00002916,-0.00001180,0.00000087,-0
 .00002372,0.00005292,-0.00000466,-0.00002787,0.00000993,-0.00000067,-0
 .00002353,-0.03888727,0.00284117,-0.11568107,0.00000012,-0.00000007,0.
 00014976,0.00002469,-0.00000201,0.00002624,-0.00002532,0.00000205,0.00
 002832,-0.07881378,0.00582310,0.58063748,-0.00001416,0.00000875,-0.000
 00003,0.00000014,-0.00000088,0.00000017,0.00003829,-0.00000869,0.00000
 017,0.00000092,-0.00000010,-0.00000018,0.00016972,-0.00008678,0.000000
 31,-0.00000199,-0.00000003,0.00000056,-0.00000197,0.00000004,-0.000000
 68,-0.00121412,0.00002322,0.00000173,0.00000101,-0.00000011,0.00000035
 ,0.00000064,0.00000009,0.00000056,0.00000103,-0.00000020,-0.00000047,0
 .00000065,0.00000008,-0.00000058,-0.00471250,0.00094522,0.00207975,-0.
 00472169,0.00094747,-0.00206954,-0.00000004,0.00000021,-0.00000017,-0.
 00000001,0.00000008,0.00000016,-0.00000003,0.00000008,-0.00000019,0.00
 494377,-0.00015135,0.02866135,0.00010967,0.00000188,0.00142990,0.00490
 626,-0.00012411,-0.02869178,0.00010782,0.00000330,-0.00143267,0.000000
 15,-0.00000012,-0.00000004,-0.06015538,0.00195664,-0.00020086,0.000690
 36,-0.00036898,-0.00033319,0.00069121,-0.00036934,0.00033261,-0.000000
 12,0.00000010,0.00000013,0.05916036,0.00000819,0.00008862,0.,-0.000000
 72,-0.00000997,-0.00000001,-0.00000775,-0.00006004,0.00000001,-0.00000
 012,-0.00000009,0.,-0.00008724,-0.00090074,-0.00000045,0.00000002,-0.0
 0000207,-0.00000005,0.00000009,-0.00000134,0.00000006,0.00002381,-0.00
 092725,-0.00000085,-0.00000014,-0.00000051,-0.00000002,0.00000006,0.00
 000157,-0.00000005,-0.00000020,-0.00000149,0.00000005,0.00000006,0.000
 00155,0.00000004,0.00094506,0.00689532,-0.00016570,0.00094835,0.006891
 79,0.00017000,0.00000020,0.00000245,-0.00000001,0.00000007,0.00000094,
 -0.00000002,0.00000007,0.00000090,0.00000002,-0.00013725,0.00324566,-0
 .00231593,0.00000264,0.00013961,-0.00011549,-0.00013632,0.00324380,0.0
 0233072,0.00000271,0.00014083,0.00011642,-0.00000012,-0.00000133,0.000
 00003,0.00195337,-0.03614767,0.00014445,-0.00036937,-0.00383913,0.0000
 2482,-0.00036910,-0.00383942,-0.00002868,0.00000010,0.00000117,-0.0000
 0001,-0.00277640,0.02507745,0.00000027,-0.00000003,0.00001641,0.000002
 43,-0.00000016,0.00000666,-0.00000430,0.00000036,-0.00007102,-0.000002
 63,0.00000018,0.00001976,0.00000292,-0.00000065,0.00011424,0.00001995,
 -0.00000144,0.00000158,-0.00002086,0.00000153,-0.00000179,0.00000249,-
 0.00000092,0.00074208,0.00002201,-0.00000164,-0.00002979,0.00000370,-0
 .00000027,0.00000579,-0.00001974,0.00000145,-0.00002546,-0.00000354,0.
 00000025,0.00000600,0.00316045,-0.00025314,0.00067489,-0.00314959,0.00
 025760,0.00068478,-0.00001060,0.00000081,0.00008216,-0.00000371,0.0000
 0027,-0.00000507,0.00000284,-0.00000021,-0.00000470,-0.00258122,0.0002
 1463,-0.01133405,-0.00021693,0.00001787,-0.00064635,0.00255668,-0.0002
 0041,-0.01129494,0.00021513,-0.00001707,-0.00064428,-0.00001193,0.0000
 0086,-0.00011160,-0.00020908,0.00014506,-0.33944685,0.00043770,-0.0000
 3691,0.00076722,-0.00043823,0.00003303,0.00076848,0.00003657,-0.000002
 69,0.00002704,0.00022256,-0.00015936,0.35970176,-0.00001792,-0.0000135
 4,-0.00021058,0.00004417,-0.00001570,0.00029757,0.00000420,0.00001104,
 0.00008844,0.00026760,-0.00005251,-0.00045672,0.00000037,-0.00000105,-
 0.00008429,0.00009814,-0.00004145,-0.00001809,-0.00007691,0.00024320,0
 .00057868,-0.00000025,0.00000034,0.00009631,0.00057290,0.00033596,-0.0
 0073395,0.00002089,0.00001192,-0.00006752,-0.00064952,0.00047732,-0.00
 137993,-0.00002406,-0.00004541,-0.00005058,0.00000966,-0.00000268,-0.0
 0003634,-0.00001130,0.00000305,-0.00003749,-0.00032305,-0.00059108,0.0
 0657072,0.00044392,-0.00001552,0.00022217,0.00014949,-0.00019954,0.000
 08771,0.00001505,0.00000053,0.00000713,0.00000280,-0.00000082,0.000006
 10,-0.00001421,0.00000131,0.00000708,-0.00000232,-0.00000069,0.0000061
 4,-0.03124100,-0.01968315,-0.00924566,-0.00000008,-0.00000019,-0.00003
 926,-0.00000631,0.00000015,-0.00000684,0.00000652,-0.00000087,-0.00000
 740,-0.13250917,-0.11314966,0.02993037,-0.00000002,-0.00000032,-0.0000
 0681,0.15595421,0.00002348,-0.00000332,-0.00004510,0.00004800,0.000028
 45,0.00010209,-0.00002070,-0.00000229,0.00002019,-0.00001070,-0.000046
 86,-0.00009966,0.00000662,0.00000183,-0.00002045,0.00049107,-0.0000882
 4,0.00013854,0.00004812,-0.00004050,0.00017870,0.00000027,-0.00000036,
 0.00002073,-0.00116031,0.00002917,-0.00036637,-0.00000705,0.00000545,-
 0.00003307,-0.00003075,-0.00025106,-0.00047096,0.00000627,0.00001143,-
 0.00001689,0.00000076,0.00000127,-0.00000626,-0.00000302,-0.00000006,-
 0.00000800,-0.00027747,0.00061531,0.00146157,0.00071095,-0.00021681,-0
 .00025012,0.00007469,0.00000282,0.00004941,0.00000486,-0.00000061,0.00
 000179,0.00000046,-0.00000068,0.00000070,-0.00000403,0.00000183,0.0000
 0241,0.00000025,-0.00000124,0.00000090,0.00033249,0.00923495,-0.005120
 94,-0.00000005,0.00000030,-0.00000967,-0.00000110,-0.00000036,-0.00000
 079,0.00000143,-0.00000063,-0.00000177,-0.11572048,-0.21342429,0.04017
 709,-0.00000003,-0.00000035,-0.00000113,0.12961499,0.22244358,-0.00001
 288,-0.00002304,0.00000326,0.00002253,-0.00010936,-0.00000229,0.000005
 77,0.00002400,0.00000019,0.00088761,-0.00002157,0.00001519,-0.00000256
 ,-0.00000463,0.00000277,-0.00029394,0.00055456,-0.00082799,-0.00042141
 ,0.00024597,0.00089108,0.00000008,0.00000045,-0.00001187,0.00083784,-0
 .00023155,0.00011152,-0.00000997,-0.00004416,-0.00000172,-0.00060383,0
 .00062882,-0.00122801,-0.00000711,-0.00005032,-0.00000037,-0.00000366,
 -0.00000325,0.00000534,0.00000312,0.00000239,0.00000491,-0.00137019,-0
 .00203846,0.00449853,-0.00001533,-0.00150659,-0.00182064,0.00010505,-0
 .00013626,0.00004298,-0.00000179,0.00000302,-0.00000015,-0.00000055,0.
 ,-0.00000110,0.00000216,-0.00000246,-0.00000039,0.00000070,0.00000044,
 -0.00000120,-0.02019431,-0.01664973,-0.00093377,-0.00000005,-0.0000004
 1,0.00000525,0.00000110,0.00000015,0.00000122,-0.00000105,0.00000030,0
 .00000121,0.03329738,0.04320492,-0.06411894,0.00000004,0.00000011,0.00
 000124,-0.02628480,-0.04233480,0.06430376,-0.00000303,-0.00000132,-0.0
 0001696,0.00005435,-0.00000419,0.00005166,-0.00000244,0.00000065,0.000
 00815,0.00017012,-0.00001762,0.00006513,0.00000100,-0.00000012,-0.0000
 0852,0.00047116,-0.00002076,-0.00020038,-0.00051230,0.00003857,0.00020
 544,-0.00000017,0.00000003,0.00000528,-0.00127889,0.00011850,0.0002339
 0,-0.00000848,0.00000290,-0.00006174,0.00040101,-0.00001358,-0.0016382
 3,0.00001187,-0.00000409,-0.00013516,0.00000049,-0.00000019,-0.0000013
 8,-0.00000159,0.00000015,-0.00000227,-0.00449096,0.00037263,-0.0017978
 0,0.00081425,-0.00009437,0.00036890,-0.00001587,0.00000254,0.00005295,
 0.00000195,-0.00000006,0.00000136,-0.00000019,0.00000005,0.00000011,-0
 .00000099,0.00000009,0.00000068,0.00000047,-0.00000002,-0.00000011,0.0
 0274507,-0.00017546,-0.04129411,-0.00000006,-0.00000005,-0.00000317,-0
 .00000021,0.00000004,-0.00000017,0.00000012,0.00000001,-0.00000039,-0.
 08076772,0.00206368,0.10000150,0.00000002,0.00000001,0.00000004,-0.004
 27058,0.00219254,0.01706325,0.08990537,-0.00000129,-0.00001971,0.00000
 122,-0.00000425,-0.00000267,-0.00000377,0.00000072,0.00000626,-0.00000
 059,-0.00001729,-0.00006544,-0.00000486,-0.00000019,-0.00000117,0.0000
 0062,-0.00002093,0.00018991,0.00001450,0.00003807,0.00000424,-0.000014
 96,0.00000005,0.00000038,-0.00000038,0.00011805,0.00031289,-0.00001702
 ,0.00000290,0.00003058,0.00000452,-0.00001303,0.00022458,0.00012006,-0
 .00000412,-0.00004360,0.00000993,-0.00000021,-0.00000210,0.00000010,0.
 00000015,0.00000035,0.00000016,0.00037310,0.00055254,0.00013361,-0.000
 09435,-0.00045641,-0.00002701,0.00000252,0.00001855,-0.00000390,-0.000
 00001,0.00000149,-0.00000010,0.00000005,0.00000037,0.,0.00000005,-0.00
 000015,-0.00000005,0.,0.00000036,0.,-0.00016149,0.00056010,0.00303239,
 -0.00000006,-0.00000079,0.00000022,0.00000004,0.00000035,0.00000001,0.
 00000002,0.00000028,0.00000003,0.00205931,-0.05334370,-0.00745133,0.00
 000001,0.00000016,0.,-0.00843225,0.00236734,0.02485859,-0.00310605,0.0
 4836487,0.00000216,-0.00000007,-0.00011489,0.00001382,-0.00000099,0.00
 015670,-0.00000955,0.00000054,0.00005191,-0.00000434,0.00000023,-0.000
 08826,0.00000503,-0.00000025,-0.00004986,0.00009403,-0.00000707,0.0000
 5133,-0.00035898,0.00002670,0.00003973,-0.00000068,0.,0.00006802,-0.00
 014592,0.00001073,0.00011584,0.00000975,-0.00000075,-0.00003924,0.0002
 8021,-0.00002105,-0.00108680,0.00000029,0.00000004,-0.00009890,0.00000
 899,-0.00000071,-0.00002710,-0.00000917,0.00000074,-0.00002713,-0.0031
 0838,0.00022806,0.00202757,-0.00004073,0.00000348,0.00008793,-0.000027
 45,0.00000205,0.00001548,0.00000980,-0.00000084,0.00000448,0.00000256,
 -0.00000020,0.00000511,-0.00000972,0.00000083,0.00000414,-0.00000252,0
 .00000019,0.00000512,-0.00273535,0.00019401,-0.02543303,0.,0.00000001,
 -0.00002692,-0.00000488,0.00000040,-0.00000552,0.00000488,-0.00000039,
 -0.00000552,0.08655390,-0.00646077,-0.29171644,0.,0.,-0.00000545,0.002
 81407,-0.00012195,-0.00298894,-0.08613672,0.00644201,0.32205224,-0.000
 01879,0.00001589,-0.00020166,0.00003923,0.00001414,0.00027934,0.000005
 11,-0.00001217,0.00008451,0.00026973,0.00000525,-0.00043711,-0.0000002
 8,0.00000134,-0.00008038,0.00002943,0.00002430,-0.00003794,-0.00011850
 ,-0.00023130,0.00054573,-0.00000035,-0.00000036,0.00009225,0.00068247,
 -0.00043009,-0.00067427,0.00001988,-0.00001417,-0.00006198,-0.00070596
 ,-0.00040939,-0.00129643,-0.00001763,0.00004980,-0.00004764,0.00000979
 ,0.00000138,-0.00003502,-0.00001110,-0.00000131,-0.00003592,-0.0001852
 2,0.00071511,0.00628955,0.00032847,-0.00006987,0.00026522,0.00016446,0
 .00017593,0.00007949,0.00001389,-0.00000306,0.00000678,0.00000278,0.00
 000031,0.00000593,-0.00001345,0.00000133,0.00000666,-0.00000222,0.0000
 0081,0.00000594,-0.02757838,0.02513677,-0.00841007,-0.00000003,0.00000
 027,-0.00003743,-0.00000603,0.00000078,-0.00000664,0.00000629,-0.00000
 025,-0.00000707,-0.10105315,0.09651935,0.02369003,0.00000003,0.0000002
 7,-0.00000657,0.01155676,-0.01632157,-0.00300320,-0.00322378,0.0092605
 1,0.00279490,0.11980655,-0.00002095,-0.00000239,0.00007542,-0.00004969
 ,0.00003372,-0.00014456,0.00001941,-0.00000334,-0.00003291,-0.00003554
 ,-0.00004921,0.00016531,-0.00000624,0.00000245,0.00003259,-0.00050897,
 -0.00001916,-0.00013524,-0.00003689,0.00000078,-0.00026090,-0.00000027
 ,-0.00000021,-0.00003462,0.00106689,-0.00007960,0.00047017,0.00000496,
 0.00000658,0.00004256,0.00009729,-0.00019449,0.00066718,-0.00000199,0.
 00000502,0.00002409,-0.00000199,0.00000112,0.00001150,0.00000466,-0.00
 000032,0.00001341,0.00039718,0.00047423,-0.00240977,-0.00078964,-0.000
 10138,0.00021999,-0.00009871,-0.00001193,-0.00006174,-0.00000702,0.000
 00072,-0.00000282,-0.00000099,-0.00000067,-0.00000158,0.00000631,0.000
 00087,-0.00000343,-0.00000013,-0.00000126,-0.00000179,0.00511192,0.005
 57719,0.00641666,0.00000010,0.00000023,0.00001533,0.00000193,-0.000000
 65,0.00000178,-0.00000246,-0.00000035,0.00000284,0.09908871,-0.2449330
 8,-0.04402200,-0.00000004,-0.00000039,0.00000211,0.01154660,-0.0206660
 7,-0.00636713,-0.00135447,0.00130011,-0.00029498,-0.11442998,0.2586614
 6,-0.00000962,0.00002456,0.00000315,0.00003870,0.00010480,-0.00000213,
 0.00000225,-0.00002440,0.00000024,0.00088039,-0.00010889,0.00001479,-0
 .00000183,0.00000484,0.00000275,-0.00037143,-0.00050534,-0.00082704,-0
 .00045270,-0.00018106,0.00089026,0.,-0.00000042,-0.00001182,0.00086399
 ,0.00011258,0.00010606,-0.00000328,0.00004522,-0.00000188,-0.00068974,
 -0.00053284,-0.00122811,0.00000032,0.00005090,-0.00000049,-0.00000306,
 0.00000377,0.00000530,0.00000267,-0.00000285,0.00000488,-0.00105522,0.
 00221814,0.00451583,0.00022480,0.00148820,-0.00182905,0.00012382,0.000
 11958,0.00004305,-0.00000228,-0.00000268,-0.00000016,-0.00000053,0.000
 00009,-0.00000109,0.00000254,0.00000206,-0.00000040,0.00000062,-0.0000
 0054,-0.00000119,-0.01756089,0.01943528,-0.00094770,0.00000002,0.00000
 041,0.00000527,0.00000106,-0.00000033,0.00000121,-0.00000109,-0.000000
 13,0.00000121,0.02658493,-0.04752320,-0.06405775,0.00000003,-0.0000001
 1,0.00000124,-0.00204624,0.00675383,0.00204893,0.01323875,-0.02709402,
 -0.00297158,-0.01976697,0.04561254,0.06423625\\0.00001531,-0.00000203,
 0.00000183,-0.00001613,0.00000329,-0.00000237,-0.00001641,0.00000096,-
 0.00000249,0.00000041,-0.00000118,-0.00000219,0.00001853,-0.00000110,0
 .00000371,0.00000574,0.00000017,0.00000769,-0.00000309,-0.00000132,0.0
 0000220,-0.00000114,-0.00000020,0.00000383,0.00000706,0.00000224,-0.00
 000757,0.00000295,0.00000067,-0.00000090,-0.00000030,-0.00000206,0.000
 00249,-0.00000244,-0.00000081,0.00000003,-0.00000665,-0.00000082,-0.00
 000574,0.00000428,0.00000107,-0.00000468,-0.00000219,-0.00000277,-0.00
 000584,0.00000204,0.00000012,0.00000431,-0.00000311,-0.00000123,0.0000
 0035,-0.00001006,-0.00000057,0.00000470,-0.00000452,-0.00000040,0.0000
 0009,0.00000505,0.00000141,0.00000399,0.00000421,0.00000049,-0.0000005
 5,-0.00001615,0.00000496,0.00000029,0.00000187,0.00000002,-0.00000375,
 -0.00000414,-0.00000038,0.00000027,0.00000449,0.00000044,-0.00000027,0
 .00001721,-0.00000307,0.00000261,0.00000081,0.00000003,0.00000048,-0.0
 0000095,0.00000159,0.00000050,-0.00000303,0.00000021,-0.00000247,0.000
 00034,0.00000027,-0.00000053\\\@


 IF I AM NOT FOR MYSELF, WHO WILL BE?
 BUT IF I AM ONLY FOR MYSELF, WHAT AM I?
 THOUGH A SEEKER SINCE MY BIRTH,
 HERE IS ALL I'VE LEARNED ON EARTH,
 THIS IS THE GIST OF WHAT I KNOW:
 GIVE ADVICE AND BUY A FOE.

 PRESSED FOR RULES AND VERITIES,
 ALL I RECOLLECT ARE THESE:
 FEED A COLD TO STARVE A FEVER,
 ARGUE WITH NO TRUE-BELIEVER.
 THINK-TOO-LONG IS NEVER-ACT,
 SCRATCH A MYTH AND FIND A FACT.

 STITCH IN TIME SAVES TWENTY STITCHES,
 GIVE THE RICH TO PLEASE THEM, RICHES.
 GIVE TO LOVE YOU HEARTH AND HALL,
 BUT DO NOT GIVE ADVICE AT ALL.

                                  -- HILLEL
 Job cpu time:       0 days  2 hours 35 minutes 36.2 seconds.
 Elapsed time:       0 days  0 hours  5 minutes 11.3 seconds.
 File lengths (MBytes):  RWF=    403 Int=      0 D2E=      0 Chk=     12 Scr=      1
 Normal termination of Gaussian 16 at Mon Sep 18 08:29:43 2023.
