 Entering Gaussian System, Link 0=g16
 Input=/home/ubuntu/Downloads/molecule_23.gjf
 Output=/home/ubuntu/Downloads/molecule_23.log
 Initial command:
 /home/ubuntu/g16/l1.exe "/home/ubuntu/Scratch/Gau-291960.inp" -scrdir="/home/ubuntu/Scratch/"
 Entering Link 1 = /home/ubuntu/g16/l1.exe PID=    291964.
  
 Copyright (c) 1988-2017, Gaussian, Inc.  All Rights Reserved.
  
 This is part of the Gaussian(R) 16 program.  It is based on
 the Gaussian(R) 09 system (copyright 2009, Gaussian, Inc.),
 the Gaussian(R) 03 system (copyright 2003, Gaussian, Inc.),
 the Gaussian(R) 98 system (copyright 1998, Gaussian, Inc.),
 the Gaussian(R) 94 system (copyright 1995, Gaussian, Inc.),
 the Gaussian 92(TM) system (copyright 1992, Gaussian, Inc.),
 the Gaussian 90(TM) system (copyright 1990, Gaussian, Inc.),
 the Gaussian 88(TM) system (copyright 1988, Gaussian, Inc.),
 the Gaussian 86(TM) system (copyright 1986, Carnegie Mellon
 University), and the Gaussian 82(TM) system (copyright 1983,
 Carnegie Mellon University). Gaussian is a federally registered
 trademark of Gaussian, Inc.
  
 This software contains proprietary and confidential information,
 including trade secrets, belonging to Gaussian, Inc.
  
 This software is provided under written license and may be
 used, copied, transmitted, or stored only in accord with that
 written license.
  
 The following legend is applicable only to US Government
 contracts under FAR:
  
                    RESTRICTED RIGHTS LEGEND
  
 Use, reproduction and disclosure by the US Government is
 subject to restrictions as set forth in subparagraphs (a)
 and (c) of the Commercial Computer Software - Restricted
 Rights clause in FAR 52.227-19.
  
 Gaussian, Inc.
 340 Quinnipiac St., Bldg. 40, Wallingford CT 06492
  
  
 ---------------------------------------------------------------
 Warning -- This program may not be used in any manner that
 competes with the business of Gaussian, Inc. or will provide
 assistance to any competitor of Gaussian, Inc.  The licensee
 of this program is prohibited from giving any competitor of
 Gaussian, Inc. access to this program.  By using this program,
 the user acknowledges that Gaussian, Inc. is engaged in the
 business of creating and licensing software in the field of
 computational chemistry and represents and warrants to the
 licensee that it is not a competitor of Gaussian, Inc. and that
 it will not use this program in any manner prohibited above.
 ---------------------------------------------------------------
  

 Cite this work as:
 Gaussian 16, Revision B.01,
 M. J. Frisch, G. W. Trucks, H. B. Schlegel, G. E. Scuseria, 
 M. A. Robb, J. R. Cheeseman, G. Scalmani, V. Barone, 
 G. A. Petersson, H. Nakatsuji, X. Li, M. Caricato, A. V. Marenich, 
 J. Bloino, B. G. Janesko, R. Gomperts, B. Mennucci, H. P. Hratchian, 
 J. V. Ortiz, A. F. Izmaylov, J. L. Sonnenberg, D. Williams-Young, 
 F. Ding, F. Lipparini, F. Egidi, J. Goings, B. Peng, A. Petrone, 
 T. Henderson, D. Ranasinghe, V. G. Zakrzewski, J. Gao, N. Rega, 
 G. Zheng, W. Liang, M. Hada, M. Ehara, K. Toyota, R. Fukuda, 
 J. Hasegawa, M. Ishida, T. Nakajima, Y. Honda, O. Kitao, H. Nakai, 
 T. Vreven, K. Throssell, J. A. Montgomery, Jr., J. E. Peralta, 
 F. Ogliaro, M. J. Bearpark, J. J. Heyd, E. N. Brothers, K. N. Kudin, 
 V. N. Staroverov, T. A. Keith, R. Kobayashi, J. Normand, 
 K. Raghavachari, A. P. Rendell, J. C. Burant, S. S. Iyengar, 
 J. Tomasi, M. Cossi, J. M. Millam, M. Klene, C. Adamo, R. Cammi, 
 J. W. Ochterski, R. L. Martin, K. Morokuma, O. Farkas, 
 J. B. Foresman, and D. J. Fox, Gaussian, Inc., Wallingford CT, 2016.
 
 ******************************************
 Gaussian 16:  EM64L-G16RevB.01 20-Dec-2017
                22-Sep-2023 
 ******************************************
 %nprocshared=30
 Will use up to   30 processors via shared memory.
 %mem=30GB
 %chk=molecule_23.chk
 ---------------------------------------------------------
 # opt freq b3lyp/6-31+g(d) empiricaldispersion=gd3 volume
 ---------------------------------------------------------
 1/18=20,19=15,26=3,38=1/1,3;
 2/9=110,12=2,17=6,18=5,40=1/2;
 3/5=1,6=6,7=11,11=2,25=1,30=1,71=1,74=-5,124=31/1,2,3;
 4//1;
 5/5=2,38=5/2;
 6/7=2,8=2,9=2,10=2,28=1,44=1/1,4;
 7//1,2,3,16;
 1/18=20,19=15,26=3/3(2);
 2/9=110/2;
 99//99;
 2/9=110/2;
 3/5=1,6=6,7=11,11=2,25=1,30=1,71=1,74=-5,124=31/1,2,3;
 4/5=5,16=3,69=1/1;
 5/5=2,38=5/2;
 7//1,2,3,16;
 1/18=20,19=15,26=3/3(-5);
 2/9=110/2;
 6/7=2,8=2,9=2,10=2,19=2,28=1,44=1/1,4;
 99/9=1/99;
 -------------------
 Title Card Required
 -------------------
 Symbolic Z-matrix:
 Charge =  0 Multiplicity = 1
 C                    -4.53773   1.15292  -0.00077 
 C                    -3.1475    1.19644  -0.00058 
 C                    -2.39515   0.00226  -0.00028 
 C                    -3.08464  -1.22613  -0.00025 
 C                    -4.47823  -1.25343  -0.00045 
 C                    -5.23012  -0.06987  -0.00054 
 H                    -5.10001   2.08459  -0.00124 
 H                    -2.62886   2.15086  -0.00089 
 H                    -2.51928  -2.15358  -0.00031 
 H                    -4.99081  -2.21279  -0.00062 
 C                    -0.97201   0.03903  -0.00026 
 C                     0.2456    0.07025  -0.00021 
 C                     1.66683   0.10316  -0.00006 
 C                     2.35588   1.33533   0.00017 
 C                     2.41193  -1.10074  -0.00016 
 C                     3.7464    1.3575    0.0003 
 H                     1.78846   2.261     0.00025 
 C                     3.79858  -1.06941  -0.00003 
 H                     1.88221  -2.04866  -0.00035 
 C                     4.48038   0.16076   0.0002 
 H                     4.2717    2.31075   0.00048 
 H                     4.37918  -1.98736  -0.00012 
 C                     5.95721   0.20493   0.00033 
 O                     6.68425  -0.77459   0.00025 
 C                    -6.74025  -0.09466   0.00143 
 H                    -7.14613   0.43529  -0.86962 
 H                    -7.14263   0.39848   0.89562 
 H                    -7.12681  -1.11884  -0.01877 
 H                     6.39593   1.22699   0.00051 
 

 GradGradGradGradGradGradGradGradGradGradGradGradGradGradGradGradGradGrad
 Berny optimization.
 Initialization pass.
                           ----------------------------
                           !    Initial Parameters    !
                           ! (Angstroms and Degrees)  !
 --------------------------                            --------------------------
 ! Name  Definition              Value          Derivative Info.                !
 --------------------------------------------------------------------------------
 ! R1    R(1,2)                  1.3909         estimate D2E/DX2                !
 ! R2    R(1,6)                  1.4052         estimate D2E/DX2                !
 ! R3    R(1,7)                  1.0882         estimate D2E/DX2                !
 ! R4    R(2,3)                  1.4114         estimate D2E/DX2                !
 ! R5    R(2,8)                  1.0862         estimate D2E/DX2                !
 ! R6    R(3,4)                  1.4087         estimate D2E/DX2                !
 ! R7    R(3,11)                 1.4236         estimate D2E/DX2                !
 ! R8    R(4,5)                  1.3939         estimate D2E/DX2                !
 ! R9    R(4,9)                  1.0862         estimate D2E/DX2                !
 ! R10   R(5,6)                  1.4022         estimate D2E/DX2                !
 ! R11   R(5,10)                 1.0877         estimate D2E/DX2                !
 ! R12   R(6,25)                 1.5103         estimate D2E/DX2                !
 ! R13   R(11,12)                1.218          estimate D2E/DX2                !
 ! R14   R(12,13)                1.4216         estimate D2E/DX2                !
 ! R15   R(13,14)                1.4117         estimate D2E/DX2                !
 ! R16   R(13,15)                1.4158         estimate D2E/DX2                !
 ! R17   R(14,16)                1.3907         estimate D2E/DX2                !
 ! R18   R(14,17)                1.0857         estimate D2E/DX2                !
 ! R19   R(15,18)                1.387          estimate D2E/DX2                !
 ! R20   R(15,19)                1.0859         estimate D2E/DX2                !
 ! R21   R(16,20)                1.4039         estimate D2E/DX2                !
 ! R22   R(16,21)                1.0884         estimate D2E/DX2                !
 ! R23   R(18,20)                1.4065         estimate D2E/DX2                !
 ! R24   R(18,22)                1.0861         estimate D2E/DX2                !
 ! R25   R(20,23)                1.4775         estimate D2E/DX2                !
 ! R26   R(23,24)                1.2199         estimate D2E/DX2                !
 ! R27   R(23,29)                1.1122         estimate D2E/DX2                !
 ! R28   R(25,26)                1.0974         estimate D2E/DX2                !
 ! R29   R(25,27)                1.0976         estimate D2E/DX2                !
 ! R30   R(25,28)                1.0949         estimate D2E/DX2                !
 ! A1    A(2,1,6)              121.3131         estimate D2E/DX2                !
 ! A2    A(2,1,7)              119.3191         estimate D2E/DX2                !
 ! A3    A(6,1,7)              119.3678         estimate D2E/DX2                !
 ! A4    A(1,2,3)              120.4186         estimate D2E/DX2                !
 ! A5    A(1,2,8)              120.3129         estimate D2E/DX2                !
 ! A6    A(3,2,8)              119.2685         estimate D2E/DX2                !
 ! A7    A(2,3,4)              118.4832         estimate D2E/DX2                !
 ! A8    A(2,3,11)             120.7315         estimate D2E/DX2                !
 ! A9    A(4,3,11)             120.7853         estimate D2E/DX2                !
 ! A10   A(3,4,5)              120.4275         estimate D2E/DX2                !
 ! A11   A(3,4,9)              119.3292         estimate D2E/DX2                !
 ! A12   A(5,4,9)              120.2433         estimate D2E/DX2                !
 ! A13   A(4,5,6)              121.3045         estimate D2E/DX2                !
 ! A14   A(4,5,10)             119.2374         estimate D2E/DX2                !
 ! A15   A(6,5,10)             119.4581         estimate D2E/DX2                !
 ! A16   A(1,6,5)              118.0532         estimate D2E/DX2                !
 ! A17   A(1,6,25)             120.4605         estimate D2E/DX2                !
 ! A18   A(5,6,25)             121.4862         estimate D2E/DX2                !
 ! A19   A(12,13,14)           120.5413         estimate D2E/DX2                !
 ! A20   A(12,13,15)           120.4269         estimate D2E/DX2                !
 ! A21   A(14,13,15)           119.0318         estimate D2E/DX2                !
 ! A22   A(13,14,16)           120.1282         estimate D2E/DX2                !
 ! A23   A(13,14,17)           119.2778         estimate D2E/DX2                !
 ! A24   A(16,14,17)           120.594          estimate D2E/DX2                !
 ! A25   A(13,15,18)           120.4593         estimate D2E/DX2                !
 ! A26   A(13,15,19)           119.049          estimate D2E/DX2                !
 ! A27   A(18,15,19)           120.4917         estimate D2E/DX2                !
 ! A28   A(14,16,20)           120.6077         estimate D2E/DX2                !
 ! A29   A(14,16,21)           119.7716         estimate D2E/DX2                !
 ! A30   A(20,16,21)           119.6207         estimate D2E/DX2                !
 ! A31   A(15,18,20)           120.2908         estimate D2E/DX2                !
 ! A32   A(15,18,22)           121.0196         estimate D2E/DX2                !
 ! A33   A(20,18,22)           118.6896         estimate D2E/DX2                !
 ! A34   A(16,20,18)           119.4821         estimate D2E/DX2                !
 ! A35   A(16,20,23)           119.8081         estimate D2E/DX2                !
 ! A36   A(18,20,23)           120.7098         estimate D2E/DX2                !
 ! A37   A(20,23,24)           124.8713         estimate D2E/DX2                !
 ! A38   A(20,23,29)           114.9444         estimate D2E/DX2                !
 ! A39   A(24,23,29)           120.1843         estimate D2E/DX2                !
 ! A40   A(6,25,26)            111.1516         estimate D2E/DX2                !
 ! A41   A(6,25,27)            111.1155         estimate D2E/DX2                !
 ! A42   A(6,25,28)            111.6131         estimate D2E/DX2                !
 ! A43   A(26,25,27)           107.1029         estimate D2E/DX2                !
 ! A44   A(26,25,28)           107.8482         estimate D2E/DX2                !
 ! A45   A(27,25,28)           107.8115         estimate D2E/DX2                !
 ! A46   L(3,11,12,8,-1)       180.0116         estimate D2E/DX2                !
 ! A47   L(11,12,13,19,-1)     179.8581         estimate D2E/DX2                !
 ! A48   L(3,11,12,8,-2)       179.9981         estimate D2E/DX2                !
 ! A49   L(11,12,13,19,-2)     180.0046         estimate D2E/DX2                !
 ! D1    D(6,1,2,3)              0.0061         estimate D2E/DX2                !
 ! D2    D(6,1,2,8)            179.992          estimate D2E/DX2                !
 ! D3    D(7,1,2,3)           -179.9853         estimate D2E/DX2                !
 ! D4    D(7,1,2,8)              0.0006         estimate D2E/DX2                !
 ! D5    D(2,1,6,5)             -0.0155         estimate D2E/DX2                !
 ! D6    D(2,1,6,25)           179.9039         estimate D2E/DX2                !
 ! D7    D(7,1,6,5)            179.9759         estimate D2E/DX2                !
 ! D8    D(7,1,6,25)            -0.1047         estimate D2E/DX2                !
 ! D9    D(1,2,3,4)              0.0035         estimate D2E/DX2                !
 ! D10   D(1,2,3,11)           179.9918         estimate D2E/DX2                !
 ! D11   D(8,2,3,4)           -179.9825         estimate D2E/DX2                !
 ! D12   D(8,2,3,11)             0.0057         estimate D2E/DX2                !
 ! D13   D(2,3,4,5)             -0.0033         estimate D2E/DX2                !
 ! D14   D(2,3,4,9)            179.9826         estimate D2E/DX2                !
 ! D15   D(11,3,4,5)          -179.9916         estimate D2E/DX2                !
 ! D16   D(11,3,4,9)            -0.0056         estimate D2E/DX2                !
 ! D17   D(2,3,13,14)            0.0216         estimate D2E/DX2                !
 ! D18   D(2,3,13,15)         -179.9812         estimate D2E/DX2                !
 ! D19   D(4,3,13,14)         -179.9877         estimate D2E/DX2                !
 ! D20   D(4,3,13,15)            0.0095         estimate D2E/DX2                !
 ! D21   D(3,4,5,6)             -0.0065         estimate D2E/DX2                !
 ! D22   D(3,4,5,10)           179.9881         estimate D2E/DX2                !
 ! D23   D(9,4,5,6)           -179.9923         estimate D2E/DX2                !
 ! D24   D(9,4,5,10)             0.0023         estimate D2E/DX2                !
 ! D25   D(4,5,6,1)              0.0157         estimate D2E/DX2                !
 ! D26   D(4,5,6,25)          -179.9028         estimate D2E/DX2                !
 ! D27   D(10,5,6,1)          -179.9789         estimate D2E/DX2                !
 ! D28   D(10,5,6,25)            0.1026         estimate D2E/DX2                !
 ! D29   D(1,6,25,26)           58.4167         estimate D2E/DX2                !
 ! D30   D(1,6,25,27)          -60.756          estimate D2E/DX2                !
 ! D31   D(1,6,25,28)          178.8661         estimate D2E/DX2                !
 ! D32   D(5,6,25,26)         -121.6667         estimate D2E/DX2                !
 ! D33   D(5,6,25,27)          119.1606         estimate D2E/DX2                !
 ! D34   D(5,6,25,28)           -1.2173         estimate D2E/DX2                !
 ! D35   D(12,13,14,16)       -179.9992         estimate D2E/DX2                !
 ! D36   D(12,13,14,17)          0.0008         estimate D2E/DX2                !
 ! D37   D(15,13,14,16)          0.0001         estimate D2E/DX2                !
 ! D38   D(15,13,14,17)       -179.9999         estimate D2E/DX2                !
 ! D39   D(12,13,15,18)        179.9991         estimate D2E/DX2                !
 ! D40   D(12,13,15,19)         -0.0005         estimate D2E/DX2                !
 ! D41   D(14,13,15,18)         -0.0002         estimate D2E/DX2                !
 ! D42   D(14,13,15,19)       -179.9998         estimate D2E/DX2                !
 ! D43   D(13,14,16,20)          0.0            estimate D2E/DX2                !
 ! D44   D(13,14,16,21)        179.9999         estimate D2E/DX2                !
 ! D45   D(17,14,16,20)       -180.0            estimate D2E/DX2                !
 ! D46   D(17,14,16,21)         -0.0001         estimate D2E/DX2                !
 ! D47   D(13,15,18,20)          0.0001         estimate D2E/DX2                !
 ! D48   D(13,15,18,22)       -179.9996         estimate D2E/DX2                !
 ! D49   D(19,15,18,20)        179.9998         estimate D2E/DX2                !
 ! D50   D(19,15,18,22)          0.0            estimate D2E/DX2                !
 ! D51   D(14,16,20,18)         -0.0001         estimate D2E/DX2                !
 ! D52   D(14,16,20,23)        179.9996         estimate D2E/DX2                !
 ! D53   D(21,16,20,18)       -179.9999         estimate D2E/DX2                !
 ! D54   D(21,16,20,23)         -0.0002         estimate D2E/DX2                !
 ! D55   D(15,18,20,16)          0.0            estimate D2E/DX2                !
 ! D56   D(15,18,20,23)       -179.9997         estimate D2E/DX2                !
 ! D57   D(22,18,20,16)        179.9998         estimate D2E/DX2                !
 ! D58   D(22,18,20,23)          0.0001         estimate D2E/DX2                !
 ! D59   D(16,20,23,24)       -179.9994         estimate D2E/DX2                !
 ! D60   D(16,20,23,29)          0.0            estimate D2E/DX2                !
 ! D61   D(18,20,23,24)          0.0003         estimate D2E/DX2                !
 ! D62   D(18,20,23,29)        179.9997         estimate D2E/DX2                !
 --------------------------------------------------------------------------------
 Trust Radius=3.00D-01 FncErr=1.00D-07 GrdErr=1.00D-06 EigMax=2.50D+02 EigMin=1.00D-04
 Number of steps in this run=    151 maximum allowed number of steps=    174.
 GradGradGradGradGradGradGradGradGradGradGradGradGradGradGradGradGradGrad

                          Input orientation:                          
 ---------------------------------------------------------------------
 Center     Atomic      Atomic             Coordinates (Angstroms)
 Number     Number       Type             X           Y           Z
 ---------------------------------------------------------------------
      1          6           0       -4.537728    1.152919   -0.000766
      2          6           0       -3.147497    1.196439   -0.000577
      3          6           0       -2.395146    0.002262   -0.000278
      4          6           0       -3.084636   -1.226133   -0.000253
      5          6           0       -4.478229   -1.253433   -0.000449
      6          6           0       -5.230115   -0.069871   -0.000539
      7          1           0       -5.100013    2.084585   -0.001239
      8          1           0       -2.628860    2.150859   -0.000889
      9          1           0       -2.519283   -2.153583   -0.000312
     10          1           0       -4.990805   -2.212791   -0.000623
     11          6           0       -0.972010    0.039034   -0.000259
     12          6           0        0.245598    0.070248   -0.000210
     13          6           0        1.666827    0.103161   -0.000061
     14          6           0        2.355875    1.335328    0.000174
     15          6           0        2.411927   -1.100741   -0.000161
     16          6           0        3.746398    1.357502    0.000302
     17          1           0        1.788455    2.260998    0.000253
     18          6           0        3.798576   -1.069414   -0.000034
     19          1           0        1.882207   -2.048662   -0.000345
     20          6           0        4.480376    0.160758    0.000199
     21          1           0        4.271705    2.310746    0.000481
     22          1           0        4.379183   -1.987355   -0.000115
     23          6           0        5.957209    0.204930    0.000329
     24          8           0        6.684251   -0.774585    0.000245
     25          6           0       -6.740252   -0.094661    0.001433
     26          1           0       -7.146128    0.435288   -0.869617
     27          1           0       -7.142631    0.398475    0.895616
     28          1           0       -7.126807   -1.118839   -0.018774
     29          1           0        6.395925    1.226994    0.000507
 ---------------------------------------------------------------------
                    Distance matrix (angstroms):
                    1          2          3          4          5
     1  C    0.000000
     2  C    1.390912   0.000000
     3  C    2.432009   1.411414   0.000000
     4  C    2.787717   2.423387   1.408670   0.000000
     5  C    2.407087   2.787960   2.432284   1.393860   0.000000
     6  C    1.405210   2.437384   2.835887   2.437216   1.402195
     7  H    1.088194   2.145023   3.413558   3.875900   3.395435
     8  H    2.153987   1.086233   2.161271   3.407610   3.874193
     9  H    3.873897   3.408416   2.159416   1.086180   2.155862
    10  H    3.396069   3.875646   3.412317   2.146386   1.087705
    11  C    3.735651   2.464210   1.423611   2.462486   3.736849
    12  C    4.904323   3.575108   2.641619   3.573662   4.905780
    13  C    6.292734   4.936899   4.063226   4.933905   6.293017
    14  C    6.896016   5.505124   4.934498   6.013339   7.307986
    15  C    7.305935   6.015333   4.931994   5.497993   6.891848
    16  C    8.286652   6.895776   6.289296   7.303300   8.629106
    17  H    6.422494   5.049446   4.754409   5.992253   7.184884
    18  C    8.627440   7.306300   6.285752   6.884996   8.278850
    19  H    7.173959   5.985700   4.743631   5.034489   6.409956
    20  C    9.072518   7.697862   6.877349   7.691091   9.069539
    21  H    8.885194   7.502416   7.055211   8.162430   9.448001
    22  H    9.453709   8.172359   7.060461   7.502536   8.887766
    23  C   10.537665   9.158535   8.354814   9.154393  10.536849
    24  O   11.386311  10.027373   9.112571   9.779317  11.172746
    25  C    2.531318   3.817700   4.346187   3.826717   2.541555
    26  H    2.841416   4.162167   4.849236   4.473458   3.274892
    27  H    2.856257   4.171451   4.847497   4.461979   3.260486
    28  H    3.444494   4.603884   4.862697   4.043637   2.652059
    29  H   10.933904   9.543471   8.875973   9.792797  11.153463
                    6          7          8          9         10
     6  C    0.000000
     7  H    2.158381   0.000000
     8  H    3.420259   2.472042   0.000000
     9  H    3.419132   4.962080   4.305837   0.000000
    10  H    2.156241   4.298763   4.961877   2.472231   0.000000
    11  C    4.259497   4.607026   2.684205   2.683584   4.606672
    12  C    5.477505   5.712540   3.548444   3.548238   5.712459
    13  C    6.899112   7.050969   4.758781   4.755671   7.048950
    14  C    7.715039   7.493441   5.051007   5.994970   8.158606
    15  C    7.711258   8.159384   5.998536   5.042351   7.485793
    16  C    9.089289   8.876240   6.424432   7.182373   9.438523
    17  H    7.395490   6.890727   4.418688   6.168074   8.122386
    18  C    9.083851   9.441006   7.189026   6.410208   8.863438
    19  H    7.382462   8.113885   6.163254   4.402740   6.874971
    20  C    9.713229   9.771641   7.382529   7.372340   9.764067
    21  H    9.795505   9.374447   6.902417   8.126977  10.308078
    22  H    9.798742  10.316775   8.138641   6.900468   9.372700
    23  C   11.190699  11.215849   8.803819   8.798494  11.211797
    24  O   11.935189  12.126159   9.761775   9.306271  11.763306
    25  C    1.510342   2.727545   4.684646   4.696354   2.747188
    26  H    2.163698   2.767824   4.909540   5.372675   3.523193
    27  H    2.163368   2.796356   4.924297   5.356401   3.500330
    28  H    2.167512   3.790795   5.560825   4.722321   2.399909
    29  H   11.698148  11.527882   9.071950   9.534633  11.894946
                   11         12         13         14         15
    11  C    0.000000
    12  C    1.218008   0.000000
    13  C    2.639616   1.421610   0.000000
    14  C    3.571442   2.460426   1.411745   0.000000
    15  C    3.570731   2.462559   1.415823   2.436714   0.000000
    16  C    4.899156   3.729963   2.428577   1.390700   2.797101
    17  H    3.543627   2.679514   2.161262   1.085740   3.419065
    18  C    4.897668   3.731284   2.432958   2.804313   1.387003
    19  H    3.536245   2.677362   2.162575   3.416980   1.085890
    20  C    5.453745   4.235745   2.814138   2.427575   2.422780
    21  H    5.714650   4.607534   3.414502   2.149848   3.885488
    22  H    5.722021   4.617386   3.424490   3.890244   2.157818
    23  C    6.931205   5.713199   4.291589   3.774574   3.778068
    24  O    7.699371   6.493843   5.093622   4.815244   4.284756
    25  C    5.769791   6.987796   8.409406   9.207844   9.207311
    26  H    6.247602   7.451626   8.861976   9.584084   9.719658
    27  H    6.245667   7.449575   8.859797   9.586508   9.712860
    28  H    6.262790   7.467706   8.878155   9.795129   9.538769
    29  H    7.463090   6.258161   4.860799   4.041502   4.614173
                   16         17         18         19         20
    16  C    0.000000
    17  H    2.156350   0.000000
    18  C    2.427477   3.890017   0.000000
    19  H    3.882932   4.310680   2.152068   0.000000
    20  C    1.403895   3.414300   1.406476   3.410575   0.000000
    21  H    1.088403   2.483748   3.413112   4.971332   2.160091
    22  H    3.404186   4.975980   1.086149   2.497729   2.150495
    23  C    2.493212   4.648217   2.506721   4.656642   1.477493
    24  O    3.629983   5.760519   2.900697   4.968189   2.394145
    25  C   10.586718   8.848049  10.583810   8.841093  11.223535
    26  H   10.966055   9.160604  11.081825   9.404067  11.662227
    27  H   10.967783   9.167059  11.075509   9.393558  11.659870
    28  H   11.151646   9.534441  10.925511   9.056889  11.677518
    29  H    2.652739   4.722070   3.466946   5.577058   2.192302
                   21         22         23         24         25
    21  H    0.000000
    22  H    4.299445   0.000000
    23  C    2.697292   2.701163   0.000000
    24  O    3.916586   2.604640   1.219852   0.000000
    25  C   11.271609  11.279367  12.700995  13.441710   0.000000
    26  H   11.603505  11.809235  13.134204  13.910422   1.097410
    27  H   11.607976  11.800285  13.131824  13.905410   1.097568
    28  H   11.903298  11.538738  13.150825  13.815361   1.094885
    29  H    2.384707   3.794639   1.112244   2.022239  13.202497
                   26         27         28         29
    26  H    0.000000
    27  H    1.765620   0.000000
    28  H    1.771897   1.771610   0.000000
    29  H   13.593054  13.593387  13.724707   0.000000
 Stoichiometry    C16H12O
 Framework group  C1[X(C16H12O)]
 Deg. of freedom    81
 Full point group                 C1      NOp   1
 Largest Abelian subgroup         C1      NOp   1
 Largest concise Abelian subgroup C1      NOp   1
                         Standard orientation:                         
 ---------------------------------------------------------------------
 Center     Atomic      Atomic             Coordinates (Angstroms)
 Number     Number       Type             X           Y           Z
 ---------------------------------------------------------------------
      1          6           0       -4.537728    1.152919   -0.000766
      2          6           0       -3.147497    1.196439   -0.000577
      3          6           0       -2.395146    0.002262   -0.000278
      4          6           0       -3.084636   -1.226133   -0.000253
      5          6           0       -4.478229   -1.253433   -0.000449
      6          6           0       -5.230115   -0.069871   -0.000539
      7          1           0       -5.100013    2.084585   -0.001239
      8          1           0       -2.628860    2.150859   -0.000889
      9          1           0       -2.519283   -2.153583   -0.000312
     10          1           0       -4.990805   -2.212791   -0.000623
     11          6           0       -0.972010    0.039034   -0.000259
     12          6           0        0.245598    0.070248   -0.000210
     13          6           0        1.666827    0.103161   -0.000061
     14          6           0        2.355875    1.335328    0.000174
     15          6           0        2.411927   -1.100741   -0.000161
     16          6           0        3.746398    1.357502    0.000302
     17          1           0        1.788455    2.260998    0.000253
     18          6           0        3.798576   -1.069414   -0.000034
     19          1           0        1.882207   -2.048662   -0.000345
     20          6           0        4.480376    0.160758    0.000199
     21          1           0        4.271705    2.310746    0.000481
     22          1           0        4.379183   -1.987355   -0.000115
     23          6           0        5.957209    0.204930    0.000329
     24          8           0        6.684251   -0.774585    0.000245
     25          6           0       -6.740252   -0.094661    0.001433
     26          1           0       -7.146128    0.435288   -0.869617
     27          1           0       -7.142631    0.398475    0.895616
     28          1           0       -7.126807   -1.118839   -0.018774
     29          1           0        6.395925    1.226994    0.000507
 ---------------------------------------------------------------------
 Rotational constants (GHZ):           2.5965869           0.1305045           0.1243553
 Standard basis: 6-31+G(d) (6D, 7F)
 There are   347 symmetry adapted cartesian basis functions of A   symmetry.
 There are   347 symmetry adapted basis functions of A   symmetry.
   347 basis functions,   592 primitive gaussians,   347 cartesian basis functions
    58 alpha electrons       58 beta electrons
       nuclear repulsion energy       945.3754435928 Hartrees.
 NAtoms=   29 NActive=   29 NUniq=   29 SFac= 1.00D+00 NAtFMM=   60 NAOKFM=F Big=F
 Integral buffers will be    131072 words long.
 Raffenetti 2 integral format.
 Two-electron integral symmetry is turned on.
 Nuclear repulsion after empirical dispersion term =      945.3552962784 Hartrees.
 One-electron integrals computed using PRISM.
 NBasis=   347 RedAO= T EigKep=  1.17D-06  NBF=   347
 NBsUse=   343 1.00D-06 EigRej=  4.31D-07 NBFU=   343
 ExpMin= 4.38D-02 ExpMax= 5.48D+03 ExpMxC= 8.25D+02 IAcc=3 IRadAn=         5 AccDes= 0.00D+00
 Harris functional with IExCor=  402 and IRadAn=       5 diagonalized for initial guess.
 HarFok:  IExCor=  402 AccDes= 0.00D+00 IRadAn=         5 IDoV= 1 UseB2=F ITyADJ=14
 ICtDFT=  3500011 ScaDFX=  1.000000  1.000000  1.000000  1.000000
 FoFCou: FMM=F IPFlag=           0 FMFlag=      100000 FMFlg1=           0
         NFxFlg=           0 DoJE=T BraDBF=F KetDBF=T FulRan=T
         wScrn=  0.000000 ICntrl=       500 IOpCl=  0 I1Cent=   200000004 NGrid=           0
         NMat0=    1 NMatS0=      1 NMatT0=    0 NMatD0=    1 NMtDS0=    0 NMtDT0=    0
 Petite list used in FoFCou.
 Requested convergence on RMS density matrix=1.00D-08 within 128 cycles.
 Requested convergence on MAX density matrix=1.00D-06.
 Requested convergence on             energy=1.00D-06.
 No special actions if energy rises.
 SCF Done:  E(RB3LYP) =  -692.152044404     A.U. after   16 cycles
            NFock= 16  Conv=0.44D-08     -V/T= 2.0099

 **********************************************************************

            Population analysis using the SCF Density.

 **********************************************************************

 Orbital symmetries:
       Occupied  (A) (A) (A) (A) (A) (A) (A) (A) (A) (A) (A) (A)
                 (A) (A) (A) (A) (A) (A) (A) (A) (A) (A) (A) (A)
                 (A) (A) (A) (A) (A) (A) (A) (A) (A) (A) (A) (A)
                 (A) (A) (A) (A) (A) (A) (A) (A) (A) (A) (A) (A)
                 (A) (A) (A) (A) (A) (A) (A) (A) (A) (A)
       Virtual   (A) (A) (A) (A) (A) (A) (A) (A) (A) (A) (A) (A)
                 (A) (A) (A) (A) (A) (A) (A) (A) (A) (A) (A) (A)
                 (A) (A) (A) (A) (A) (A) (A) (A) (A) (A) (A) (A)
                 (A) (A) (A) (A) (A) (A) (A) (A) (A) (A) (A) (A)
                 (A) (A) (A) (A) (A) (A) (A) (A) (A) (A) (A) (A)
                 (A) (A) (A) (A) (A) (A) (A) (A) (A) (A) (A) (A)
                 (A) (A) (A) (A) (A) (A) (A) (A) (A) (A) (A) (A)
                 (A) (A) (A) (A) (A) (A) (A) (A) (A) (A) (A) (A)
                 (A) (A) (A) (A) (A) (A) (A) (A) (A) (A) (A) (A)
                 (A) (A) (A) (A) (A) (A) (A) (A) (A) (A) (A) (A)
                 (A) (A) (A) (A) (A) (A) (A) (A) (A) (A) (A) (A)
                 (A) (A) (A) (A) (A) (A) (A) (A) (A) (A) (A) (A)
                 (A) (A) (A) (A) (A) (A) (A) (A) (A) (A) (A) (A)
                 (A) (A) (A) (A) (A) (A) (A) (A) (A) (A) (A) (A)
                 (A) (A) (A) (A) (A) (A) (A) (A) (A) (A) (A) (A)
                 (A) (A) (A) (A) (A) (A) (A) (A) (A) (A) (A) (A)
                 (A) (A) (A) (A) (A) (A) (A) (A) (A) (A) (A) (A)
                 (A) (A) (A) (A) (A) (A) (A) (A) (A) (A) (A) (A)
                 (A) (A) (A) (A) (A) (A) (A) (A) (A) (A) (A) (A)
                 (A) (A) (A) (A) (A) (A) (A) (A) (A) (A) (A) (A)
                 (A) (A) (A) (A) (A) (A) (A) (A) (A) (A) (A) (A)
                 (A) (A) (A) (A) (A) (A) (A) (A) (A) (A) (A) (A)
                 (A) (A) (A) (A) (A) (A) (A) (A) (A) (A) (A) (A)
                 (A) (A) (A) (A) (A) (A) (A) (A) (A)
 The electronic state is 1-A.
 Alpha  occ. eigenvalues --  -19.15784 -10.28380 -10.24259 -10.23026 -10.22188
 Alpha  occ. eigenvalues --  -10.21971 -10.21834 -10.21714 -10.21691 -10.21551
 Alpha  occ. eigenvalues --  -10.21304 -10.21267 -10.21060 -10.20745 -10.20725
 Alpha  occ. eigenvalues --  -10.20640 -10.19963  -1.04971  -0.88587  -0.87920
 Alpha  occ. eigenvalues --   -0.81622  -0.79954  -0.77228  -0.76399  -0.75107
 Alpha  occ. eigenvalues --   -0.70775  -0.67016  -0.63381  -0.62600  -0.61376
 Alpha  occ. eigenvalues --   -0.58863  -0.56188  -0.53921  -0.50713  -0.48389
 Alpha  occ. eigenvalues --   -0.47964  -0.47766  -0.45847  -0.44549  -0.44218
 Alpha  occ. eigenvalues --   -0.43792  -0.43758  -0.43551  -0.41730  -0.40367
 Alpha  occ. eigenvalues --   -0.39663  -0.39204  -0.37869  -0.36976  -0.36874
 Alpha  occ. eigenvalues --   -0.35954  -0.32721  -0.28619  -0.28264  -0.27800
 Alpha  occ. eigenvalues --   -0.27068  -0.26649  -0.22784
 Alpha virt. eigenvalues --   -0.09015  -0.03865  -0.03062  -0.02599  -0.00295
 Alpha virt. eigenvalues --    0.00421   0.01008   0.01210   0.01579   0.02429
 Alpha virt. eigenvalues --    0.03066   0.03278   0.04076   0.04246   0.04414
 Alpha virt. eigenvalues --    0.05296   0.05410   0.05766   0.05792   0.06241
 Alpha virt. eigenvalues --    0.07061   0.07898   0.08037   0.08275   0.08774
 Alpha virt. eigenvalues --    0.08894   0.09716   0.10123   0.11162   0.11496
 Alpha virt. eigenvalues --    0.11938   0.12026   0.12261   0.12830   0.13718
 Alpha virt. eigenvalues --    0.14279   0.14532   0.14678   0.14723   0.15154
 Alpha virt. eigenvalues --    0.15364   0.15721   0.15846   0.16243   0.16798
 Alpha virt. eigenvalues --    0.17871   0.17910   0.18441   0.18817   0.19790
 Alpha virt. eigenvalues --    0.19981   0.20160   0.20663   0.21342   0.21679
 Alpha virt. eigenvalues --    0.21895   0.22233   0.22574   0.22992   0.23332
 Alpha virt. eigenvalues --    0.23630   0.23781   0.23933   0.24924   0.25086
 Alpha virt. eigenvalues --    0.25204   0.25725   0.26045   0.26386   0.26793
 Alpha virt. eigenvalues --    0.27184   0.27905   0.27983   0.28834   0.29104
 Alpha virt. eigenvalues --    0.29212   0.29796   0.30922   0.31191   0.32062
 Alpha virt. eigenvalues --    0.32546   0.32776   0.33335   0.34025   0.34780
 Alpha virt. eigenvalues --    0.35077   0.36606   0.37690   0.38336   0.40200
 Alpha virt. eigenvalues --    0.40630   0.41118   0.41738   0.43112   0.44007
 Alpha virt. eigenvalues --    0.47922   0.50089   0.51009   0.55399   0.57146
 Alpha virt. eigenvalues --    0.59040   0.59542   0.63356   0.64893   0.65609
 Alpha virt. eigenvalues --    0.66186   0.66888   0.67691   0.68370   0.69551
 Alpha virt. eigenvalues --    0.69849   0.70019   0.70541   0.70718   0.71226
 Alpha virt. eigenvalues --    0.72678   0.72789   0.73071   0.74508   0.74539
 Alpha virt. eigenvalues --    0.75199   0.75615   0.76632   0.77150   0.77700
 Alpha virt. eigenvalues --    0.77958   0.79377   0.79445   0.79797   0.80252
 Alpha virt. eigenvalues --    0.82550   0.83166   0.83780   0.84302   0.85664
 Alpha virt. eigenvalues --    0.87232   0.87924   0.89223   0.90339   0.93117
 Alpha virt. eigenvalues --    0.94003   0.94356   0.96219   0.97060   0.98292
 Alpha virt. eigenvalues --    0.98621   0.99055   1.01093   1.04553   1.04853
 Alpha virt. eigenvalues --    1.06014   1.08459   1.08643   1.10127   1.12827
 Alpha virt. eigenvalues --    1.14807   1.16055   1.16716   1.18305   1.19287
 Alpha virt. eigenvalues --    1.19929   1.21922   1.21977   1.22703   1.23180
 Alpha virt. eigenvalues --    1.23222   1.23894   1.25249   1.26074   1.28389
 Alpha virt. eigenvalues --    1.29938   1.31132   1.32229   1.32701   1.33332
 Alpha virt. eigenvalues --    1.33665   1.37383   1.38112   1.39357   1.41573
 Alpha virt. eigenvalues --    1.43036   1.43214   1.44362   1.44646   1.45347
 Alpha virt. eigenvalues --    1.45381   1.48120   1.49460   1.52033   1.52911
 Alpha virt. eigenvalues --    1.55389   1.56285   1.57018   1.59681   1.67029
 Alpha virt. eigenvalues --    1.72057   1.74758   1.75493   1.80621   1.81618
 Alpha virt. eigenvalues --    1.82684   1.83700   1.85213   1.86149   1.88229
 Alpha virt. eigenvalues --    1.89233   1.89577   1.89830   1.90747   1.91410
 Alpha virt. eigenvalues --    1.92683   1.97560   1.97797   1.98120   1.98709
 Alpha virt. eigenvalues --    2.03016   2.05723   2.08096   2.09653   2.09943
 Alpha virt. eigenvalues --    2.10375   2.12892   2.13161   2.14325   2.15606
 Alpha virt. eigenvalues --    2.18192   2.18712   2.21811   2.23094   2.25403
 Alpha virt. eigenvalues --    2.29050   2.29331   2.30113   2.31194   2.35288
 Alpha virt. eigenvalues --    2.36120   2.37378   2.37616   2.38627   2.41211
 Alpha virt. eigenvalues --    2.46053   2.49999   2.52564   2.57532   2.58589
 Alpha virt. eigenvalues --    2.60517   2.61463   2.63283   2.63347   2.65398
 Alpha virt. eigenvalues --    2.69421   2.73710   2.74822   2.75548   2.79545
 Alpha virt. eigenvalues --    2.84737   2.85745   2.90182   2.91126   2.94445
 Alpha virt. eigenvalues --    3.00496   3.01370   3.07963   3.17318   3.28276
 Alpha virt. eigenvalues --    3.33176   3.40250   3.59732   4.15919   4.20867
 Alpha virt. eigenvalues --    4.22343   4.22972   4.24276   4.25201   4.29138
 Alpha virt. eigenvalues --    4.32537   4.35401   4.38752   4.40233   4.42170
 Alpha virt. eigenvalues --    4.46074   4.57961   4.65775   4.77553   4.99023
          Condensed to atoms (all electrons):
               1          2          3          4          5          6
     1  C    9.722727  -6.299313   0.978512   3.348073  -1.870316   0.526433
     2  C   -6.299313  20.180798  -1.936459  -9.129907   2.755894  -0.382994
     3  C    0.978512  -1.936459   9.475370  -1.894279   0.924695   0.061194
     4  C    3.348073  -9.129907  -1.894279  17.760558  -4.835102   0.483239
     5  C   -1.870316   2.755894   0.924695  -4.835102   9.626941  -0.244542
     6  C    0.526433  -0.382994   0.061194   0.483239  -0.244542   6.930660
     7  H    0.247163  -0.089529   0.018423  -0.016751   0.080238   0.067537
     8  H   -0.103363   0.368612  -0.031097   0.018640  -0.006364   0.006602
     9  H   -0.007749   0.021747  -0.021119   0.351896  -0.095539  -0.001900
    10  H    0.028703  -0.000793   0.036678  -0.066688   0.283963   0.040059
    11  C   -0.246676   0.502921  -1.184547   0.484273  -0.147484  -0.125520
    12  C    0.026361  -0.096189  -0.701986   0.098535  -0.028692  -0.127335
    13  C    0.091394  -0.193067   0.710141  -0.207354   0.062079   0.035660
    14  C   -0.128691   0.493005  -0.132352  -0.404366   0.070729   0.002491
    15  C    0.096281  -0.369685  -0.372569   0.497394  -0.089318  -0.005641
    16  C    0.024489  -0.147285   0.058363   0.118569  -0.021387   0.000568
    17  H    0.000184   0.004518  -0.003244  -0.000880   0.000053   0.000011
    18  C   -0.036894   0.137595   0.223780  -0.210263   0.029440   0.003211
    19  H    0.000008   0.000715   0.001449   0.000284  -0.000001  -0.000004
    20  C   -0.000330   0.012871   0.032095  -0.010630   0.001882   0.002375
    21  H    0.000006   0.000112  -0.000228  -0.000041  -0.000002   0.000000
    22  H   -0.000001  -0.000017  -0.000156   0.000059   0.000005   0.000000
    23  C    0.000039  -0.000021   0.015961  -0.000577   0.000022   0.000244
    24  O    0.000001   0.000006  -0.000011  -0.000002   0.000000   0.000000
    25  C   -0.327531   0.184178  -0.454355  -0.120469   0.248561  -1.249916
    26  H   -0.052384   0.011317  -0.002488  -0.012436   0.048568  -0.091430
    27  H   -0.053979   0.010018  -0.002372  -0.011328   0.047162  -0.085453
    28  H    0.043103  -0.017199  -0.007872   0.026787  -0.058109  -0.137785
    29  H    0.000000   0.000002   0.000001   0.000000   0.000000   0.000000
               7          8          9         10         11         12
     1  C    0.247163  -0.103363  -0.007749   0.028703  -0.246676   0.026361
     2  C   -0.089529   0.368612   0.021747  -0.000793   0.502921  -0.096189
     3  C    0.018423  -0.031097  -0.021119   0.036678  -1.184547  -0.701986
     4  C   -0.016751   0.018640   0.351896  -0.066688   0.484273   0.098535
     5  C    0.080238  -0.006364  -0.095539   0.283963  -0.147484  -0.028692
     6  C    0.067537   0.006602  -0.001900   0.040059  -0.125520  -0.127335
     7  H    0.540416  -0.004338   0.000018  -0.000164  -0.005198   0.001584
     8  H   -0.004338   0.526353  -0.000154   0.000017   0.028924   0.000465
     9  H    0.000018  -0.000154   0.525680  -0.004319   0.033045  -0.000581
    10  H   -0.000164   0.000017  -0.004319   0.540841  -0.006579   0.001022
    11  C   -0.005198   0.028924   0.033045  -0.006579   7.095663   0.593552
    12  C    0.001584   0.000465  -0.000581   0.001022   0.593552   6.592888
    13  C   -0.000201  -0.001934  -0.000341  -0.000170  -0.937199  -0.277429
    14  C    0.000093   0.002672   0.000121  -0.000033  -0.023588   0.200346
    15  C   -0.000036  -0.000191   0.002215   0.000083   0.385568  -0.190772
    16  C    0.000000   0.000177  -0.000004  -0.000002   0.057506  -0.091248
    17  H    0.000000   0.000002   0.000000   0.000000   0.000676   0.032226
    18  C   -0.000001   0.000012   0.000312   0.000004  -0.311978   0.111107
    19  H    0.000000   0.000000   0.000003   0.000000  -0.004464   0.028029
    20  C    0.000000  -0.000029  -0.000001   0.000000  -0.148171  -0.159628
    21  H    0.000000   0.000000   0.000000   0.000000   0.001021  -0.008212
    22  H    0.000000   0.000000   0.000000   0.000000   0.000984  -0.006430
    23  C    0.000000  -0.000003  -0.000002   0.000000  -0.070791   0.110961
    24  O    0.000000   0.000000   0.000000   0.000000   0.000022  -0.001294
    25  C   -0.022095   0.000821   0.001636  -0.036640   0.082547  -0.052925
    26  H    0.000995  -0.000002   0.000002   0.000101   0.000562  -0.000030
    27  H    0.000903  -0.000002   0.000002   0.000109   0.000533  -0.000031
    28  H    0.000071   0.000002  -0.000006   0.004450   0.000321  -0.000013
    29  H    0.000000   0.000000   0.000000   0.000000  -0.000007   0.000612
              13         14         15         16         17         18
     1  C    0.091394  -0.128691   0.096281   0.024489   0.000184  -0.036894
     2  C   -0.193067   0.493005  -0.369685  -0.147285   0.004518   0.137595
     3  C    0.710141  -0.132352  -0.372569   0.058363  -0.003244   0.223780
     4  C   -0.207354  -0.404366   0.497394   0.118569  -0.000880  -0.210263
     5  C    0.062079   0.070729  -0.089318  -0.021387   0.000053   0.029440
     6  C    0.035660   0.002491  -0.005641   0.000568   0.000011   0.003211
     7  H   -0.000201   0.000093  -0.000036   0.000000   0.000000  -0.000001
     8  H   -0.001934   0.002672  -0.000191   0.000177   0.000002   0.000012
     9  H   -0.000341   0.000121   0.002215  -0.000004   0.000000   0.000312
    10  H   -0.000170  -0.000033   0.000083  -0.000002   0.000000   0.000004
    11  C   -0.937199  -0.023588   0.385568   0.057506   0.000676  -0.311978
    12  C   -0.277429   0.200346  -0.190772  -0.091248   0.032226   0.111107
    13  C    7.743591  -1.372860  -0.831407   1.204277  -0.028507   0.673021
    14  C   -1.372860  14.234422  -4.799731  -4.855812   0.404695   1.798208
    15  C   -0.831407  -4.799731  17.000047   1.955279   0.016326  -7.645985
    16  C    1.204277  -4.855812   1.955279  11.295107  -0.133286  -2.053848
    17  H   -0.028507   0.404695   0.016326  -0.133286   0.517910  -0.005708
    18  C    0.673021   1.798208  -7.645985  -2.053848  -0.005708  13.017709
    19  H   -0.052524   0.020893   0.362542  -0.020563  -0.000138  -0.062140
    20  C   -0.025169   0.187193  -0.078569  -1.144019  -0.002227   0.890925
    21  H    0.035819  -0.030832   0.009737   0.232318  -0.003901   0.018581
    22  H    0.023340   0.006423  -0.101525   0.039215   0.000014   0.289193
    23  C   -0.674663   0.331665   0.140194   0.335337   0.002787  -0.463444
    24  O   -0.021748   0.042265   0.158581   0.020031   0.000029  -0.263857
    25  C    0.012458   0.000006  -0.000312  -0.000116  -0.000002   0.000245
    26  H    0.000003   0.000001   0.000000   0.000000   0.000000   0.000000
    27  H    0.000003   0.000000   0.000000   0.000000   0.000000   0.000000
    28  H    0.000001   0.000000   0.000000   0.000000   0.000000   0.000000
    29  H   -0.007108   0.077641   0.000765   0.122970   0.000005  -0.076952
              19         20         21         22         23         24
     1  C    0.000008  -0.000330   0.000006  -0.000001   0.000039   0.000001
     2  C    0.000715   0.012871   0.000112  -0.000017  -0.000021   0.000006
     3  C    0.001449   0.032095  -0.000228  -0.000156   0.015961  -0.000011
     4  C    0.000284  -0.010630  -0.000041   0.000059  -0.000577  -0.000002
     5  C   -0.000001   0.001882  -0.000002   0.000005   0.000022   0.000000
     6  C   -0.000004   0.002375   0.000000   0.000000   0.000244   0.000000
     7  H    0.000000   0.000000   0.000000   0.000000   0.000000   0.000000
     8  H    0.000000  -0.000029   0.000000   0.000000  -0.000003   0.000000
     9  H    0.000003  -0.000001   0.000000   0.000000  -0.000002   0.000000
    10  H    0.000000   0.000000   0.000000   0.000000   0.000000   0.000000
    11  C   -0.004464  -0.148171   0.001021   0.000984  -0.070791   0.000022
    12  C    0.028029  -0.159628  -0.008212  -0.006430   0.110961  -0.001294
    13  C   -0.052524  -0.025169   0.035819   0.023340  -0.674663  -0.021748
    14  C    0.020893   0.187193  -0.030832   0.006423   0.331665   0.042265
    15  C    0.362542  -0.078569   0.009737  -0.101525   0.140194   0.158581
    16  C   -0.020563  -1.144019   0.232318   0.039215   0.335337   0.020031
    17  H   -0.000138  -0.002227  -0.003901   0.000014   0.002787   0.000029
    18  C   -0.062140   0.890925   0.018581   0.289193  -0.463444  -0.263857
    19  H    0.517060   0.011240   0.000017  -0.003636   0.001299   0.000136
    20  C    0.011240   8.392504   0.064683   0.063787  -2.226960  -0.179430
    21  H    0.000017   0.064683   0.527631  -0.000141  -0.042614   0.000501
    22  H   -0.003636   0.063787  -0.000141   0.490010  -0.028019   0.006632
    23  C    0.001299  -2.226960  -0.042614  -0.028019   7.506942   0.518533
    24  O    0.000136  -0.179430   0.000501   0.006632   0.518533   8.166620
    25  C   -0.000001   0.000241   0.000000   0.000000   0.000012   0.000000
    26  H    0.000000   0.000000   0.000000   0.000000   0.000000   0.000000
    27  H    0.000000   0.000000   0.000000   0.000000   0.000000   0.000000
    28  H    0.000000   0.000000   0.000000   0.000000   0.000000   0.000000
    29  H    0.000003  -0.381191   0.005961   0.000099   0.534218  -0.063907
              25         26         27         28         29
     1  C   -0.327531  -0.052384  -0.053979   0.043103   0.000000
     2  C    0.184178   0.011317   0.010018  -0.017199   0.000002
     3  C   -0.454355  -0.002488  -0.002372  -0.007872   0.000001
     4  C   -0.120469  -0.012436  -0.011328   0.026787   0.000000
     5  C    0.248561   0.048568   0.047162  -0.058109   0.000000
     6  C   -1.249916  -0.091430  -0.085453  -0.137785   0.000000
     7  H   -0.022095   0.000995   0.000903   0.000071   0.000000
     8  H    0.000821  -0.000002  -0.000002   0.000002   0.000000
     9  H    0.001636   0.000002   0.000002  -0.000006   0.000000
    10  H   -0.036640   0.000101   0.000109   0.004450   0.000000
    11  C    0.082547   0.000562   0.000533   0.000321  -0.000007
    12  C   -0.052925  -0.000030  -0.000031  -0.000013   0.000612
    13  C    0.012458   0.000003   0.000003   0.000001  -0.007108
    14  C    0.000006   0.000001   0.000000   0.000000   0.077641
    15  C   -0.000312   0.000000   0.000000   0.000000   0.000765
    16  C   -0.000116   0.000000   0.000000   0.000000   0.122970
    17  H   -0.000002   0.000000   0.000000   0.000000   0.000005
    18  C    0.000245   0.000000   0.000000   0.000000  -0.076952
    19  H   -0.000001   0.000000   0.000000   0.000000   0.000003
    20  C    0.000241   0.000000   0.000000   0.000000  -0.381191
    21  H    0.000000   0.000000   0.000000   0.000000   0.005961
    22  H    0.000000   0.000000   0.000000   0.000000   0.000099
    23  C    0.000012   0.000000   0.000000   0.000000   0.534218
    24  O    0.000000   0.000000   0.000000   0.000000  -0.063907
    25  C    7.110728   0.430014   0.426754   0.489706   0.000000
    26  H    0.430014   0.498979  -0.032330  -0.025519   0.000000
    27  H    0.426754  -0.032330   0.498485  -0.025613   0.000000
    28  H    0.489706  -0.025519  -0.025613   0.500067   0.000000
    29  H    0.000000   0.000000   0.000000   0.000000   0.632227
 Mulliken charges:
               1
     1  C   -0.006249
     2  C   -0.021853
     3  C    0.208473
     4  C   -0.267234
     5  C   -0.783380
     6  C    0.292235
     7  H    0.180871
     8  H    0.194176
     9  H    0.195036
    10  H    0.179356
    11  C   -0.055918
    12  C   -0.054892
    13  C    0.039896
    14  C   -0.124605
    15  C   -0.139272
    16  C   -0.996636
    17  H    0.198457
    18  C   -0.062274
    19  H    0.199795
    20  C    0.696558
    21  H    0.189586
    22  H    0.220163
    23  C    0.008882
    24  O   -0.383110
    25  C   -0.723544
    26  H    0.226075
    27  H    0.227138
    28  H    0.207607
    29  H    0.154661
 Sum of Mulliken charges =   0.00000
 Mulliken charges with hydrogens summed into heavy atoms:
               1
     1  C    0.174622
     2  C    0.172323
     3  C    0.208473
     4  C   -0.072197
     5  C   -0.604024
     6  C    0.292235
    11  C   -0.055918
    12  C   -0.054892
    13  C    0.039896
    14  C    0.073852
    15  C    0.060524
    16  C   -0.807050
    18  C    0.157890
    20  C    0.696558
    23  C    0.163543
    24  O   -0.383110
    25  C   -0.062724
 Electronic spatial extent (au):  <R**2>=           8097.8841
 Charge=              0.0000 electrons
 Dipole moment (field-independent basis, Debye):
    X=             -5.0914    Y=              1.7627    Z=              0.0029  Tot=              5.3879
 Quadrupole moment (field-independent basis, Debye-Ang):
   XX=           -110.3382   YY=            -89.3999   ZZ=           -104.8765
   XY=             12.2644   XZ=             -0.0184   YZ=              0.0002
 Traceless Quadrupole moment (field-independent basis, Debye-Ang):
   XX=             -8.8000   YY=             12.1383   ZZ=             -3.3383
   XY=             12.2644   XZ=             -0.0184   YZ=              0.0002
 Octapole moment (field-independent basis, Debye-Ang**2):
  XXX=           -340.0103  YYY=             -1.1232  ZZZ=              0.0519  XYY=             -0.1345
  XXY=             85.4765  XXZ=              0.1152  XZZ=             11.6178  YZZ=             -1.0217
  YYZ=             -0.0394  XYZ=              0.0153
 Hexadecapole moment (field-independent basis, Debye-Ang**3):
 XXXX=         -11629.6512 YYYY=           -616.0165 ZZZZ=           -131.6338 XXXY=            559.3716
 XXXZ=             -0.7687 YYYX=              1.7554 YYYZ=              0.0108 ZZZX=             -0.3783
 ZZZY=              0.0014 XXYY=          -1748.5891 XXZZ=          -1815.1620 YYZZ=           -147.4307
 XXYZ=             -0.0169 YYXZ=              0.2669 ZZXY=            -13.1561
 N-N= 9.453552962784D+02 E-N=-3.494451783630D+03  KE= 6.853845864388D+02
 Evaluate density.
 Using the total density.
 Monte-Carlo method of calculating molar volume:
 based on  0.001 e/bohr**3 density envelope.
 Number of points per bohr**3 =   20 CutOff= 1.00D-04
 Using the SCF density.
 There are       410 points.  Will hold       410 in memory.
 LenV=  4026267174 MDV=  4026531840.
 Box volume = 8662.941 fraction occupied=0.261
 Integrated density= 1.8664471126488530D+02 error= 7.0644711264885302D+01
 Molar volume = 2260.816 bohr**3/mol (201.753 cm**3/mol)
 Recommended a0 for SCRF calculation =  5.24 angstrom (  9.91 bohr)
 Calling FoFJK, ICntrl=      2127 FMM=F ISym2X=0 I1Cent= 0 IOpClX= 0 NMat=1 NMatS=1 NMatT=0.
 ***** Axes restored to original set *****
 -------------------------------------------------------------------
 Center     Atomic                   Forces (Hartrees/Bohr)
 Number     Number              X              Y              Z
 -------------------------------------------------------------------
      1        6           0.000011769    0.000007678   -0.000000356
      2        6          -0.000011045    0.000004161   -0.000000023
      3        6          -0.000002825   -0.000012235   -0.000002584
      4        6           0.000011672    0.000007035   -0.000000005
      5        6          -0.000011152    0.000006593    0.000001391
      6        6          -0.000000604   -0.000012799   -0.000000659
      7        1          -0.000000819   -0.000001366   -0.000000166
      8        1           0.000001571   -0.000000079   -0.000000127
      9        1           0.000000244   -0.000001082   -0.000000041
     10        1           0.000001225   -0.000000646   -0.000000085
     11        6           0.000007791    0.000000725    0.000000744
     12        6          -0.000006955    0.000000076    0.000005147
     13        6           0.000001923    0.000008929   -0.000003541
     14        6          -0.000010688   -0.000004461   -0.000000152
     15        6           0.000009405   -0.000002175   -0.000000282
     16        6           0.000007829   -0.000003339    0.000000214
     17        1          -0.000000564    0.000000727   -0.000000153
     18        6          -0.000009498   -0.000006996    0.000000388
     19        1          -0.000001056    0.000000272   -0.000000026
     20        6           0.000003209    0.000006801    0.000000251
     21        1          -0.000000660    0.000000176    0.000000081
     22        1           0.000000376    0.000001447    0.000000095
     23        6          -0.000000597   -0.000000961   -0.000001022
     24        8           0.000000370    0.000001097    0.000000404
     25        6          -0.000002375    0.000004700   -0.000000106
     26        1           0.000001018   -0.000000922    0.000001003
     27        1           0.000000981   -0.000002179   -0.000000255
     28        1          -0.000000296   -0.000002676   -0.000000479
     29        1          -0.000000249    0.000001497    0.000000342
 -------------------------------------------------------------------
 Cartesian Forces:  Max     0.000012799 RMS     0.000004565

 GradGradGradGradGradGradGradGradGradGradGradGradGradGradGradGradGradGrad
 Berny optimization.
 FormGI is forming the generalized inverse of G from B-inverse, IUseBI=4.
 Internal  Forces:  Max     0.000008390 RMS     0.000002115
 Search for a local minimum.
 Step number   1 out of a maximum of  151
 All quantities printed in internal units (Hartrees-Bohrs-Radians)
 Mixed Optimization -- En-DIIS/RFO-DIIS
 Second derivative matrix not updated -- first step.
 ITU=  0
     Eigenvalues ---    0.00230   0.00629   0.01030   0.01064   0.01064
     Eigenvalues ---    0.01373   0.01487   0.01729   0.01803   0.01872
     Eigenvalues ---    0.01944   0.01979   0.02043   0.02050   0.02052
     Eigenvalues ---    0.02060   0.02091   0.02096   0.02101   0.02110
     Eigenvalues ---    0.02123   0.02134   0.02141   0.02160   0.03778
     Eigenvalues ---    0.04496   0.07049   0.07149   0.16000   0.16000
     Eigenvalues ---    0.16000   0.16000   0.16000   0.16000   0.16000
     Eigenvalues ---    0.16000   0.16000   0.16000   0.16000   0.16000
     Eigenvalues ---    0.22000   0.22000   0.22000   0.22957   0.22963
     Eigenvalues ---    0.24000   0.24000   0.25000   0.25000   0.25000
     Eigenvalues ---    0.25000   0.31316   0.32364   0.33953   0.33970
     Eigenvalues ---    0.34254   0.34858   0.34998   0.35022   0.35079
     Eigenvalues ---    0.35252   0.35258   0.35261   0.35292   0.35310
     Eigenvalues ---    0.40458   0.40926   0.41374   0.41412   0.41921
     Eigenvalues ---    0.42219   0.44130   0.44199   0.44460   0.44555
     Eigenvalues ---    0.45699   0.45884   0.46939   0.47565   0.95449
     Eigenvalues ---    0.96271
 RFO step:  Lambda= 0.00000000D+00 EMin= 2.30000000D-03
 Linear search not attempted -- first point.
 Iteration  1 RMS(Cart)=  0.00023431 RMS(Int)=  0.00000001
 Iteration  2 RMS(Cart)=  0.00000005 RMS(Int)=  0.00000000
 Variable       Old X    -DE/DX   Delta X   Delta X   Delta X     New X
                                 (Linear)    (Quad)   (Total)
    R1        2.62844  -0.00001   0.00000  -0.00001  -0.00001   2.62843
    R2        2.65546   0.00001   0.00000   0.00002   0.00002   2.65548
    R3        2.05639   0.00000   0.00000   0.00000   0.00000   2.05639
    R4        2.66719   0.00001   0.00000   0.00001   0.00001   2.66720
    R5        2.05268   0.00000   0.00000   0.00000   0.00000   2.05269
    R6        2.66200  -0.00001   0.00000  -0.00002  -0.00002   2.66198
    R7        2.69023   0.00000   0.00000   0.00000   0.00000   2.69024
    R8        2.63401   0.00001   0.00000   0.00001   0.00001   2.63403
    R9        2.05258   0.00000   0.00000   0.00000   0.00000   2.05259
   R10        2.64977  -0.00001   0.00000  -0.00001  -0.00001   2.64975
   R11        2.05546   0.00000   0.00000   0.00000   0.00000   2.05546
   R12        2.85413   0.00000   0.00000   0.00000   0.00000   2.85413
   R13        2.30170  -0.00001   0.00000  -0.00001  -0.00001   2.30169
   R14        2.68645   0.00000   0.00000   0.00000   0.00000   2.68645
   R15        2.66781  -0.00001   0.00000  -0.00002  -0.00002   2.66779
   R16        2.67552   0.00000   0.00000   0.00001   0.00001   2.67553
   R17        2.62804   0.00001   0.00000   0.00001   0.00001   2.62806
   R18        2.05175   0.00000   0.00000   0.00000   0.00000   2.05175
   R19        2.62106  -0.00001   0.00000  -0.00001  -0.00001   2.62104
   R20        2.05204   0.00000   0.00000   0.00000   0.00000   2.05204
   R21        2.65298   0.00000   0.00000  -0.00001  -0.00001   2.65297
   R22        2.05678   0.00000   0.00000   0.00000   0.00000   2.05678
   R23        2.65785   0.00001   0.00000   0.00001   0.00001   2.65787
   R24        2.05252   0.00000   0.00000   0.00000   0.00000   2.05252
   R25        2.79206   0.00000   0.00000   0.00000   0.00000   2.79206
   R26        2.30519   0.00000   0.00000   0.00000   0.00000   2.30519
   R27        2.10184   0.00000   0.00000   0.00000   0.00000   2.10184
   R28        2.07380   0.00000   0.00000   0.00000   0.00000   2.07380
   R29        2.07410   0.00000   0.00000   0.00000   0.00000   2.07410
   R30        2.06903   0.00000   0.00000   0.00001   0.00001   2.06904
    A1        2.11731   0.00000   0.00000   0.00000   0.00000   2.11731
    A2        2.08251   0.00000   0.00000   0.00001   0.00001   2.08252
    A3        2.08336   0.00000   0.00000  -0.00001  -0.00001   2.08335
    A4        2.10170   0.00000   0.00000   0.00000   0.00000   2.10170
    A5        2.09986   0.00000   0.00000   0.00001   0.00001   2.09987
    A6        2.08163   0.00000   0.00000  -0.00001  -0.00001   2.08162
    A7        2.06792   0.00000   0.00000   0.00000   0.00000   2.06793
    A8        2.10716   0.00000   0.00000   0.00000   0.00000   2.10716
    A9        2.10810   0.00000   0.00000   0.00000   0.00000   2.10810
   A10        2.10186   0.00000   0.00000   0.00000   0.00000   2.10185
   A11        2.08269   0.00000   0.00000   0.00000   0.00000   2.08269
   A12        2.09864   0.00000   0.00000   0.00000   0.00000   2.09864
   A13        2.11716   0.00000   0.00000   0.00000   0.00000   2.11717
   A14        2.08109   0.00000   0.00000  -0.00001  -0.00001   2.08108
   A15        2.08494   0.00000   0.00000   0.00001   0.00001   2.08494
   A16        2.06042   0.00000   0.00000   0.00000   0.00000   2.06041
   A17        2.10243   0.00000   0.00000   0.00000   0.00000   2.10243
   A18        2.12033   0.00000   0.00000   0.00000   0.00000   2.12034
   A19        2.10384   0.00000   0.00000   0.00000   0.00000   2.10384
   A20        2.10185   0.00000   0.00000   0.00000   0.00000   2.10185
   A21        2.07750   0.00000   0.00000   0.00000   0.00000   2.07750
   A22        2.09663   0.00000   0.00000  -0.00001  -0.00001   2.09663
   A23        2.08179   0.00000   0.00000   0.00000   0.00000   2.08179
   A24        2.10476   0.00000   0.00000   0.00000   0.00000   2.10477
   A25        2.10241   0.00000   0.00000   0.00000   0.00000   2.10242
   A26        2.07780   0.00000   0.00000  -0.00001  -0.00001   2.07779
   A27        2.10298   0.00000   0.00000   0.00000   0.00000   2.10298
   A28        2.10500   0.00000   0.00000   0.00001   0.00001   2.10501
   A29        2.09041   0.00000   0.00000  -0.00001  -0.00001   2.09040
   A30        2.08778   0.00000   0.00000   0.00000   0.00000   2.08778
   A31        2.09947   0.00000   0.00000   0.00000   0.00000   2.09947
   A32        2.11219   0.00000   0.00000   0.00001   0.00001   2.11220
   A33        2.07152   0.00000   0.00000   0.00000   0.00000   2.07152
   A34        2.08536   0.00000   0.00000   0.00000   0.00000   2.08535
   A35        2.09105   0.00000   0.00000  -0.00001  -0.00001   2.09104
   A36        2.10678   0.00000   0.00000   0.00001   0.00001   2.10679
   A37        2.17942   0.00000   0.00000   0.00001   0.00001   2.17942
   A38        2.00616   0.00000   0.00000  -0.00001  -0.00001   2.00615
   A39        2.09761   0.00000   0.00000   0.00000   0.00000   2.09761
   A40        1.93996   0.00000   0.00000   0.00000   0.00000   1.93996
   A41        1.93933   0.00000   0.00000   0.00000   0.00000   1.93933
   A42        1.94802   0.00000   0.00000  -0.00001  -0.00001   1.94801
   A43        1.86930   0.00000   0.00000   0.00001   0.00001   1.86931
   A44        1.88231   0.00000   0.00000   0.00000   0.00000   1.88231
   A45        1.88166   0.00000   0.00000   0.00000   0.00000   1.88166
   A46        3.14180   0.00000   0.00000   0.00000   0.00000   3.14180
   A47        3.13912   0.00000   0.00000  -0.00001  -0.00001   3.13911
   A48        3.14156   0.00000   0.00000   0.00007   0.00007   3.14163
   A49        3.14167   0.00000   0.00000  -0.00034  -0.00034   3.14134
    D1        0.00011   0.00000   0.00000   0.00000   0.00000   0.00011
    D2        3.14145   0.00000   0.00000   0.00000   0.00000   3.14146
    D3       -3.14134   0.00000   0.00000   0.00000   0.00000  -3.14134
    D4        0.00001   0.00000   0.00000   0.00000   0.00000   0.00001
    D5       -0.00027   0.00000   0.00000   0.00000   0.00000  -0.00027
    D6        3.13992   0.00000   0.00000  -0.00001  -0.00001   3.13991
    D7        3.14117   0.00000   0.00000   0.00000   0.00000   3.14117
    D8       -0.00183   0.00000   0.00000  -0.00001  -0.00001  -0.00184
    D9        0.00006   0.00000   0.00000   0.00000   0.00000   0.00006
   D10        3.14145   0.00000   0.00000   0.00003   0.00003   3.14147
   D11       -3.14129   0.00000   0.00000  -0.00001  -0.00001  -3.14129
   D12        0.00010   0.00000   0.00000   0.00002   0.00002   0.00012
   D13       -0.00006   0.00000   0.00000   0.00000   0.00000  -0.00006
   D14        3.14129   0.00000   0.00000   0.00001   0.00001   3.14130
   D15       -3.14145   0.00000   0.00000  -0.00003  -0.00003  -3.14147
   D16       -0.00010   0.00000   0.00000  -0.00002  -0.00002  -0.00012
   D17        0.00038   0.00000   0.00000  -0.00003  -0.00003   0.00035
   D18       -3.14126   0.00000   0.00000   0.00017   0.00017  -3.14109
   D19       -3.14138   0.00000   0.00000  -0.00016  -0.00016  -3.14154
   D20        0.00017   0.00000   0.00000   0.00004   0.00004   0.00021
   D21       -0.00011   0.00000   0.00000   0.00000   0.00000  -0.00011
   D22        3.14138   0.00000   0.00000   0.00000   0.00000   3.14139
   D23       -3.14146   0.00000   0.00000   0.00000   0.00000  -3.14146
   D24        0.00004   0.00000   0.00000   0.00000   0.00000   0.00004
   D25        0.00027   0.00000   0.00000   0.00000   0.00000   0.00027
   D26       -3.13990   0.00000   0.00000   0.00001   0.00001  -3.13989
   D27       -3.14122   0.00000   0.00000   0.00000   0.00000  -3.14123
   D28        0.00179   0.00000   0.00000   0.00001   0.00001   0.00180
   D29        1.01956   0.00000   0.00000  -0.00009  -0.00009   1.01947
   D30       -1.06039   0.00000   0.00000  -0.00010  -0.00010  -1.06049
   D31        3.12180   0.00000   0.00000  -0.00009  -0.00009   3.12171
   D32       -2.12348   0.00000   0.00000  -0.00010  -0.00010  -2.12359
   D33        2.07975   0.00000   0.00000  -0.00011  -0.00011   2.07963
   D34       -0.02125   0.00000   0.00000  -0.00011  -0.00011  -0.02135
   D35       -3.14158   0.00000   0.00000  -0.00003  -0.00003   3.14158
   D36        0.00001   0.00000   0.00000  -0.00002  -0.00002  -0.00001
   D37        0.00000   0.00000   0.00000   0.00000   0.00000   0.00000
   D38       -3.14159   0.00000   0.00000   0.00000   0.00000  -3.14159
   D39        3.14158   0.00000   0.00000   0.00003   0.00003  -3.14158
   D40       -0.00001   0.00000   0.00000   0.00002   0.00002   0.00001
   D41        0.00000   0.00000   0.00000   0.00000   0.00000   0.00000
   D42       -3.14159   0.00000   0.00000  -0.00001  -0.00001   3.14159
   D43        0.00000   0.00000   0.00000   0.00000   0.00000   0.00000
   D44        3.14159   0.00000   0.00000   0.00000   0.00000  -3.14159
   D45       -3.14159   0.00000   0.00000   0.00000   0.00000   3.14159
   D46        0.00000   0.00000   0.00000   0.00000   0.00000   0.00000
   D47        0.00000   0.00000   0.00000   0.00000   0.00000   0.00000
   D48       -3.14159   0.00000   0.00000   0.00000   0.00000  -3.14159
   D49        3.14159   0.00000   0.00000   0.00000   0.00000   3.14159
   D50        0.00000   0.00000   0.00000   0.00000   0.00000   0.00000
   D51        0.00000   0.00000   0.00000   0.00000   0.00000   0.00000
   D52        3.14159   0.00000   0.00000   0.00000   0.00000   3.14158
   D53       -3.14159   0.00000   0.00000   0.00000   0.00000   3.14159
   D54        0.00000   0.00000   0.00000   0.00000   0.00000  -0.00001
   D55        0.00000   0.00000   0.00000   0.00000   0.00000   0.00000
   D56       -3.14159   0.00000   0.00000   0.00000   0.00000  -3.14159
   D57        3.14159   0.00000   0.00000   0.00000   0.00000   3.14159
   D58        0.00000   0.00000   0.00000   0.00000   0.00000   0.00000
   D59       -3.14158   0.00000   0.00000  -0.00003  -0.00003   3.14157
   D60        0.00000   0.00000   0.00000   0.00003   0.00003   0.00003
   D61        0.00000   0.00000   0.00000  -0.00003  -0.00003  -0.00003
   D62        3.14159   0.00000   0.00000   0.00003   0.00003  -3.14157
         Item               Value     Threshold  Converged?
 Maximum Force            0.000008     0.000450     YES
 RMS     Force            0.000002     0.000300     YES
 Maximum Displacement     0.001068     0.001800     YES
 RMS     Displacement     0.000234     0.001200     YES
 Predicted change in Energy=-2.174516D-09
 Optimization completed.
    -- Stationary point found.
                           ----------------------------
                           !   Optimized Parameters   !
                           ! (Angstroms and Degrees)  !
 --------------------------                            --------------------------
 ! Name  Definition              Value          Derivative Info.                !
 --------------------------------------------------------------------------------
 ! R1    R(1,2)                  1.3909         -DE/DX =    0.0                 !
 ! R2    R(1,6)                  1.4052         -DE/DX =    0.0                 !
 ! R3    R(1,7)                  1.0882         -DE/DX =    0.0                 !
 ! R4    R(2,3)                  1.4114         -DE/DX =    0.0                 !
 ! R5    R(2,8)                  1.0862         -DE/DX =    0.0                 !
 ! R6    R(3,4)                  1.4087         -DE/DX =    0.0                 !
 ! R7    R(3,11)                 1.4236         -DE/DX =    0.0                 !
 ! R8    R(4,5)                  1.3939         -DE/DX =    0.0                 !
 ! R9    R(4,9)                  1.0862         -DE/DX =    0.0                 !
 ! R10   R(5,6)                  1.4022         -DE/DX =    0.0                 !
 ! R11   R(5,10)                 1.0877         -DE/DX =    0.0                 !
 ! R12   R(6,25)                 1.5103         -DE/DX =    0.0                 !
 ! R13   R(11,12)                1.218          -DE/DX =    0.0                 !
 ! R14   R(12,13)                1.4216         -DE/DX =    0.0                 !
 ! R15   R(13,14)                1.4117         -DE/DX =    0.0                 !
 ! R16   R(13,15)                1.4158         -DE/DX =    0.0                 !
 ! R17   R(14,16)                1.3907         -DE/DX =    0.0                 !
 ! R18   R(14,17)                1.0857         -DE/DX =    0.0                 !
 ! R19   R(15,18)                1.387          -DE/DX =    0.0                 !
 ! R20   R(15,19)                1.0859         -DE/DX =    0.0                 !
 ! R21   R(16,20)                1.4039         -DE/DX =    0.0                 !
 ! R22   R(16,21)                1.0884         -DE/DX =    0.0                 !
 ! R23   R(18,20)                1.4065         -DE/DX =    0.0                 !
 ! R24   R(18,22)                1.0861         -DE/DX =    0.0                 !
 ! R25   R(20,23)                1.4775         -DE/DX =    0.0                 !
 ! R26   R(23,24)                1.2199         -DE/DX =    0.0                 !
 ! R27   R(23,29)                1.1122         -DE/DX =    0.0                 !
 ! R28   R(25,26)                1.0974         -DE/DX =    0.0                 !
 ! R29   R(25,27)                1.0976         -DE/DX =    0.0                 !
 ! R30   R(25,28)                1.0949         -DE/DX =    0.0                 !
 ! A1    A(2,1,6)              121.3131         -DE/DX =    0.0                 !
 ! A2    A(2,1,7)              119.3191         -DE/DX =    0.0                 !
 ! A3    A(6,1,7)              119.3678         -DE/DX =    0.0                 !
 ! A4    A(1,2,3)              120.4186         -DE/DX =    0.0                 !
 ! A5    A(1,2,8)              120.3129         -DE/DX =    0.0                 !
 ! A6    A(3,2,8)              119.2685         -DE/DX =    0.0                 !
 ! A7    A(2,3,4)              118.4832         -DE/DX =    0.0                 !
 ! A8    A(2,3,11)             120.7315         -DE/DX =    0.0                 !
 ! A9    A(4,3,11)             120.7853         -DE/DX =    0.0                 !
 ! A10   A(3,4,5)              120.4275         -DE/DX =    0.0                 !
 ! A11   A(3,4,9)              119.3292         -DE/DX =    0.0                 !
 ! A12   A(5,4,9)              120.2433         -DE/DX =    0.0                 !
 ! A13   A(4,5,6)              121.3045         -DE/DX =    0.0                 !
 ! A14   A(4,5,10)             119.2374         -DE/DX =    0.0                 !
 ! A15   A(6,5,10)             119.4581         -DE/DX =    0.0                 !
 ! A16   A(1,6,5)              118.0532         -DE/DX =    0.0                 !
 ! A17   A(1,6,25)             120.4605         -DE/DX =    0.0                 !
 ! A18   A(5,6,25)             121.4862         -DE/DX =    0.0                 !
 ! A19   A(12,13,14)           120.5413         -DE/DX =    0.0                 !
 ! A20   A(12,13,15)           120.4269         -DE/DX =    0.0                 !
 ! A21   A(14,13,15)           119.0318         -DE/DX =    0.0                 !
 ! A22   A(13,14,16)           120.1282         -DE/DX =    0.0                 !
 ! A23   A(13,14,17)           119.2778         -DE/DX =    0.0                 !
 ! A24   A(16,14,17)           120.594          -DE/DX =    0.0                 !
 ! A25   A(13,15,18)           120.4593         -DE/DX =    0.0                 !
 ! A26   A(13,15,19)           119.049          -DE/DX =    0.0                 !
 ! A27   A(18,15,19)           120.4917         -DE/DX =    0.0                 !
 ! A28   A(14,16,20)           120.6077         -DE/DX =    0.0                 !
 ! A29   A(14,16,21)           119.7716         -DE/DX =    0.0                 !
 ! A30   A(20,16,21)           119.6207         -DE/DX =    0.0                 !
 ! A31   A(15,18,20)           120.2908         -DE/DX =    0.0                 !
 ! A32   A(15,18,22)           121.0196         -DE/DX =    0.0                 !
 ! A33   A(20,18,22)           118.6896         -DE/DX =    0.0                 !
 ! A34   A(16,20,18)           119.4821         -DE/DX =    0.0                 !
 ! A35   A(16,20,23)           119.8081         -DE/DX =    0.0                 !
 ! A36   A(18,20,23)           120.7098         -DE/DX =    0.0                 !
 ! A37   A(20,23,24)           124.8713         -DE/DX =    0.0                 !
 ! A38   A(20,23,29)           114.9444         -DE/DX =    0.0                 !
 ! A39   A(24,23,29)           120.1843         -DE/DX =    0.0                 !
 ! A40   A(6,25,26)            111.1516         -DE/DX =    0.0                 !
 ! A41   A(6,25,27)            111.1155         -DE/DX =    0.0                 !
 ! A42   A(6,25,28)            111.6131         -DE/DX =    0.0                 !
 ! A43   A(26,25,27)           107.1029         -DE/DX =    0.0                 !
 ! A44   A(26,25,28)           107.8482         -DE/DX =    0.0                 !
 ! A45   A(27,25,28)           107.8115         -DE/DX =    0.0                 !
 ! A46   L(3,11,12,8,-1)       180.0116         -DE/DX =    0.0                 !
 ! A47   L(11,12,13,19,-1)     179.8581         -DE/DX =    0.0                 !
 ! A48   L(3,11,12,8,-2)       179.9981         -DE/DX =    0.0                 !
 ! A49   L(11,12,13,19,-2)     180.0046         -DE/DX =    0.0                 !
 ! D1    D(6,1,2,3)              0.0061         -DE/DX =    0.0                 !
 ! D2    D(6,1,2,8)            179.992          -DE/DX =    0.0                 !
 ! D3    D(7,1,2,3)           -179.9853         -DE/DX =    0.0                 !
 ! D4    D(7,1,2,8)              0.0006         -DE/DX =    0.0                 !
 ! D5    D(2,1,6,5)             -0.0155         -DE/DX =    0.0                 !
 ! D6    D(2,1,6,25)           179.9039         -DE/DX =    0.0                 !
 ! D7    D(7,1,6,5)            179.9759         -DE/DX =    0.0                 !
 ! D8    D(7,1,6,25)            -0.1047         -DE/DX =    0.0                 !
 ! D9    D(1,2,3,4)              0.0035         -DE/DX =    0.0                 !
 ! D10   D(1,2,3,11)           179.9918         -DE/DX =    0.0                 !
 ! D11   D(8,2,3,4)           -179.9825         -DE/DX =    0.0                 !
 ! D12   D(8,2,3,11)             0.0057         -DE/DX =    0.0                 !
 ! D13   D(2,3,4,5)             -0.0033         -DE/DX =    0.0                 !
 ! D14   D(2,3,4,9)            179.9826         -DE/DX =    0.0                 !
 ! D15   D(11,3,4,5)          -179.9916         -DE/DX =    0.0                 !
 ! D16   D(11,3,4,9)            -0.0056         -DE/DX =    0.0                 !
 ! D17   D(2,3,13,14)            0.0216         -DE/DX =    0.0                 !
 ! D18   D(2,3,13,15)         -179.9812         -DE/DX =    0.0                 !
 ! D19   D(4,3,13,14)         -179.9877         -DE/DX =    0.0                 !
 ! D20   D(4,3,13,15)            0.0095         -DE/DX =    0.0                 !
 ! D21   D(3,4,5,6)             -0.0065         -DE/DX =    0.0                 !
 ! D22   D(3,4,5,10)           179.9881         -DE/DX =    0.0                 !
 ! D23   D(9,4,5,6)           -179.9923         -DE/DX =    0.0                 !
 ! D24   D(9,4,5,10)             0.0023         -DE/DX =    0.0                 !
 ! D25   D(4,5,6,1)              0.0157         -DE/DX =    0.0                 !
 ! D26   D(4,5,6,25)          -179.9028         -DE/DX =    0.0                 !
 ! D27   D(10,5,6,1)          -179.9789         -DE/DX =    0.0                 !
 ! D28   D(10,5,6,25)            0.1026         -DE/DX =    0.0                 !
 ! D29   D(1,6,25,26)           58.4167         -DE/DX =    0.0                 !
 ! D30   D(1,6,25,27)          -60.756          -DE/DX =    0.0                 !
 ! D31   D(1,6,25,28)          178.8661         -DE/DX =    0.0                 !
 ! D32   D(5,6,25,26)         -121.6667         -DE/DX =    0.0                 !
 ! D33   D(5,6,25,27)          119.1606         -DE/DX =    0.0                 !
 ! D34   D(5,6,25,28)           -1.2173         -DE/DX =    0.0                 !
 ! D35   D(12,13,14,16)        180.0008         -DE/DX =    0.0                 !
 ! D36   D(12,13,14,17)          0.0008         -DE/DX =    0.0                 !
 ! D37   D(15,13,14,16)          0.0001         -DE/DX =    0.0                 !
 ! D38   D(15,13,14,17)       -179.9999         -DE/DX =    0.0                 !
 ! D39   D(12,13,15,18)       -180.0009         -DE/DX =    0.0                 !
 ! D40   D(12,13,15,19)         -0.0005         -DE/DX =    0.0                 !
 ! D41   D(14,13,15,18)         -0.0002         -DE/DX =    0.0                 !
 ! D42   D(14,13,15,19)        180.0002         -DE/DX =    0.0                 !
 ! D43   D(13,14,16,20)          0.0            -DE/DX =    0.0                 !
 ! D44   D(13,14,16,21)       -180.0001         -DE/DX =    0.0                 !
 ! D45   D(17,14,16,20)        180.0            -DE/DX =    0.0                 !
 ! D46   D(17,14,16,21)         -0.0001         -DE/DX =    0.0                 !
 ! D47   D(13,15,18,20)          0.0001         -DE/DX =    0.0                 !
 ! D48   D(13,15,18,22)       -179.9996         -DE/DX =    0.0                 !
 ! D49   D(19,15,18,20)        179.9998         -DE/DX =    0.0                 !
[...]
 0.00011622,0.00090666,-0.00000098,0.00061227,0.00008874,-0.00000147,-0
 .00009933,-0.00094595,-0.00000116,0.00062002,-0.00073358,-0.00000037,-
 0.00027491,0.00013094,0.00001509,0.00016442,-0.00014087,0.00000054,-0.
 00012929,0.00003472,0.00000069,-0.00012757,-0.00004237,0.00000068,0.00
 017230,0.00014620,0.00000044,-0.00379817,-0.00012180,0.00000036,0.0067
 8329,0.00020095,0.00000035,-0.00659211,0.00028270,-0.00000038,0.007915
 74,0.00403031,0.00000054,0.00883179,-0.00484105,-0.00000026,-0.0279905
 7,0.01714092,0.00000001,0.00072049,-0.00039012,-0.00000003,-0.03065790
 ,-0.01961423,-0.00000556,0.00046663,0.00038194,0.00000007,-0.19662015,
 -0.01935036,-0.00001336,0.00001992,-0.00362725,-0.00000015,0.00013192,
 0.00289058,0.00000066,0.65664074,-0.00013927,-0.00013051,0.00000032,0.
 00013483,-0.00018477,-0.00000013,-0.00047778,-0.00001040,0.00000030,0.
 00011603,0.00021985,0.00000005,-0.00013753,0.00012493,0.00000010,0.000
 08132,-0.00001178,-0.00000190,-0.00001542,0.00001479,-0.00000005,0.000
 01086,-0.00000290,-0.00000006,0.00002111,-0.00000149,-0.00000010,-0.00
 002716,-0.00002200,-0.00000008,0.00144038,0.00010848,0.00000009,-0.002
 35113,-0.00008310,-0.00000013,0.00283714,-0.00464933,-0.00000034,0.003
 62139,-0.00598693,-0.00000154,-0.00780803,-0.00528890,-0.00000238,0.03
 547646,0.00081633,0.00000318,0.00155687,0.00016891,0.00000010,-0.02607
 107,0.01234379,-0.00000082,-0.00196179,-0.00002197,-0.00000023,-0.0492
 6329,-0.11350639,-0.00000974,0.00339170,-0.00055087,0.00000081,-0.0010
 1802,-0.00237774,0.00000008,-0.16327897,0.84767633,0.,0.00000005,-0.00
 003797,-0.00000003,0.00000002,0.00002703,0.,0.00000006,0.00019509,-0.0
 0000004,-0.00000004,0.00001126,0.00000001,-0.00000007,-0.00002909,0.00
 000009,0.00000005,-0.00001257,0.00000002,0.,0.00000471,0.,0.,0.0000045
 8,-0.00000002,0.,0.00000383,0.00000004,0.,0.00000434,0.00000010,0.0000
 0002,-0.00027888,0.00000010,0.00000011,-0.00093882,-0.00000008,-0.0000
 0058,-0.00074277,0.00000045,-0.00000160,0.00779960,-0.00000109,-0.0000
 0208,0.00679160,0.00000260,0.00000158,-0.00019524,0.00000024,-0.000000
 10,0.00056746,-0.00000628,-0.00000010,0.00222558,-0.00000026,0.,0.0002
 6305,-0.00001716,-0.00000724,-0.07340674,0.00000086,0.00000023,-0.0042
 6535,0.00000016,0.00000039,-0.00354390,0.00001429,0.00008173,0.1853344
 7,-0.00029528,-0.00037614,0.00000045,0.00003673,-0.00044174,0.00000049
 ,-0.00021394,-0.00004233,0.00000072,0.00002016,0.00047219,0.00000061,-
 0.00031176,0.00036054,0.00000020,0.00014718,-0.00006518,-0.00000772,-0
 .00008597,0.00007398,-0.00000028,0.00007387,-0.00002700,-0.00000034,0.
 00007148,0.00002671,-0.00000035,-0.00009315,-0.00007767,-0.00000024,0.
 00169291,0.00002103,-0.00000020,-0.00311633,-0.00012252,-0.00000019,0.
 00277910,0.00153107,0.00000043,-0.00468485,0.00025860,-0.00000021,-0.0
 0123921,0.00223318,0.00000017,-0.00170171,-0.00957818,-0.00000173,-0.0
 0103059,0.00005943,-0.00000007,0.00402630,0.00552880,0.00000116,-0.000
 16737,-0.00017002,-0.00000004,-0.05273676,0.04765852,0.00000123,0.0005
 4075,0.00076062,0.00000009,-0.00092861,-0.00017054,-0.00000007,-0.3060
 1267,0.29026393,0.00002242,0.34471088,0.00025686,0.00030513,-0.0000003
 5,-0.00013157,0.00037154,-0.00000028,0.00051057,0.00002034,-0.00000065
 ,-0.00011051,-0.00042907,-0.00000034,0.00027042,-0.00028059,-0.0000001
 7,-0.00013250,0.00004294,0.00000544,0.00005370,-0.00004857,0.00000019,
 -0.00004547,0.00001462,0.00000023,-0.00004570,-0.00000473,0.00000025,0
 .00006765,0.00005503,0.00000017,-0.00204274,-0.00006117,0.00000009,0.0
 0346889,0.00036719,0.00000028,-0.00357613,0.00076316,-0.00000016,0.002
 08630,0.00216980,0.00000072,0.00452055,0.00008011,0.00000053,-0.005613
 99,0.00622055,-0.00000016,0.00025659,-0.00006701,0.00000007,-0.0068784
 0,-0.00914077,-0.00000174,0.00051415,0.00010510,0.00000004,0.04600374,
 0.00502848,0.00000181,-0.00142658,0.00061558,-0.00000014,0.00029858,0.
 00264917,0.00000040,0.28268850,-0.51530720,-0.00004294,-0.34888924,0.5
 5520277,0.00000002,0.00000002,0.00001189,-0.00000002,0.00000003,-0.000
 01623,0.00000007,-0.00000001,0.00000091,-0.00000004,-0.00000002,0.0000
 0305,-0.00000001,0.,0.00000147,0.00000003,0.,-0.00001113,0.,0.,-0.0000
 0140,0.,0.,-0.00000541,0.,0.,-0.00000541,0.00000001,0.,-0.00000356,-0.
 00000015,-0.00000002,0.00002709,0.00000021,0.,0.00026187,-0.00000028,0
 .00000028,-0.00013452,0.00000006,0.00000057,-0.00177781,0.00000062,0.0
 0000028,-0.00059271,-0.00000118,-0.00000035,0.00343050,-0.00000002,0.0
 0000004,-0.00035416,-0.00000065,-0.00000081,-0.00055474,0.00000005,-0.
 00000002,0.00013647,0.00000078,0.00000198,0.01791081,-0.00000023,0.000
 00004,0.00076196,-0.00000002,0.00000037,-0.00015730,0.00002147,-0.0000
 4246,-0.06131594,-0.00002468,0.00004889,0.02339653,-0.02316027,-0.0060
 3651,0.00002642,0.00465573,-0.00175194,-0.00003068,-0.00215121,0.00147
 956,-0.00000943,0.00143150,0.00066233,-0.00002585,-0.02112814,0.003230
 10,0.00003111,-0.21188794,-0.00019600,0.00016658,0.00081056,0.00121808
 ,0.00002972,-0.00000632,0.00016204,0.00000789,-0.00007735,-0.00019411,
 0.00000771,0.00127963,-0.00172931,0.00002541,0.00123705,0.00000635,0.0
 0001359,-0.00074393,-0.00003397,-0.00000213,0.00030783,0.00001225,-0.0
 0000047,-0.00008858,-0.00007650,-0.00000001,-0.00008691,0.00006991,0.0
 0000006,0.00006693,-0.00001932,0.00000008,-0.00000181,-0.00000306,-0.0
 0000002,0.00006419,0.00002289,0.,-0.00000150,0.00000239,0.,-0.00008557
 ,-0.00000945,-0.00000019,0.00000038,-0.00000093,0.,0.00000048,0.000000
 90,0.00000002,0.00006210,-0.00002235,0.00000006,-0.00002838,0.00003298
 ,0.,0.48682564,-0.03043825,0.00358735,0.00009981,-0.00276066,-0.005457
 79,0.00007419,0.00142329,-0.00052354,0.00000227,0.00063532,-0.00415325
 ,-0.00007217,0.02821244,0.00333596,-0.00009958,-0.00696539,-0.08978973
 ,0.00002518,-0.00068033,0.00105043,-0.00005571,-0.00152252,0.00001531,
 -0.00000670,0.00125075,0.00007512,0.00000578,0.00171611,0.00028615,0.0
 0005254,-0.00074475,0.00020028,-0.00000081,0.00063290,0.00004914,0.000
 00010,-0.00044151,-0.00001830,0.00000008,0.00016710,0.00005727,-0.0000
 0057,0.00017615,-0.00005824,0.00000042,-0.00011737,0.00001323,-0.00000
 020,-0.00000204,0.00000175,0.00000009,-0.00012437,-0.00001757,0.000000
 28,-0.00000984,0.00000405,-0.00000008,0.00030801,0.00005577,0.00000008
 ,0.00001192,0.00000700,0.00000005,0.00000592,-0.00000269,-0.00000007,-
 0.00032912,0.00004362,-0.00000004,0.00016875,-0.00012434,-0.00000002,0
 .00808122,0.58529269,0.00000434,0.00003038,0.00348868,-0.00009523,-0.0
 0002117,0.00511808,0.00007913,-0.00000834,-0.00103618,-0.00007685,0.00
 002963,0.00784283,-0.00002542,-0.00002092,0.00628854,-0.00010409,0.000
 00320,-0.07169490,0.00001484,0.00003622,-0.00228227,-0.00000986,-0.000
 00045,0.00002466,-0.00001072,-0.00000014,-0.00006551,0.00001534,-0.000
 03338,-0.00422820,-0.00004903,-0.00000117,-0.00064710,0.00004181,0.000
 00087,-0.00008291,-0.00003069,-0.00000044,0.00009626,0.00001210,0.0000
 0411,0.00001685,0.00001225,-0.00000307,0.00000571,-0.00000865,0.000000
 53,-0.00001718,-0.00000050,-0.00000015,0.00000022,-0.00000837,-0.00000
 155,-0.00003150,-0.00000050,0.00000012,0.00000282,0.00002148,0.0000035
 8,-0.00001939,0.00000081,0.00000059,0.00000398,0.00000047,-0.00000015,
 0.00000592,-0.00002333,0.00000325,0.00000954,0.00001191,-0.00000867,0.
 00000211,0.00076271,-0.00004963,0.53942257,0.00083066,0.00115271,0.000
 68310,-0.00010473,0.00024863,0.00099800,-0.00006797,0.00008616,-0.0002
 2112,-0.00054462,0.00053044,0.00147740,-0.00301244,-0.00185750,-0.0003
 1447,-0.01521785,0.01722721,-0.02591071,0.00015734,-0.00072080,-0.0005
 8413,0.00000047,-0.00003273,-0.00005801,-0.00030616,0.00000950,0.00001
 823,0.00001550,0.00010325,-0.00053436,0.00005467,-0.00005192,-0.000143
 34,-0.00018925,-0.00000743,0.00001938,0.00022088,0.00000606,0.00000736
 ,-0.00010166,-0.00001401,0.00000363,-0.00010096,0.00001076,-0.00000256
 ,0.00006621,-0.00000175,-0.00000047,0.00000679,0.00000221,-0.00000303,
 0.00006265,0.00000886,0.00000424,0.00000795,-0.00000369,-0.00000202,-0
 .00019940,-0.00003476,-0.00000120,-0.00001030,-0.00000632,-0.00000087,
 -0.00000548,0.00000129,-0.00000034,0.00022748,-0.00002616,-0.00000068,
 -0.00011761,0.00007993,0.00000059,-0.07903059,0.04365433,-0.07595513,0
 .08888518,-0.00221877,-0.00015443,-0.00019590,0.00141267,-0.00028141,-
 0.00025998,-0.00054111,0.00074550,-0.00002316,-0.00019170,-0.00032678,
 -0.00038249,0.00100245,-0.00001157,-0.00002796,0.00143959,0.00041586,-
 0.00197815,0.00003036,-0.00011931,0.00037039,0.00003982,-0.00000306,0.
 00000559,0.00005710,-0.00001344,0.00005413,-0.00005135,0.00031887,0.00
 040441,0.00031513,0.00003154,0.00013539,-0.00018844,-0.00001310,-0.000
 01204,0.00009420,0.00000169,-0.00000221,-0.00003029,-0.00001948,-0.000
 00094,-0.00002810,0.00001832,-0.00000274,0.00002367,-0.00000260,0.0000
 0004,-0.00000120,-0.00000185,0.00000028,0.00002271,0.00000393,0.000001
 58,-0.00000121,0.00000126,0.00000140,-0.00004271,-0.00000671,-0.000002
 49,-0.00000072,-0.00000049,0.00000052,-0.00000019,0.00000010,0.0000007
 5,0.00003557,-0.00000629,0.00000135,-0.00001643,0.00001461,-0.00000130
 ,0.04270309,-0.10917179,0.10124835,-0.04918005,0.11421427,0.00023175,0
 .00053490,0.00097492,-0.00047364,-0.00007516,0.00018396,0.00017288,-0.
 00030028,-0.00002079,0.00028020,0.00001735,-0.00022904,0.00022082,-0.0
 0048921,-0.00041347,0.00081910,-0.00179786,0.00333029,-0.00020698,-0.0
 0032101,-0.00035814,-0.00004172,-0.00000040,-0.00000523,0.00000605,-0.
 00001063,0.00003589,0.00006484,-0.00005741,0.00008920,-0.00005106,-0.0
 0002477,-0.00004979,-0.00001335,-0.00000380,0.00000508,0.00005653,0.00
 000424,0.00000606,-0.00002897,-0.00000161,-0.00000342,-0.00002730,0.00
 000179,0.00000290,0.00001872,-0.00000004,0.00000008,0.00000300,0.00000
 150,0.00000013,0.00001725,0.00000188,0.00000015,0.00000289,-0.00000227
 ,-0.00000084,-0.00006475,-0.00001174,-0.00000097,-0.00000399,-0.000002
 40,-0.00000009,-0.00000124,0.00000043,-0.00000053,0.00007963,-0.000005
 94,0.00000007,-0.00004182,0.00002553,0.00000053,-0.07481803,0.10147619
 ,-0.21239661,0.08144891,-0.11193415,0.22956066,0.00078643,0.00112981,-
 0.00068396,-0.00012105,0.00025708,-0.00104856,-0.00007438,0.00009547,0
 .00022477,-0.00056116,0.00045410,-0.00150735,-0.00277174,-0.00182208,0
 .00025731,-0.01527631,0.01605330,0.02664502,0.00016321,-0.00068220,0.0
 0059468,-0.00000420,-0.00003386,0.00006024,-0.00029030,0.00001190,-0.0
 0001339,0.00001352,0.00011577,0.00055409,0.00005073,-0.00004765,0.0001
 4763,-0.00019319,-0.00000767,-0.00001947,0.00022705,0.00000580,-0.0000
 0751,-0.00010466,-0.00001441,-0.00000374,-0.00010416,0.00001063,0.0000
 0256,0.00006813,-0.00000163,0.00000049,0.00000704,0.00000235,0.0000030
 8,0.00006449,0.00000915,-0.00000441,0.00000814,-0.00000371,0.00000212,
 -0.00020600,-0.00003591,0.00000122,-0.00001059,-0.00000653,0.00000089,
 -0.00000569,0.00000133,0.00000037,0.00023503,-0.00002706,0.00000074,-0
 .00012155,0.00008266,-0.00000062,-0.07823542,0.04018390,0.07715279,0.0
 0432666,-0.00617514,-0.00935962,0.08803040,-0.00221694,-0.00018926,0.0
 0014157,0.00144545,-0.00031885,0.00020373,-0.00053068,0.00079466,0.000
 01816,-0.00024538,-0.00035650,0.00041197,0.00107387,-0.00005179,0.0001
 0953,0.00143943,0.00039926,0.00186308,0.00003111,-0.00013960,-0.000327
 96,0.00003678,-0.00000431,-0.00000010,0.00005578,-0.00001428,-0.000058
 44,-0.00003636,0.00029024,-0.00042514,0.00031133,0.00002857,-0.0001256
 6,-0.00018812,-0.00001447,0.00001118,0.00009556,0.00000237,0.00000126,
 -0.00003124,-0.00001928,0.00000143,-0.00002878,0.00001835,0.00000241,0
 .00002407,-0.00000278,0.,-0.00000102,-0.00000177,-0.00000028,0.0000229
 8,0.00000399,-0.00000173,-0.00000104,0.00000107,-0.00000131,-0.0000445
 8,-0.00000709,0.00000251,-0.00000092,-0.00000059,-0.00000051,-0.000000
 20,0.00000013,-0.00000069,0.00003811,-0.00000618,-0.00000131,-0.000017
 77,0.00001525,0.00000126,0.03913830,-0.10071742,-0.09659369,-0.0065039
 4,0.00808361,0.01410004,-0.04528642,0.10494764,-0.00025323,-0.00055519
 ,0.00098224,0.00050291,0.00007149,0.00019180,-0.00021639,0.00027347,-0
 .00002338,-0.00019235,-0.00000529,-0.00022393,-0.00024283,0.00052133,-
 0.00042648,-0.00051507,0.00163317,0.00344056,0.00019340,0.00029444,-0.
 00037691,0.00004319,0.00000090,-0.00000304,-0.00000109,0.00001004,0.00
 004022,-0.00006189,0.00007408,0.00007198,0.00008093,0.00002533,-0.0000
 5428,-0.00000574,0.00000346,0.00000580,-0.00004614,-0.00000398,0.00000
 607,0.00002545,-0.00000040,-0.00000342,0.00002383,0.00000002,0.0000028
 5,-0.00001609,-0.00000029,0.00000022,-0.00000298,-0.00000156,0.0000000
 4,-0.00001473,-0.00000130,0.00000016,-0.00000289,0.00000230,-0.0000009
 0,0.00005943,0.00001091,-0.00000094,0.00000384,0.00000229,-0.00000014,
 0.00000119,-0.00000041,-0.00000057,-0.00007455,0.00000508,-0.00000001,
 0.00003930,-0.00002356,0.00000061,0.07565949,-0.09680988,-0.22098727,0
 .00897595,-0.01281117,-0.02236045,-0.08273510,0.10676472,0.23908028,-0
 .00680375,0.00176282,-0.00001987,0.00014078,-0.00185343,0.00003595,0.0
 0009635,0.00029309,-0.00000696,-0.00004328,0.00003097,0.00001341,0.001
 34141,-0.00204352,0.00002679,-0.01123633,-0.03273261,-0.00060368,0.000
 05294,-0.00001437,-0.00001110,-0.00051840,-0.00000294,0.00000151,0.000
 04227,0.00000997,-0.00000060,-0.00052662,0.00147669,-0.00001857,0.0001
 0494,0.00011670,-0.00000124,-0.00010450,0.00000685,0.00000045,0.000103
 95,-0.00000844,-0.00000023,-0.00004162,-0.00001403,0.00000002,-0.00004
 589,0.00000271,-0.00000010,0.00002886,-0.00000053,0.00000003,0.0000042
 7,0.00000318,-0.00000002,0.00002728,0.00000729,0.00000014,0.00000251,-
 0.00000016,-0.00000006,-0.00007767,-0.00001284,0.00000011,-0.00000338,
 -0.00000226,0.,-0.00000305,0.00000046,-0.00000002,0.00008890,-0.000012
 94,-0.00000007,-0.00004639,0.00003387,0.00000001,-0.08002785,-0.082501
 20,-0.00173235,0.00415477,0.01149172,0.00171321,0.00410802,0.01142146,
 -0.00123100,0.08918407,-0.00026261,0.00063792,-0.00003638,0.00045914,-
 0.00008542,-0.00000732,-0.00001241,0.00021768,0.00000279,-0.00030709,0
 .00028849,0.00003184,0.00199398,0.00062869,0.00002062,0.00111171,0.000
 74962,0.00009167,0.00022160,0.00033873,0.00000307,-0.00005061,0.000008
 98,0.00000156,-0.00006343,0.00000463,-0.00000216,0.00001753,0.00049988
 ,-0.00002524,0.00010324,0.00007458,-0.00000781,-0.00014157,-0.00000851
 ,0.00000065,0.00013016,-0.00000403,0.00000058,-0.00005379,-0.00001696,
 0.00000031,-0.00005796,0.00000807,-0.00000034,0.00003490,-0.00000359,0
 .,0.00000522,0.00000461,-0.00000008,0.00003372,0.00001006,0.00000002,0
 .00000518,-0.00000242,0.,-0.00010548,-0.00001760,0.00000005,-0.0000042
 6,-0.00000337,-0.00000004,-0.00000348,0.00000061,0.,0.00012779,-0.0000
 1972,-0.00000005,-0.00006869,0.00004899,0.00000004,-0.08674526,-0.2840
 6593,-0.00461973,-0.00466167,-0.01371472,-0.00111788,-0.00424981,-0.01
 273814,0.00051313,0.09254788,0.30716786,-0.00000328,-0.00000209,0.0012
 7400,0.00005539,-0.00000655,0.00054706,-0.00001507,0.00002783,-0.00002
 171,-0.00000870,0.00000024,-0.00014923,0.00000693,-0.00001278,-0.00020
 679,0.00015205,0.00016261,-0.00130126,0.00000127,-0.00001111,-0.000295
 00,0.00000270,0.00000058,-0.00017756,-0.00000045,-0.00000036,-0.000037
 24,-0.00001782,0.00001771,0.00034303,0.00001189,0.00000066,-0.00000777
 ,-0.00000934,-0.00000031,0.00000732,0.00000689,0.00000005,0.00000801,-
 0.00000259,-0.00000110,-0.00000511,-0.00000271,0.00000075,-0.00000197,
 0.00000189,-0.00000012,-0.00000065,0.00000011,0.00000006,0.00000089,0.
 00000183,0.00000038,0.00000137,0.00000012,-0.00000003,0.00000149,-0.00
 000481,-0.00000079,-0.00000429,-0.00000016,-0.00000012,0.00000060,-0.0
 0000012,0.00000002,0.00000046,0.00000530,-0.00000083,0.00000198,-0.000
 00276,0.00000206,-0.00000099,-0.00184404,-0.00464159,-0.04884181,0.010
 09561,0.02541026,0.00164958,-0.01026425,-0.02609582,0.00063902,0.00183
 425,0.00515076,0.04657636,-0.00000884,-0.00001592,0.00000003,-0.000020
 72,-0.00001601,0.00000002,0.00005691,-0.00000939,0.00000013,-0.0000158
 2,0.00000437,0.,-0.00000971,0.00002122,0.00000005,0.00000044,-0.000004
 46,-0.00000055,-0.00000747,0.00000544,-0.00000002,0.00000547,-0.000001
 38,-0.00000003,0.00000678,0.00000573,-0.00000002,-0.00000554,-0.000004
 81,-0.00000001,-0.00004875,0.00001742,-0.00000004,0.00006471,0.0000873
 7,0.,0.00019632,0.00016918,0.,0.00001070,0.00061195,0.00000017,0.00007
 056,-0.00200702,-0.00000016,0.00026742,-0.00238486,-0.00000025,-0.0000
 9489,0.00001800,-0.00000001,-0.00596021,0.00215360,-0.00000045,-0.0005
 5655,0.00000409,-0.00000002,-0.01063668,-0.02838185,-0.00000618,-0.000
 55514,0.00156043,0.00000016,0.00020254,-0.00005950,0.,-0.11185638,-0.0
 8631402,-0.00001647,0.01883279,0.02766690,0.00000396,-0.00000024,0.000
 00924,0.00000073,-0.00000819,-0.00000068,-0.00000330,-0.00000845,-0.00
 000083,0.00000317,-0.00000259,-0.00000393,-0.00000015,0.11008152,-0.00
 003885,-0.00005096,0.00000004,-0.00000943,-0.00006360,0.00000011,0.000
 00956,-0.00001050,0.00000015,-0.00000487,0.00005259,0.00000013,-0.0000
 4225,0.00005517,0.,0.00001611,-0.00001242,-0.00000122,-0.00001534,0.00
 001204,-0.00000005,0.00001093,-0.00000130,-0.00000006,0.00001077,0.000
 00712,-0.00000005,-0.00001164,-0.00001081,-0.00000003,0.00014359,-0.00
 001011,-0.00000009,-0.00027502,0.00012084,0.,0.00033840,0.00021751,0.0
 0000004,-0.00075334,0.00025731,0.00000005,0.00013896,-0.00008672,0.000
 00010,0.00077924,0.00060081,0.00000030,-0.00010915,0.00002708,-0.00000
 001,-0.00029460,0.00129104,-0.00000021,-0.00013632,0.00001292,0.000000
 05,-0.00078671,-0.00332147,-0.00000286,-0.00045069,0.00067655,0.000000
 04,0.00047227,0.00017532,0.00000003,-0.09645956,-0.21334854,-0.0000294
 4,0.01064610,-0.04862692,-0.00000881,-0.00000369,0.00002546,0.00000181
 ,-0.00001860,-0.00000252,-0.00000727,-0.00001918,-0.00000281,0.0000068
 8,-0.00000639,-0.00000899,-0.00000038,0.08686969,0.26202591,0.,0.,-0.0
 0000247,0.,-0.00000002,-0.00000072,0.,0.,-0.00000750,0.,0.,-0.00000929
 ,0.,0.00000001,0.00000185,0.,0.,-0.00000322,0.,0.,0.00000027,0.,0.,0.0
 0000280,0.,0.,0.00000259,0.,0.,0.00000073,0.00000002,0.,0.00005821,-0.
 00000002,0.00000004,-0.00008007,0.00000002,0.00000001,0.00033222,-0.00
 000006,0.00000015,-0.00042821,0.00000012,-0.00000008,-0.00085496,0.000
 00024,0.00000007,-0.00132142,-0.00000003,0.,0.00003947,-0.00000078,-0.
 00000003,0.00260937,-0.00000003,0.00000006,-0.00040174,-0.00000248,-0.
 00000521,0.01693435,-0.00000013,0.00000018,0.00016898,0.00000007,-0.00
 000001,0.00022360,-0.00001771,-0.00002836,-0.05847690,0.00000151,-0.00
 000755,0.01898549,0.,0.,0.00000206,0.00000005,0.00000024,-0.00000011,-
 0.00000005,-0.00000023,-0.00000013,0.,-0.00000001,0.00000021,0.0000192
 7,0.00004074,0.02222457\\-0.00001175,-0.00000768,0.00000036,0.00001102
 ,-0.00000415,0.00000002,0.00000282,0.00001225,0.00000258,-0.00001167,-
 0.00000705,0.,0.00001115,-0.00000660,-0.00000139,0.00000060,0.00001281
 ,0.00000066,0.00000082,0.00000136,0.00000017,-0.00000157,0.00000007,0.
 00000013,-0.00000024,0.00000108,0.00000004,-0.00000123,0.00000064,0.00
 000008,-0.00000779,-0.00000073,-0.00000074,0.00000696,-0.00000008,-0.0
 0000515,-0.00000193,-0.00000888,0.00000354,0.00001073,0.00000447,0.000
 00015,-0.00000943,0.00000215,0.00000028,-0.00000786,0.00000333,-0.0000
 0021,0.00000057,-0.00000074,0.00000015,0.00000952,0.00000699,-0.000000
 39,0.00000105,-0.00000028,0.00000003,-0.00000321,-0.00000677,-0.000000
 25,0.00000066,-0.00000018,-0.00000008,-0.00000038,-0.00000145,-0.00000
 010,0.00000060,0.00000095,0.00000102,-0.00000037,-0.00000110,-0.000000
 40,0.00000237,-0.00000470,0.00000011,-0.00000102,0.00000092,-0.0000010
 0,-0.00000098,0.00000218,0.00000025,0.00000030,0.00000267,0.00000048,0
 .00000025,-0.00000150,-0.00000034\\\@


 NECESSARY EVIL: ONE WE LIKE TOO MUCH TO RELINQUISH.
 Job cpu time:       0 days  2 hours 35 minutes 24.7 seconds.
 Elapsed time:       0 days  0 hours  9 minutes 36.7 seconds.
 File lengths (MBytes):  RWF=    354 Int=      0 D2E=      0 Chk=     12 Scr=      1
 Normal termination of Gaussian 16 at Fri Sep 22 17:09:58 2023.
