 Entering Gaussian System, Link 0=/home/ubuntu/g16/g16
 Input=/home/ubuntu/products/molecule_82.gjf
 Output=/home/ubuntu/products/molecule_82.log
 Initial command:
 /home/ubuntu/g16/l1.exe "/home/ubuntu/Scratch/Gau-92564.inp" -scrdir="/home/ubuntu/Scratch/"
 Entering Link 1 = /home/ubuntu/g16/l1.exe PID=     92566.
  
 Copyright (c) 1988-2017, Gaussian, Inc.  All Rights Reserved.
  
 This is part of the Gaussian(R) 16 program.  It is based on
 the Gaussian(R) 09 system (copyright 2009, Gaussian, Inc.),
 the Gaussian(R) 03 system (copyright 2003, Gaussian, Inc.),
 the Gaussian(R) 98 system (copyright 1998, Gaussian, Inc.),
 the Gaussian(R) 94 system (copyright 1995, Gaussian, Inc.),
 the Gaussian 92(TM) system (copyright 1992, Gaussian, Inc.),
 the Gaussian 90(TM) system (copyright 1990, Gaussian, Inc.),
 the Gaussian 88(TM) system (copyright 1988, Gaussian, Inc.),
 the Gaussian 86(TM) system (copyright 1986, Carnegie Mellon
 University), and the Gaussian 82(TM) system (copyright 1983,
 Carnegie Mellon University). Gaussian is a federally registered
 trademark of Gaussian, Inc.
  
 This software contains proprietary and confidential information,
 including trade secrets, belonging to Gaussian, Inc.
  
 This software is provided under written license and may be
 used, copied, transmitted, or stored only in accord with that
 written license.
  
 The following legend is applicable only to US Government
 contracts under FAR:
  
                    RESTRICTED RIGHTS LEGEND
  
 Use, reproduction and disclosure by the US Government is
 subject to restrictions as set forth in subparagraphs (a)
 and (c) of the Commercial Computer Software - Restricted
 Rights clause in FAR 52.227-19.
  
 Gaussian, Inc.
 340 Quinnipiac St., Bldg. 40, Wallingford CT 06492
  
  
 ---------------------------------------------------------------
 Warning -- This program may not be used in any manner that
 competes with the business of Gaussian, Inc. or will provide
 assistance to any competitor of Gaussian, Inc.  The licensee
 of this program is prohibited from giving any competitor of
 Gaussian, Inc. access to this program.  By using this program,
 the user acknowledges that Gaussian, Inc. is engaged in the
 business of creating and licensing software in the field of
 computational chemistry and represents and warrants to the
 licensee that it is not a competitor of Gaussian, Inc. and that
 it will not use this program in any manner prohibited above.
 ---------------------------------------------------------------
  

 Cite this work as:
 Gaussian 16, Revision B.01,
 M. J. Frisch, G. W. Trucks, H. B. Schlegel, G. E. Scuseria, 
 M. A. Robb, J. R. Cheeseman, G. Scalmani, V. Barone, 
 G. A. Petersson, H. Nakatsuji, X. Li, M. Caricato, A. V. Marenich, 
 J. Bloino, B. G. Janesko, R. Gomperts, B. Mennucci, H. P. Hratchian, 
 J. V. Ortiz, A. F. Izmaylov, J. L. Sonnenberg, D. Williams-Young, 
 F. Ding, F. Lipparini, F. Egidi, J. Goings, B. Peng, A. Petrone, 
 T. Henderson, D. Ranasinghe, V. G. Zakrzewski, J. Gao, N. Rega, 
 G. Zheng, W. Liang, M. Hada, M. Ehara, K. Toyota, R. Fukuda, 
 J. Hasegawa, M. Ishida, T. Nakajima, Y. Honda, O. Kitao, H. Nakai, 
 T. Vreven, K. Throssell, J. A. Montgomery, Jr., J. E. Peralta, 
 F. Ogliaro, M. J. Bearpark, J. J. Heyd, E. N. Brothers, K. N. Kudin, 
 V. N. Staroverov, T. A. Keith, R. Kobayashi, J. Normand, 
 K. Raghavachari, A. P. Rendell, J. C. Burant, S. S. Iyengar, 
 J. Tomasi, M. Cossi, J. M. Millam, M. Klene, C. Adamo, R. Cammi, 
 J. W. Ochterski, R. L. Martin, K. Morokuma, O. Farkas, 
 J. B. Foresman, and D. J. Fox, Gaussian, Inc., Wallingford CT, 2016.
 
 ******************************************
 Gaussian 16:  EM64L-G16RevB.01 20-Dec-2017
                18-Sep-2023 
 ******************************************
 %nprocshared=30
 Will use up to   30 processors via shared memory.
 %mem=30GB
 %chk=molecule_82.chk
 ---------------------------------------------------------
 # opt freq b3lyp/6-31+g(d) empiricaldispersion=gd3 volume
 ---------------------------------------------------------
 1/18=20,19=15,26=3,38=1/1,3;
 2/9=110,12=2,17=6,18=5,40=1/2;
 3/5=1,6=6,7=11,11=2,25=1,30=1,71=1,74=-5,124=31/1,2,3;
 4//1;
 5/5=2,38=5/2;
 6/7=2,8=2,9=2,10=2,28=1,44=1/1,4;
 7//1,2,3,16;
 1/18=20,19=15,26=3/3(2);
 2/9=110/2;
 99//99;
 2/9=110/2;
 3/5=1,6=6,7=11,11=2,25=1,30=1,71=1,74=-5,124=31/1,2,3;
 4/5=5,16=3,69=1/1;
 5/5=2,38=5/2;
 7//1,2,3,16;
 1/18=20,19=15,26=3/3(-5);
 2/9=110/2;
 6/7=2,8=2,9=2,10=2,19=2,28=1,44=1/1,4;
 99/9=1/99;
 -------------
 ML molecule80
 -------------
 Symbolic Z-matrix:
 Charge =  0 Multiplicity = 1
 C                    -4.74942  -0.23058  -0.40002 
 C                    -4.8202    0.23854  -1.71867 
 C                    -4.55025   1.58484  -1.99888 
 C                    -4.20951   2.46203  -0.96044 
 C                    -4.13873   1.99291   0.35822 
 C                    -4.40868   0.64661   0.63842 
 H                    -5.08036  -0.43121  -2.51155 
 H                    -3.87857   2.66266   1.15109 
 H                    -4.35464   0.28843   1.64524 
 O                    -3.91049   3.9533   -1.27081 
 C                    -3.81752   4.69985  -2.77936 
 C                    -4.13168   3.88761  -3.87731 
 C                    -3.30395   5.98751  -2.98454 
 C                    -3.93225   4.36302  -5.18043 
 C                    -3.10452   6.46292  -4.28767 
 H                    -3.06408   6.60768  -2.14623 
 C                    -3.41867   5.65068  -5.38561 
 H                    -4.17211   3.74285  -6.01874 
 H                    -2.7124    7.44608  -4.44432 
 H                    -4.60429   1.94302  -3.0057 
 H                    -4.5238    2.90445  -3.72065 
 C                    -3.19953   6.17311  -6.81762 
 N                    -3.03445   6.56663  -7.89627 
 O                    -5.02488  -1.60436  -0.1141 
 C                    -6.14392  -1.69246   0.77184 
 H                    -6.52337  -2.69292   0.76875 
 H                    -5.83591  -1.43089   1.7626 
 H                    -6.90979  -1.01951   0.44708 
 
 Add virtual bond connecting atoms H21        and H20        Dist= 2.27D+00.

 GradGradGradGradGradGradGradGradGradGradGradGradGradGradGradGradGradGrad
 Berny optimization.
 Initialization pass.
                           ----------------------------
                           !    Initial Parameters    !
                           ! (Angstroms and Degrees)  !
 --------------------------                            --------------------------
 ! Name  Definition              Value          Derivative Info.                !
 --------------------------------------------------------------------------------
 ! R1    R(1,2)                  1.4014         estimate D2E/DX2                !
 ! R2    R(1,6)                  1.4014         estimate D2E/DX2                !
 ! R3    R(1,24)                 1.43           estimate D2E/DX2                !
 ! R4    R(2,3)                  1.4014         estimate D2E/DX2                !
 ! R5    R(2,7)                  1.07           estimate D2E/DX2                !
 ! R6    R(3,4)                  1.4014         estimate D2E/DX2                !
 ! R7    R(3,20)                 1.07           estimate D2E/DX2                !
 ! R8    R(4,5)                  1.4014         estimate D2E/DX2                !
 ! R9    R(4,10)                 1.5523         estimate D2E/DX2                !
 ! R10   R(5,6)                  1.4014         estimate D2E/DX2                !
 ! R11   R(5,8)                  1.07           estimate D2E/DX2                !
 ! R12   R(6,9)                  1.07           estimate D2E/DX2                !
 ! R13   R(11,12)                1.4014         estimate D2E/DX2                !
 ! R14   R(11,13)                1.4014         estimate D2E/DX2                !
 ! R15   R(12,14)                1.4014         estimate D2E/DX2                !
 ! R16   R(12,21)                1.07           estimate D2E/DX2                !
 ! R17   R(13,15)                1.4014         estimate D2E/DX2                !
 ! R18   R(13,16)                1.07           estimate D2E/DX2                !
 ! R19   R(14,17)                1.4014         estimate D2E/DX2                !
 ! R20   R(14,18)                1.07           estimate D2E/DX2                !
 ! R21   R(15,17)                1.4014         estimate D2E/DX2                !
 ! R22   R(15,19)                1.07           estimate D2E/DX2                !
 ! R23   R(17,22)                1.54           estimate D2E/DX2                !
 ! R24   R(20,21)                1.2008         estimate D2E/DX2                !
 ! R25   R(22,23)                1.16           estimate D2E/DX2                !
 ! R26   R(24,25)                1.43           estimate D2E/DX2                !
 ! R27   R(25,26)                1.07           estimate D2E/DX2                !
 ! R28   R(25,27)                1.07           estimate D2E/DX2                !
 ! R29   R(25,28)                1.07           estimate D2E/DX2                !
 ! A1    A(2,1,6)              120.0            estimate D2E/DX2                !
 ! A2    A(2,1,24)             120.0            estimate D2E/DX2                !
 ! A3    A(6,1,24)             120.0            estimate D2E/DX2                !
 ! A4    A(1,2,3)              120.0            estimate D2E/DX2                !
 ! A5    A(1,2,7)              120.0            estimate D2E/DX2                !
 ! A6    A(3,2,7)              120.0            estimate D2E/DX2                !
 ! A7    A(2,3,4)              120.0            estimate D2E/DX2                !
 ! A8    A(2,3,20)             120.0            estimate D2E/DX2                !
 ! A9    A(4,3,20)             120.0            estimate D2E/DX2                !
 ! A10   A(3,4,5)              120.0            estimate D2E/DX2                !
 ! A11   A(3,4,10)             120.0            estimate D2E/DX2                !
 ! A12   A(5,4,10)             120.0            estimate D2E/DX2                !
 ! A13   A(4,5,6)              120.0            estimate D2E/DX2                !
 ! A14   A(4,5,8)              120.0            estimate D2E/DX2                !
 ! A15   A(6,5,8)              120.0            estimate D2E/DX2                !
 ! A16   A(1,6,5)              120.0            estimate D2E/DX2                !
 ! A17   A(1,6,9)              120.0            estimate D2E/DX2                !
 ! A18   A(5,6,9)              120.0            estimate D2E/DX2                !
 ! A19   A(12,11,13)           120.0            estimate D2E/DX2                !
 ! A20   A(11,12,14)           120.0            estimate D2E/DX2                !
 ! A21   A(11,12,21)           120.0            estimate D2E/DX2                !
 ! A22   A(14,12,21)           120.0            estimate D2E/DX2                !
 ! A23   A(11,13,15)           120.0            estimate D2E/DX2                !
 ! A24   A(11,13,16)           120.0            estimate D2E/DX2                !
 ! A25   A(15,13,16)           120.0            estimate D2E/DX2                !
 ! A26   A(12,14,17)           120.0            estimate D2E/DX2                !
 ! A27   A(12,14,18)           120.0            estimate D2E/DX2                !
 ! A28   A(17,14,18)           120.0            estimate D2E/DX2                !
 ! A29   A(13,15,17)           120.0            estimate D2E/DX2                !
 ! A30   A(13,15,19)           120.0            estimate D2E/DX2                !
 ! A31   A(17,15,19)           120.0            estimate D2E/DX2                !
 ! A32   A(14,17,15)           120.0            estimate D2E/DX2                !
 ! A33   A(14,17,22)           120.0            estimate D2E/DX2                !
 ! A34   A(15,17,22)           120.0            estimate D2E/DX2                !
 ! A35   A(3,20,21)            145.574          estimate D2E/DX2                !
 ! A36   A(12,21,20)           147.929          estimate D2E/DX2                !
 ! A37   A(1,24,25)            109.5            estimate D2E/DX2                !
 ! A38   A(24,25,26)           109.4712         estimate D2E/DX2                !
 ! A39   A(24,25,27)           109.4712         estimate D2E/DX2                !
 ! A40   A(24,25,28)           109.4712         estimate D2E/DX2                !
 ! A41   A(26,25,27)           109.4713         estimate D2E/DX2                !
 ! A42   A(26,25,28)           109.4712         estimate D2E/DX2                !
 ! A43   A(27,25,28)           109.4712         estimate D2E/DX2                !
 ! A44   L(17,22,23,18,-1)     180.0            estimate D2E/DX2                !
 ! A45   L(17,22,23,18,-2)     180.0            estimate D2E/DX2                !
 ! D1    D(6,1,2,3)              0.0001         estimate D2E/DX2                !
 ! D2    D(6,1,2,7)           -179.9998         estimate D2E/DX2                !
 ! D3    D(24,1,2,3)          -179.9999         estimate D2E/DX2                !
 ! D4    D(24,1,2,7)             0.0002         estimate D2E/DX2                !
 ! D5    D(2,1,6,5)             -0.0001         estimate D2E/DX2                !
 ! D6    D(2,1,6,9)            179.9998         estimate D2E/DX2                !
 ! D7    D(24,1,6,5)           179.9999         estimate D2E/DX2                !
 ! D8    D(24,1,6,9)            -0.0002         estimate D2E/DX2                !
 ! D9    D(2,1,24,25)         -119.1104         estimate D2E/DX2                !
 ! D10   D(6,1,24,25)           60.8896         estimate D2E/DX2                !
 ! D11   D(1,2,3,4)              0.0001         estimate D2E/DX2                !
 ! D12   D(1,2,3,20)          -179.9999         estimate D2E/DX2                !
 ! D13   D(7,2,3,4)            179.9999         estimate D2E/DX2                !
 ! D14   D(7,2,3,20)            -0.0001         estimate D2E/DX2                !
 ! D15   D(2,3,4,5)             -0.0002         estimate D2E/DX2                !
 ! D16   D(2,3,4,10)           179.9998         estimate D2E/DX2                !
 ! D17   D(20,3,4,5)           179.9998         estimate D2E/DX2                !
 ! D18   D(20,3,4,10)           -0.0002         estimate D2E/DX2                !
 ! D19   D(2,3,20,21)          176.508          estimate D2E/DX2                !
 ! D20   D(4,3,20,21)           -3.492          estimate D2E/DX2                !
 ! D21   D(3,4,5,6)              0.0001         estimate D2E/DX2                !
 ! D22   D(3,4,5,8)           -180.0            estimate D2E/DX2                !
 ! D23   D(10,4,5,6)          -179.9999         estimate D2E/DX2                !
 ! D24   D(10,4,5,8)             0.0            estimate D2E/DX2                !
 ! D25   D(4,5,6,1)              0.0            estimate D2E/DX2                !
 ! D26   D(4,5,6,9)           -179.9999         estimate D2E/DX2                !
 ! D27   D(8,5,6,1)           -179.9999         estimate D2E/DX2                !
 ! D28   D(8,5,6,9)              0.0002         estimate D2E/DX2                !
 ! D29   D(13,11,12,14)          0.0002         estimate D2E/DX2                !
 ! D30   D(13,11,12,21)       -179.9998         estimate D2E/DX2                !
 ! D31   D(12,11,13,15)          0.0            estimate D2E/DX2                !
 ! D32   D(12,11,13,16)        179.9999         estimate D2E/DX2                !
 ! D33   D(11,12,14,17)         -0.0002         estimate D2E/DX2                !
 ! D34   D(11,12,14,18)        179.9998         estimate D2E/DX2                !
 ! D35   D(21,12,14,17)        179.9998         estimate D2E/DX2                !
 ! D36   D(21,12,14,18)         -0.0002         estimate D2E/DX2                !
 ! D37   D(11,12,21,20)        -26.6215         estimate D2E/DX2                !
 ! D38   D(14,12,21,20)        153.3785         estimate D2E/DX2                !
 ! D39   D(11,13,15,17)         -0.0001         estimate D2E/DX2                !
 ! D40   D(11,13,15,19)        179.9999         estimate D2E/DX2                !
 ! D41   D(16,13,15,17)        179.9999         estimate D2E/DX2                !
 ! D42   D(16,13,15,19)          0.0            estimate D2E/DX2                !
 ! D43   D(12,14,17,15)          0.0001         estimate D2E/DX2                !
 ! D44   D(12,14,17,22)       -179.9999         estimate D2E/DX2                !
 ! D45   D(18,14,17,15)       -179.9999         estimate D2E/DX2                !
 ! D46   D(18,14,17,22)          0.0001         estimate D2E/DX2                !
 ! D47   D(13,15,17,14)          0.0001         estimate D2E/DX2                !
 ! D48   D(13,15,17,22)       -180.0            estimate D2E/DX2                !
 ! D49   D(19,15,17,14)       -180.0            estimate D2E/DX2                !
 ! D50   D(19,15,17,22)          0.0            estimate D2E/DX2                !
 ! D51   D(3,20,21,12)          24.9605         estimate D2E/DX2                !
 ! D52   D(1,24,25,26)         164.0948         estimate D2E/DX2                !
 ! D53   D(1,24,25,27)         -75.9052         estimate D2E/DX2                !
 ! D54   D(1,24,25,28)          44.0948         estimate D2E/DX2                !
 --------------------------------------------------------------------------------
 Trust Radius=3.00D-01 FncErr=1.00D-07 GrdErr=1.00D-06 EigMax=2.50D+02 EigMin=1.00D-04
 Number of steps in this run=    138 maximum allowed number of steps=    168.
 GradGradGradGradGradGradGradGradGradGradGradGradGradGradGradGradGradGrad

                          Input orientation:                          
 ---------------------------------------------------------------------
 Center     Atomic      Atomic             Coordinates (Angstroms)
 Number     Number       Type             X           Y           Z
 ---------------------------------------------------------------------
      1          6           0       -4.749416   -0.230579   -0.400021
      2          6           0       -4.820199    0.238538   -1.718672
      3          6           0       -4.550247    1.584841   -1.998879
      4          6           0       -4.209510    2.462026   -0.960435
      5          6           0       -4.138728    1.992910    0.358216
      6          6           0       -4.408682    0.646607    0.638423
      7          1           0       -5.080361   -0.431212   -2.511547
      8          1           0       -3.878568    2.662660    1.151091
      9          1           0       -4.354640    0.288426    1.645243
     10          8           0       -3.910486    3.953296   -1.270814
     11          6           0       -3.817523    4.699853   -2.779363
     12          6           0       -4.131676    3.887607   -3.877310
     13          6           0       -3.303947    5.987511   -2.984541
     14          6           0       -3.932249    4.363019   -5.180435
     15          6           0       -3.104523    6.462923   -4.287666
     16          1           0       -3.064085    6.607679   -2.146234
     17          6           0       -3.418674    5.650677   -5.385613
     18          1           0       -4.172109    3.742850   -6.018741
     19          1           0       -2.712397    7.446079   -4.444324
     20          1           0       -4.604292    1.943023   -3.005698
     21          1           0       -4.523805    2.904453   -3.720651
     22          6           0       -3.199526    6.173108   -6.817619
     23          7           0       -3.034455    6.566628   -7.896272
     24          8           0       -5.024877   -1.604358   -0.114096
     25          6           0       -6.143918   -1.692464    0.771842
     26          1           0       -6.523374   -2.692915    0.768749
     27          1           0       -5.835909   -1.430889    1.762603
     28          1           0       -6.909793   -1.019513    0.447077
 ---------------------------------------------------------------------
                    Distance matrix (angstroms):
                    1          2          3          4          5
     1  C    0.000000
     2  C    1.401400   0.000000
     3  C    2.427296   1.401400   0.000000
     4  C    2.802800   2.427296   1.401400   0.000000
     5  C    2.427296   2.802800   2.427296   1.401400   0.000000
     6  C    1.401400   2.427296   2.802800   2.427296   1.401400
     7  H    2.146700   1.070000   2.146700   3.396345   3.872800
     8  H    3.396345   3.872800   3.396345   2.146700   1.070000
     9  H    2.146700   3.396345   3.872800   3.396345   2.146700
    10  O    4.355100   3.850660   2.559092   1.552300   2.559092
    11  C    5.553274   4.694012   3.293833   2.910330   4.156335
    12  C    5.425182   4.295286   3.001072   3.247537   4.640001
    13  C    6.887218   6.078827   4.680630   4.164864   5.275199
    14  C    6.679914   5.457435   4.268781   4.636706   6.027993
    15  C    7.913434   6.948831   5.578920   5.319647   6.529535
    16  H    7.256127   6.620627   5.240161   4.461452   5.359405
    17  C    7.824077   6.685954   5.411233   5.511362   6.847577
    18  H    6.905899   5.584874   4.578131   5.218081   6.612790
    19  H    8.912739   7.988783   6.611506   6.262556   7.405125
    20  H    3.396345   2.146700   1.070000   2.146700   3.396345
    21  H    4.572298   3.347069   2.169464   2.813062   4.197184
    22  C    9.197550   7.990304   6.789469   7.007053   8.357558
    23  N   10.263376   9.021992   7.867342   8.144590   9.501310
    24  O    1.430000   2.452106   3.734792   4.232800   3.734792
    25  C    2.335595   3.418137   4.577926   4.899235   4.215904
    26  H    3.252084   4.204936   5.463716   5.909101   5.273711
    27  H    2.701510   3.992234   4.989620   5.021444   4.071255
    28  H    2.450963   3.261835   4.281684   4.625337   4.094067
                    6          7          8          9         10
     6  C    0.000000
     7  H    3.396345   0.000000
     8  H    2.146700   4.942800   0.000000
     9  H    1.070000   4.280590   2.471400   0.000000
    10  O    3.850660   4.704459   2.744520   4.704459   0.000000
    11  C    5.334748   5.290965   4.427454   6.271070   1.685736
    12  C    5.565309   4.627906   5.181638   6.595635   2.616688
    13  C    6.547638   6.676779   5.337441   7.417441   2.728146
    14  C    6.920825   5.605869   6.556091   7.960565   3.931091
    15  C    7.732834   7.388345   6.679913   8.653706   4.006145
    16  H    6.715403   7.331085   5.205662   7.481563   2.920360
    17  C    7.893659   6.928985   7.201962   8.891721   4.478231
    18  H    7.345783   5.527036   7.256685   8.408509   4.759784
    19  H    8.657051   8.449532   7.453169   9.540010   4.868893
    20  H    3.872800   2.471400   4.280590   4.942800   2.744520
    21  H    4.910464   3.591427   4.920231   5.972021   2.734581
    22  C    9.359318   8.105358   8.734110  10.372261   6.016649
    23  N   10.477413   9.063706   9.889807  11.497792   7.175906
    24  O    2.452106   2.669667   4.595886   2.669667   5.785100
    25  C    2.915492   3.674582   4.923692   2.808606   6.405877
    26  H    3.954910   4.237680   5.985263   3.789465   7.426919
    27  H    2.759845   4.454051   4.578457   2.272438   6.472891
    28  H    3.011333   3.527942   4.821033   3.110484   6.056057
                   11         12         13         14         15
    11  C    0.000000
    12  C    1.401400   0.000000
    13  C    1.401400   2.427296   0.000000
    14  C    2.427296   1.401400   2.802800   0.000000
    15  C    2.427296   2.802800   1.401400   2.427296   0.000000
    16  H    2.146700   3.396345   1.070000   3.872800   2.146700
    17  C    2.802800   2.427296   2.427296   1.401400   1.401400
    18  H    3.396345   2.146700   3.872800   1.070000   3.396345
    19  H    3.396345   3.872800   2.146700   3.396345   1.070000
    20  H    2.875821   2.182769   4.248439   3.322273   4.931759
    21  H    2.146700   1.070000   3.396345   2.146700   3.872800
    22  C    4.342800   3.838989   3.838989   2.548270   2.548270
    23  N    5.502800   4.953091   4.953091   3.610776   3.610776
    24  O    6.950138   6.717237   8.296838   7.903873   9.283721
    25  C    7.673648   7.536638   9.008766   8.774391  10.067119
    26  H    8.635030   8.402937   9.990080   9.586079  11.003875
    27  H    7.892359   7.937218   9.163998   9.241161  10.313995
    28  H    7.258319   7.106201   8.595145   8.337044   9.637673
                   16         17         18         19         20
    16  H    0.000000
    17  C    3.396345   0.000000
    18  H    4.942800   2.146700   0.000000
    19  H    2.471400   2.146700   4.280590   0.000000
    20  H    4.986976   4.562498   3.536183   5.994376   0.000000
    21  H    4.280590   3.396345   2.471400   4.942800   1.200826
    22  C    4.693509   1.540000   2.736837   2.736837   5.864957
    23  N    5.750261   2.700000   3.576744   3.576744   6.910848
    24  O    8.683999   9.110670   8.011534  10.296060   4.595886
    25  C    9.321636   9.963078   8.918671  11.067822   5.464158
    26  H   10.342382  10.822701   9.644560  12.020769   6.278634
    27  H    9.358450  10.348362   9.491319  11.273102   5.969662
    28  H    8.926858   9.523635   8.484210  10.640028   5.100354
                   21         22         23         24         25
    21  H    0.000000
    22  C    4.693509   0.000000
    23  N    5.750261   1.160000   0.000000
    24  O    5.795489  10.428715  11.458144   0.000000
    25  C    6.628643  11.319743  12.370026   1.430000   0.000000
    26  H    7.448726  12.132902  13.152729   2.051796   1.070000
    27  H    7.112165  11.763991  12.849214   2.051796   1.070000
    28  H    6.201646  10.875462  11.923895   2.051796   1.070000
                   26         27         28
    26  H    0.000000
    27  H    1.747303   0.000000
    28  H    1.747303   1.747303   0.000000
 Stoichiometry    C14H11NO2
 Framework group  C1[X(C14H11NO2)]
 Deg. of freedom    78
 Full point group                 C1      NOp   1
 Largest Abelian subgroup         C1      NOp   1
 Largest concise Abelian subgroup C1      NOp   1
                         Standard orientation:                         
 ---------------------------------------------------------------------
 Center     Atomic      Atomic             Coordinates (Angstroms)
 Number     Number       Type             X           Y           Z
 ---------------------------------------------------------------------
      1          6           0        3.720213   -0.481172   -0.301104
      2          6           0        2.530568   -1.204130   -0.139870
      3          6           0        1.311599   -0.526224   -0.003928
      4          6           0        1.282276    0.874641   -0.029221
      5          6           0        2.471921    1.597599   -0.190453
      6          6           0        3.690890    0.919693   -0.326395
      7          1           0        2.552957   -2.273722   -0.120557
      8          1           0        2.449532    2.667191   -0.209765
      9          1           0        4.599211    1.471689   -0.449497
     10          8           0       -0.067950    1.625542    0.121356
     11          6           0       -1.617336    0.966399    0.202837
     12          6           0       -1.679661   -0.433508    0.220125
     13          6           0       -2.794336    1.718873    0.091597
     14          6           0       -2.918986   -1.080940    0.126170
     15          6           0       -4.033662    1.071442   -0.002355
     16          1           0       -2.746750    2.787733    0.078398
     17          6           0       -4.095986   -0.328465    0.014931
     18          1           0       -2.966573   -2.149800    0.139367
     19          1           0       -4.932327    1.645973   -0.087288
     20          1           0        0.403279   -1.078219    0.119179
     21          1           0       -0.780996   -1.008039    0.305062
     22          6           0       -5.457882   -1.039929   -0.088314
     23          7           0       -6.483726   -1.575836   -0.166082
     24          8           0        4.964059   -1.172912   -0.439822
     25          6           0        5.836487   -0.805919    0.632132
     26          1           0        6.640673   -1.509012    0.694140
     27          1           0        6.231012    0.172236    0.451958
     28          1           0        5.290570   -0.806377    1.552390
 ---------------------------------------------------------------------
 Rotational constants (GHZ):           1.5664277           0.1614742           0.1477899
 Standard basis: 6-31+G(d) (6D, 7F)
 There are   345 symmetry adapted cartesian basis functions of A   symmetry.
 There are   345 symmetry adapted basis functions of A   symmetry.
   345 basis functions,   588 primitive gaussians,   345 cartesian basis functions
    59 alpha electrons       59 beta electrons
       nuclear repulsion energy      1006.2577206134 Hartrees.
 NAtoms=   28 NActive=   28 NUniq=   28 SFac= 1.00D+00 NAtFMM=   60 NAOKFM=F Big=F
 Integral buffers will be    131072 words long.
 Raffenetti 2 integral format.
 Two-electron integral symmetry is turned on.
 Nuclear repulsion after empirical dispersion term =     1006.2357998466 Hartrees.
 One-electron integrals computed using PRISM.
 NBasis=   345 RedAO= T EigKep=  1.24D-06  NBF=   345
 NBsUse=   344 1.00D-06 EigRej=  4.05D-07 NBFU=   344
 ExpMin= 4.38D-02 ExpMax= 5.48D+03 ExpMxC= 8.25D+02 IAcc=3 IRadAn=         5 AccDes= 0.00D+00
 Harris functional with IExCor=  402 and IRadAn=       5 diagonalized for initial guess.
 HarFok:  IExCor=  402 AccDes= 0.00D+00 IRadAn=         5 IDoV= 1 UseB2=F ITyADJ=14
 ICtDFT=  3500011 ScaDFX=  1.000000  1.000000  1.000000  1.000000
 FoFCou: FMM=F IPFlag=           0 FMFlag=      100000 FMFlg1=           0
         NFxFlg=           0 DoJE=T BraDBF=F KetDBF=T FulRan=T
         wScrn=  0.000000 ICntrl=       500 IOpCl=  0 I1Cent=   200000004 NGrid=           0
         NMat0=    1 NMatS0=      1 NMatT0=    0 NMatD0=    1 NMtDS0=    0 NMtDT0=    0
 Petite list used in FoFCou.
 Requested convergence on RMS density matrix=1.00D-08 within 128 cycles.
 Requested convergence on MAX density matrix=1.00D-06.
 Requested convergence on             energy=1.00D-06.
 No special actions if energy rises.
 SCF Done:  E(RB3LYP) =  -745.219327380     A.U. after   16 cycles
            NFock= 16  Conv=0.44D-08     -V/T= 2.0103

 **********************************************************************

            Population analysis using the SCF Density.

 **********************************************************************

 Orbital symmetries:
       Occupied  (A) (A) (A) (A) (A) (A) (A) (A) (A) (A) (A) (A)
                 (A) (A) (A) (A) (A) (A) (A) (A) (A) (A) (A) (A)
                 (A) (A) (A) (A) (A) (A) (A) (A) (A) (A) (A) (A)
                 (A) (A) (A) (A) (A) (A) (A) (A) (A) (A) (A) (A)
                 (A) (A) (A) (A) (A) (A) (A) (A) (A) (A) (A)
       Virtual   (A) (A) (A) (A) (A) (A) (A) (A) (A) (A) (A) (A)
                 (A) (A) (A) (A) (A) (A) (A) (A) (A) (A) (A) (A)
                 (A) (A) (A) (A) (A) (A) (A) (A) (A) (A) (A) (A)
                 (A) (A) (A) (A) (A) (A) (A) (A) (A) (A) (A) (A)
                 (A) (A) (A) (A) (A) (A) (A) (A) (A) (A) (A) (A)
                 (A) (A) (A) (A) (A) (A) (A) (A) (A) (A) (A) (A)
                 (A) (A) (A) (A) (A) (A) (A) (A) (A) (A) (A) (A)
                 (A) (A) (A) (A) (A) (A) (A) (A) (A) (A) (A) (A)
                 (A) (A) (A) (A) (A) (A) (A) (A) (A) (A) (A) (A)
                 (A) (A) (A) (A) (A) (A) (A) (A) (A) (A) (A) (A)
                 (A) (A) (A) (A) (A) (A) (A) (A) (A) (A) (A) (A)
                 (A) (A) (A) (A) (A) (A) (A) (A) (A) (A) (A) (A)
                 (A) (A) (A) (A) (A) (A) (A) (A) (A) (A) (A) (A)
                 (A) (A) (A) (A) (A) (A) (A) (A) (A) (A) (A) (A)
                 (A) (A) (A) (A) (A) (A) (A) (A) (A) (A) (A) (A)
                 (A) (A) (A) (A) (A) (A) (A) (A) (A) (A) (A) (A)
                 (A) (A) (A) (A) (A) (A) (A) (A) (A) (A) (A) (A)
                 (A) (A) (A) (A) (A) (A) (A) (A) (A) (A) (A) (A)
                 (A) (A) (A) (A) (A) (A) (A) (A) (A) (A) (A) (A)
                 (A) (A) (A) (A) (A) (A) (A) (A) (A) (A) (A) (A)
                 (A) (A) (A) (A) (A) (A) (A) (A) (A) (A) (A) (A)
                 (A) (A) (A) (A) (A) (A) (A) (A) (A) (A) (A) (A)
                 (A) (A) (A) (A) (A) (A) (A) (A) (A) (A) (A) (A)
                 (A) (A) (A) (A) (A) (A) (A) (A) (A)
 The electronic state is 1-A.
 Alpha  occ. eigenvalues --  -19.20213 -19.18277 -14.35737 -10.30647 -10.28073
 Alpha  occ. eigenvalues --  -10.27169 -10.26390 -10.25330 -10.24580 -10.24286
 Alpha  occ. eigenvalues --  -10.24284 -10.23779 -10.23390 -10.22047 -10.21749
 Alpha  occ. eigenvalues --  -10.21620 -10.21499  -1.05386  -0.98698  -0.92458
 Alpha  occ. eigenvalues --   -0.90014  -0.87101  -0.79847  -0.79715  -0.77551
 Alpha  occ. eigenvalues --   -0.75964  -0.70238  -0.66623  -0.65438  -0.63937
 Alpha  occ. eigenvalues --   -0.61222  -0.58515  -0.55018  -0.51715  -0.50967
 Alpha  occ. eigenvalues --   -0.50684  -0.49398  -0.47944  -0.47379  -0.46495
 Alpha  occ. eigenvalues --   -0.45642  -0.45206  -0.43662  -0.42645  -0.41291
 Alpha  occ. eigenvalues --   -0.40748  -0.40059  -0.37797  -0.37394  -0.36913
 Alpha  occ. eigenvalues --   -0.35945  -0.35217  -0.33802  -0.33309  -0.29896
 Alpha  occ. eigenvalues --   -0.29756  -0.28228  -0.27699  -0.23960
 Alpha virt. eigenvalues --   -0.06969  -0.05480  -0.04383  -0.03368  -0.01902
 Alpha virt. eigenvalues --   -0.00575   0.00164   0.00805   0.01320   0.01982
 Alpha virt. eigenvalues --    0.02187   0.03016   0.03340   0.03918   0.04120
 Alpha virt. eigenvalues --    0.04654   0.05019   0.05669   0.06006   0.06178
 Alpha virt. eigenvalues --    0.06520   0.07065   0.07929   0.08110   0.08347
 Alpha virt. eigenvalues --    0.08979   0.09449   0.09723   0.10550   0.11119
 Alpha virt. eigenvalues --    0.11941   0.12153   0.12301   0.12497   0.12672
 Alpha virt. eigenvalues --    0.13256   0.13278   0.13775   0.14171   0.14444
 Alpha virt. eigenvalues --    0.14934   0.15181   0.15573   0.16241   0.16695
 Alpha virt. eigenvalues --    0.17232   0.17405   0.18431   0.18989   0.19158
 Alpha virt. eigenvalues --    0.19495   0.19787   0.20277   0.20490   0.21043
 Alpha virt. eigenvalues --    0.21702   0.21901   0.22916   0.23007   0.23148
 Alpha virt. eigenvalues --    0.23793   0.24179   0.24503   0.24756   0.25274
 Alpha virt. eigenvalues --    0.25572   0.25898   0.26147   0.26479   0.26716
 Alpha virt. eigenvalues --    0.27232   0.27799   0.27857   0.28493   0.29101
 Alpha virt. eigenvalues --    0.29581   0.29826   0.30318   0.30604   0.30758
 Alpha virt. eigenvalues --    0.31733   0.31987   0.32890   0.33335   0.34481
 Alpha virt. eigenvalues --    0.34706   0.35274   0.35968   0.36088   0.36714
 Alpha virt. eigenvalues --    0.37362   0.38542   0.38980   0.39630   0.40409
 Alpha virt. eigenvalues --    0.41749   0.42753   0.43854   0.49541   0.53967
 Alpha virt. eigenvalues --    0.57127   0.57439   0.59872   0.60868   0.63082
 Alpha virt. eigenvalues --    0.64528   0.65224   0.65777   0.66662   0.67913
 Alpha virt. eigenvalues --    0.68824   0.69298   0.69831   0.71020   0.71498
 Alpha virt. eigenvalues --    0.71881   0.72832   0.73167   0.73811   0.74274
 Alpha virt. eigenvalues --    0.75612   0.76200   0.76470   0.77103   0.77134
 Alpha virt. eigenvalues --    0.77982   0.79736   0.80485   0.82181   0.82946
 Alpha virt. eigenvalues --    0.84557   0.86630   0.87862   0.88130   0.91134
 Alpha virt. eigenvalues --    0.91650   0.92194   0.93904   0.94968   0.96661
 Alpha virt. eigenvalues --    0.97690   0.98387   0.98741   1.00341   1.01235
 Alpha virt. eigenvalues --    1.01901   1.04895   1.05694   1.07878   1.09619
 Alpha virt. eigenvalues --    1.10451   1.11173   1.11295   1.13163   1.13537
 Alpha virt. eigenvalues --    1.15149   1.16449   1.16931   1.17178   1.19013
 Alpha virt. eigenvalues --    1.20179   1.20671   1.20860   1.21848   1.23242
 Alpha virt. eigenvalues --    1.24662   1.26120   1.27186   1.28189   1.29420
 Alpha virt. eigenvalues --    1.30038   1.31987   1.33414   1.35330   1.36428
 Alpha virt. eigenvalues --    1.37058   1.40884   1.41273   1.41643   1.42093
 Alpha virt. eigenvalues --    1.42648   1.43967   1.46179   1.46707   1.47408
 Alpha virt. eigenvalues --    1.48834   1.49244   1.51148   1.51743   1.53077
 Alpha virt. eigenvalues --    1.54449   1.55923   1.57987   1.67447   1.68186
 Alpha virt. eigenvalues --    1.72791   1.74368   1.74673   1.76645   1.77174
 Alpha virt. eigenvalues --    1.79372   1.80293   1.82782   1.84408   1.85227
 Alpha virt. eigenvalues --    1.87287   1.89038   1.93615   1.94330   1.94820
 Alpha virt. eigenvalues --    1.95737   1.96329   1.97423   1.97703   2.01407
 Alpha virt. eigenvalues --    2.02733   2.04931   2.06339   2.06889   2.07508
 Alpha virt. eigenvalues --    2.08913   2.10002   2.10374   2.12218   2.12596
 Alpha virt. eigenvalues --    2.14162   2.15214   2.18388   2.21832   2.22200
 Alpha virt. eigenvalues --    2.25085   2.25885   2.26066   2.27809   2.28340
 Alpha virt. eigenvalues --    2.29523   2.31799   2.36533   2.39983   2.40558
 Alpha virt. eigenvalues --    2.44186   2.50999   2.55317   2.59005   2.59490
 Alpha virt. eigenvalues --    2.61156   2.61532   2.61867   2.62986   2.67245
 Alpha virt. eigenvalues --    2.69793   2.71937   2.72128   2.74163   2.77282
 Alpha virt. eigenvalues --    2.78380   2.80318   2.82940   2.86646   2.93786
 Alpha virt. eigenvalues --    2.99615   3.03716   3.04165   3.08585   3.11141
 Alpha virt. eigenvalues --    3.20084   3.40277   3.41403   4.17269   4.20570
 Alpha virt. eigenvalues --    4.23624   4.24724   4.27981   4.29847   4.31011
 Alpha virt. eigenvalues --    4.33414   4.35809   4.35925   4.37393   4.39699
 Alpha virt. eigenvalues --    4.41981   4.51855   4.56047   4.74852   4.79707
          Condensed to atoms (all electrons):
               1          2          3          4          5          6
     1  C    7.831089  -1.909892   0.792787  -1.744540   0.900884  -0.015175
     2  C   -1.909892  13.159142  -4.333462   1.300593  -0.073521  -1.509064
     3  C    0.792787  -4.333462  12.036466  -1.482354  -1.331794  -0.121543
     4  C   -1.744540   1.300593  -1.482354  10.623680  -3.214022   0.355533
     5  C    0.900884  -0.073521  -1.331794  -3.214022  11.640659  -1.004230
     6  C   -0.015175  -1.509064  -0.121543   0.355533  -1.004230   7.739425
     7  H    0.014319   0.301879  -0.043227   0.022139  -0.038047   0.038479
     8  H    0.022508  -0.048146   0.087144   0.023039   0.299112  -0.084386
     9  H   -0.056157   0.028760  -0.010009   0.047752  -0.118199   0.399322
    10  O   -0.025354   0.027269  -0.140682   0.330861  -0.182280   0.028478
    11  C    0.045567  -0.236119   0.223530  -0.453005   0.368764  -0.010625
    12  C   -0.230751   0.167616  -0.435808   0.916653  -0.153966   0.076629
    13  C    0.021997  -0.386147  -0.334382   0.078348   0.264987   0.002489
    14  C    0.001159   0.239699   0.417226  -0.738625  -0.787050   0.080192
    15  C    0.006593   0.044048   0.174849   0.027761  -0.035244  -0.015183
    16  H   -0.000014  -0.000040   0.002473  -0.002330  -0.002905  -0.000137
    17  C   -0.019222  -0.025722  -0.172122   0.044788   0.033110   0.009271
    18  H    0.000009   0.003316  -0.003405  -0.001310  -0.000467   0.000040
    19  H    0.000000   0.000037   0.000171   0.000457  -0.000029   0.000004
    20  H   -0.054008   0.013977   0.066796   0.116541   0.049370   0.011224
    21  H   -0.002554  -0.010470  -0.011889   0.040028   0.002735   0.004754
    22  C   -0.001954   0.009007  -0.012060  -0.074066  -0.010231   0.001984
    23  N    0.000002  -0.000127  -0.000328   0.000696   0.000044  -0.000003
    24  O    0.509254  -0.255409   0.001711  -0.030041   0.030407  -0.147414
    25  C   -0.184662  -0.063346  -0.010040  -0.016639   0.055262  -0.004933
    26  H    0.014163   0.015016  -0.001331   0.000036  -0.000416  -0.014039
    27  H    0.007259  -0.069706   0.011727  -0.004445   0.010047   0.021168
    28  H   -0.053655   0.090154  -0.011780   0.008424  -0.008739  -0.017320
               7          8          9         10         11         12
     1  C    0.014319   0.022508  -0.056157  -0.025354   0.045567  -0.230751
     2  C    0.301879  -0.048146   0.028760   0.027269  -0.236119   0.167616
     3  C   -0.043227   0.087144  -0.010009  -0.140682   0.223530  -0.435808
     4  C    0.022139   0.023039   0.047752   0.330861  -0.453005   0.916653
     5  C   -0.038047   0.299112  -0.118199  -0.182280   0.368764  -0.153966
     6  C    0.038479  -0.084386   0.399322   0.028478  -0.010625   0.076629
     7  H    0.519353   0.000014  -0.000158  -0.000263  -0.003910  -0.000898
     8  H    0.000014   0.509945  -0.005130  -0.004482  -0.003667  -0.000021
     9  H   -0.000158  -0.005130   0.524007  -0.000097   0.000402   0.000862
    10  O   -0.000263  -0.004482  -0.000097   8.370889   0.295771   0.032651
    11  C   -0.003910  -0.003667   0.000402   0.295771  10.220404  -0.595976
    12  C   -0.000898  -0.000021   0.000862   0.032651  -0.595976  15.312781
    13  C   -0.000584   0.000934  -0.000094  -0.249387  -3.324616  -1.419746
    14  C    0.004668  -0.000164   0.000095  -0.048351   0.199797  -9.204306
    15  C    0.000029  -0.000067  -0.000002   0.042649   1.212108   0.914279
    16  H    0.000000   0.000000   0.000000  -0.001745   0.036564   0.050197
    17  C    0.000061  -0.000004   0.000004  -0.026983  -1.506501   1.963517
    18  H    0.000000   0.000000   0.000000  -0.000156   0.009800  -0.008934
    19  H    0.000000   0.000000   0.000000  -0.000097   0.030858  -0.008359
    20  H   -0.008293  -0.000207   0.000014  -0.011303   0.032795   0.028179
    21  H    0.000240   0.000004   0.000000  -0.010716   0.071532   0.063256
    22  C   -0.000001   0.000000   0.000000  -0.004068  -0.397753  -1.860248
    23  N    0.000000   0.000000   0.000000  -0.000012   0.000893   0.071456
    24  O   -0.004202  -0.000584  -0.002846   0.000230   0.001897  -0.001557
    25  C    0.000764   0.000232   0.001424  -0.000032  -0.000281  -0.000985
    26  H   -0.000027   0.000000  -0.000032   0.000000   0.000007  -0.000002
    27  H    0.000006   0.000011   0.001268  -0.000001   0.000065  -0.000114
    28  H   -0.000014  -0.000003   0.000147   0.000001  -0.000305   0.000380
              13         14         15         16         17         18
     1  C    0.021997   0.001159   0.006593  -0.000014  -0.019222   0.000009
     2  C   -0.386147   0.239699   0.044048  -0.000040  -0.025722   0.003316
     3  C   -0.334382   0.417226   0.174849   0.002473  -0.172122  -0.003405
     4  C    0.078348  -0.738625   0.027761  -0.002330   0.044788  -0.001310
     5  C    0.264987  -0.787050  -0.035244  -0.002905   0.033110  -0.000467
     6  C    0.002489   0.080192  -0.015183  -0.000137   0.009271   0.000040
     7  H   -0.000584   0.004668   0.000029   0.000000   0.000061   0.000000
     8  H    0.000934  -0.000164  -0.000067   0.000000  -0.000004   0.000000
     9  H   -0.000094   0.000095  -0.000002   0.000000   0.000004   0.000000
    10  O   -0.249387  -0.048351   0.042649  -0.001745  -0.026983  -0.000156
    11  C   -3.324616   0.199797   1.212108   0.036564  -1.506501   0.009800
    12  C   -1.419746  -9.204306   0.914279   0.050197   1.963517  -0.008934
    13  C   11.666042   0.116842  -1.763077   0.310069   1.120415  -0.038375
    14  C    0.116842  18.879286  -2.891828  -0.027593  -2.655234   0.231988
    15  C   -1.763077  -2.891828   9.441687  -0.072408  -0.306798   0.058563
    16  H    0.310069  -0.027593  -0.072408   0.493249   0.000740   0.000015
    17  C    1.120415  -2.655234  -0.306798   0.000740   9.337026   0.069478
    18  H   -0.038375   0.231988   0.058563   0.000015   0.069478   0.506972
    19  H   -0.080092   0.049499   0.288023  -0.004779   0.049823  -0.000155
    20  H    0.005284  -0.057972   0.004231   0.000004   0.005991   0.000312
    21  H    0.024247   0.082321   0.010444  -0.000197  -0.038268  -0.007953
    22  C    0.360089   2.452117  -0.834988   0.000966  -3.305819  -0.031326
    23  N   -0.004591  -0.154873  -0.008620  -0.000007   0.447307   0.000877
    24  O    0.000234   0.000021  -0.000013   0.000000  -0.000003   0.000000
    25  C    0.000288   0.000638   0.000040   0.000000  -0.000068   0.000000
    26  H    0.000000  -0.000001   0.000000   0.000000   0.000000   0.000000
    27  H    0.000007  -0.000001   0.000000   0.000000   0.000000   0.000000
    28  H   -0.000025   0.000000   0.000000   0.000000   0.000002   0.000000
              19         20         21         22         23         24
     1  C    0.000000  -0.054008  -0.002554  -0.001954   0.000002   0.509254
     2  C    0.000037   0.013977  -0.010470   0.009007  -0.000127  -0.255409
     3  C    0.000171   0.066796  -0.011889  -0.012060  -0.000328   0.001711
     4  C    0.000457   0.116541   0.040028  -0.074066   0.000696  -0.030041
     5  C   -0.000029   0.049370   0.002735  -0.010231   0.000044   0.030407
     6  C    0.000004   0.011224   0.004754   0.001984  -0.000003  -0.147414
     7  H    0.000000  -0.008293   0.000240  -0.000001   0.000000  -0.004202
     8  H    0.000000  -0.000207   0.000004   0.000000   0.000000  -0.000584
     9  H    0.000000   0.000014   0.000000   0.000000   0.000000  -0.002846
    10  O   -0.000097  -0.011303  -0.010716  -0.004068  -0.000012   0.000230
    11  C    0.030858   0.032795   0.071532  -0.397753   0.000893   0.001897
    12  C   -0.008359   0.028179   0.063256  -1.860248   0.071456  -0.001557
    13  C   -0.080092   0.005284   0.024247   0.360089  -0.004591   0.000234
    14  C    0.049499  -0.057972   0.082321   2.452117  -0.154873   0.000021
    15  C    0.288023   0.004231   0.010444  -0.834988  -0.008620  -0.000013
    16  H   -0.004779   0.000004  -0.000197   0.000966  -0.000007   0.000000
    17  C    0.049823   0.005991  -0.038268  -3.305819   0.447307  -0.000003
    18  H   -0.000155   0.000312  -0.007953  -0.031326   0.000877   0.000000
    19  H    0.495781   0.000000   0.000014  -0.038060   0.000571   0.000000
    20  H    0.000000   0.664778  -0.001591  -0.000317   0.000002  -0.000426
    21  H    0.000014  -0.001591   0.625432  -0.005031   0.000003   0.000019
    22  C   -0.038060  -0.000317  -0.005031  10.130950  -0.092594   0.000002
    23  N    0.000571   0.000002   0.000003  -0.092594   7.233104   0.000000
    24  O    0.000000  -0.000426   0.000019   0.000002   0.000000   8.335166
    25  C    0.000000  -0.000045   0.000006  -0.000002   0.000000   0.093167
    26  H    0.000000   0.000000   0.000000   0.000000   0.000000  -0.045701
    27  H    0.000000   0.000000   0.000000   0.000000   0.000000  -0.047782
    28  H    0.000000   0.000006   0.000000   0.000000   0.000000  -0.052138
              25         26         27         28
     1  C   -0.184662   0.014163   0.007259  -0.053655
     2  C   -0.063346   0.015016  -0.069706   0.090154
     3  C   -0.010040  -0.001331   0.011727  -0.011780
     4  C   -0.016639   0.000036  -0.004445   0.008424
     5  C    0.055262  -0.000416   0.010047  -0.008739
     6  C   -0.004933  -0.014039   0.021168  -0.017320
     7  H    0.000764  -0.000027   0.000006  -0.000014
     8  H    0.000232   0.000000   0.000011  -0.000003
     9  H    0.001424  -0.000032   0.001268   0.000147
    10  O   -0.000032   0.000000  -0.000001   0.000001
    11  C   -0.000281   0.000007   0.000065  -0.000305
    12  C   -0.000985  -0.000002  -0.000114   0.000380
    13  C    0.000288   0.000000   0.000007  -0.000025
    14  C    0.000638  -0.000001  -0.000001   0.000000
    15  C    0.000040   0.000000   0.000000   0.000000
    16  H    0.000000   0.000000   0.000000   0.000000
    17  C   -0.000068   0.000000   0.000000   0.000002
    18  H    0.000000   0.000000   0.000000   0.000000
    19  H    0.000000   0.000000   0.000000   0.000000
    20  H   -0.000045   0.000000   0.000000   0.000006
    21  H    0.000006   0.000000   0.000000   0.000000
    22  C   -0.000002   0.000000   0.000000   0.000000
    23  N    0.000000   0.000000   0.000000   0.000000
    24  O    0.093167  -0.045701  -0.047782  -0.052138
    25  C    5.318739   0.384747   0.409820   0.382645
    26  H    0.384747   0.502558  -0.033289  -0.027212
    27  H    0.409820  -0.033289   0.552186  -0.047009
    28  H    0.382645  -0.027212  -0.047009   0.530159
 Mulliken charges:
               1
     1  C    0.130347
     2  C   -0.479341
     3  C    0.641335
     4  C   -0.175951
     5  C   -0.694242
     6  C    0.175060
     7  H    0.197671
     8  H    0.203919
     9  H    0.188669
    10  O   -0.422789
    11  C   -0.217998
    12  C    0.323215
    13  C   -0.371155
    14  C   -0.189553
    15  C   -0.297075
    16  H    0.217876
    17  C    0.975213
    18  H    0.210711
    19  H    0.216333
    20  H    0.134661
    21  H    0.163636
    22  C   -0.286598
    23  N   -0.493800
    24  O   -0.383992
    25  C   -0.366739
    26  H    0.205522
    27  H    0.188783
    28  H    0.206282
 Sum of Mulliken charges =   0.00000
 Mulliken charges with hydrogens summed into heavy atoms:
               1
     1  C    0.130347
     2  C   -0.281670
     3  C    0.775997
     4  C   -0.175951
     5  C   -0.490324
     6  C    0.363729
    10  O   -0.422789
    11  C   -0.217998
    12  C    0.486851
    13  C   -0.153279
    14  C    0.021159
    15  C   -0.080742
    17  C    0.975213
    22  C   -0.286598
    23  N   -0.493800
    24  O   -0.383992
    25  C    0.233848
 Electronic spatial extent (au):  <R**2>=           6772.7461
 Charge=              0.0000 electrons
 Dipole moment (field-independent basis, Debye):
    X=              3.9385    Y=              1.5700    Z=              1.3986  Tot=              4.4646
 Quadrupole moment (field-independent basis, Debye-Ang):
   XX=           -120.2591   YY=            -95.6631   ZZ=           -104.4507
   XY=            -10.9518   XZ=              5.3529   YZ=             -3.1964
 Traceless Quadrupole moment (field-independent basis, Debye-Ang):
   XX=            -13.4681   YY=             11.1279   ZZ=              2.3403
   XY=            -10.9518   XZ=              5.3529   YZ=             -3.1964
 Octapole moment (field-independent basis, Debye-Ang**2):
  XXX=            380.9527  YYY=             11.4844  ZZZ=              0.7967  XYY=             19.4106
  XXY=            137.5386  XXZ=             46.7157  XZZ=              9.3897  YZZ=             -1.4629
  YYZ=              1.5384  XYZ=             -8.1300
 Hexadecapole moment (field-independent basis, Debye-Ang**3):
 XXXX=          -9897.0761 YYYY=           -874.8109 ZZZZ=           -168.4011 XXXY=           -713.1643
 XXXZ=            150.9079 YYYX=            -77.1843 YYYZ=             -7.5335 ZZZX=              7.5250
 ZZZY=              0.5000 XXYY=          -1618.2343 XXZZ=          -1467.4154 YYZZ=           -193.8767
 XXYZ=            -85.0032 YYXZ=              0.6652 ZZXY=             -9.4296
 N-N= 1.006235799847D+03 E-N=-3.742511649858D+03  KE= 7.375988481687D+02
 Evaluate density.
 Using the total density.
 Monte-Carlo method of calculating molar volume:
 based on  0.001 e/bohr**3 density envelope.
 Number of points per bohr**3 =   20 CutOff= 1.00D-04
 Using the SCF density.
 There are       426 points.  Will hold       426 in memory.
 LenV=  4026263796 MDV=  4026531840.
 Box volume = 9708.860 fraction occupied=0.192
 Integrated density= 9.9746689246912922D+01 error=-1.8253310753087078D+01
 Molar volume = 1868.842 bohr**3/mol (166.773 cm**3/mol)
 Recommended a0 for SCRF calculation =  4.95 angstrom (  9.36 bohr)
 Calling FoFJK, ICntrl=      2127 FMM=F ISym2X=0 I1Cent= 0 IOpClX= 0 NMat=1 NMatS=1 NMatT=0.
 ***** Axes restored to original set *****
 -------------------------------------------------------------------
 Center     Atomic                   Forces (Hartrees/Bohr)
 Number     Number              X              Y              Z
 -------------------------------------------------------------------
      1        6          -0.000028480   -0.020009031    0.002994474
      2        6           0.003669122    0.004958424    0.013962667
      3        6           0.000473126   -0.010497206    0.018931566
      4        6           0.006362162    0.044717170   -0.040906167
      5        6           0.000012984    0.007530514   -0.009723070
      6        6          -0.000507566    0.006790341   -0.018634171
      7        1          -0.003051437   -0.008178131   -0.007365583
      8        1           0.003168752    0.007970609    0.007754802
      9        1           0.001692814   -0.002267107    0.010222869
     10        8          -0.001922810    0.000187418   -0.028788151
     11        6          -0.002882701   -0.061927362    0.034299429
     12        6           0.003456968    0.019929037   -0.007035331
     13        6          -0.004524140   -0.011613855    0.014229568
     14        6           0.000832069    0.007881492    0.010721284
     15        6          -0.007957787   -0.013695515    0.002521122
     16        1           0.003794430    0.006172985    0.009045701
     17        6           0.006990755    0.015213205   -0.043869863
     18        1          -0.002693003   -0.006884531   -0.008333816
     19        1           0.003883314    0.010059789    0.000148719
     20        1          -0.002614959   -0.022517776    0.012548343
     21        1           0.000815891    0.017959032   -0.016994069
     22        6          -0.008166104   -0.020507172    0.056387395
     23        7           0.000778670    0.002062437   -0.005703511
     24        8           0.003478080    0.029899171   -0.013124859
     25        6           0.010645263    0.000234675   -0.006182396
     26        1          -0.001756789   -0.016834312   -0.002421959
     27        1           0.001779408    0.003054789    0.019442627
     28        1          -0.015728033    0.010310911   -0.004127620
 -------------------------------------------------------------------
 Cartesian Forces:  Max     0.061927362 RMS     0.016439060

 GradGradGradGradGradGradGradGradGradGradGradGradGradGradGradGradGradGrad
 Berny optimization.
 FormGI is forming the generalized inverse of G from B-inverse, IUseBI=4.
 Internal  Forces:  Max     0.464241145 RMS     0.065489215
 Search for a local minimum.
 Step number   1 out of a maximum of  138
 All quantities printed in internal units (Hartrees-Bohrs-Radians)
 Mixed Optimization -- RFO/linear search
 Second derivative matrix not updated -- first step.
 ITU=  0
     Eigenvalues ---    0.00230   0.00499   0.00499   0.01295   0.01295
     Eigenvalues ---    0.01714   0.01784   0.01930   0.02070   0.02070
     Eigenvalues ---    0.02070   0.02070   0.02070   0.02070   0.02070
     Eigenvalues ---    0.02070   0.02070   0.02070   0.02070   0.02070
     Eigenvalues ---    0.02070   0.02070   0.04867   0.04867   0.10344
     Eigenvalues ---    0.10344   0.10923   0.16000   0.16000   0.16000
     Eigenvalues ---    0.16000   0.16000   0.16000   0.16000   0.16000
     Eigenvalues ---    0.16000   0.16000   0.16000   0.16000   0.16000
     Eigenvalues ---    0.22000   0.22000   0.22835   0.22981   0.23883
     Eigenvalues ---    0.24000   0.25000   0.25000   0.25000   0.25000
     Eigenvalues ---    0.27457   0.28519   0.37230   0.37230   0.37230
     Eigenvalues ---    0.37230   0.37230   0.37230   0.37230   0.37230
     Eigenvalues ---    0.37230   0.37230   0.37230   0.40989   0.40989
     Eigenvalues ---    0.41268   0.41268   0.41640   0.42077   0.45389
     Eigenvalues ---    0.45389   0.45389   0.45389   0.45389   0.45389
     Eigenvalues ---    0.45389   0.45389   1.27794
 RFO step:  Lambda=-6.62224431D-01 EMin= 2.30000000D-03
 Linear search not attempted -- first point.
 Maximum step size (   0.300) exceeded in Quadratic search.
    -- Step size scaled by   0.337
 Iteration  1 RMS(Cart)=  0.21007324 RMS(Int)=  0.01720934
 Iteration  2 RMS(Cart)=  0.24931466 RMS(Int)=  0.00930545
 Iteration  3 RMS(Cart)=  0.11198936 RMS(Int)=  0.00106940
 Iteration  4 RMS(Cart)=  0.00238470 RMS(Int)=  0.00002624
 Iteration  5 RMS(Cart)=  0.00000083 RMS(Int)=  0.00002624
 Variable       Old X    -DE/DX   Delta X   Delta X   Delta X     New X
                                 (Linear)    (Quad)   (Total)
    R1        2.64826  -0.00267   0.00000  -0.00068  -0.00068   2.64759
    R2        2.64826   0.02109   0.00000   0.00669   0.00668   2.65494
    R3        2.70231  -0.02659   0.00000  -0.00835  -0.00835   2.69396
    R4        2.64826  -0.02071   0.00000  -0.00645  -0.00643   2.64183
    R5        2.02201   0.01132   0.00000   0.00368   0.00368   2.02569
    R6        2.64826  -0.03764   0.00000  -0.01169  -0.01167   2.63659
    R7        2.02201  -0.07349   0.00000  -0.02391  -0.02391   1.99809
    R8        2.64826  -0.01910   0.00000  -0.00589  -0.00589   2.64237
    R9        2.93342   0.00557   0.00000   0.00200   0.00200   2.93542
   R10        2.64826   0.01198   0.00000   0.00382   0.00380   2.65206
   R11        2.02201   0.01151   0.00000   0.00374   0.00374   2.02575
   R12        2.02201   0.01046   0.00000   0.00340   0.00340   2.02541
   R13        2.64826  -0.01297   0.00000  -0.00412  -0.00411   2.64415
   R14        2.64826  -0.01951   0.00000  -0.00597  -0.00597   2.64229
   R15        2.64826  -0.02131   0.00000  -0.00656  -0.00654   2.64172
   R16        2.02201  -0.06050   0.00000  -0.01969  -0.01969   2.00232
   R17        2.64826   0.00738   0.00000   0.00236   0.00234   2.65060
   R18        2.02201   0.01152   0.00000   0.00375   0.00375   2.02575
   R19        2.64826   0.00150   0.00000   0.00053   0.00054   2.64880
   R20        2.02201   0.01112   0.00000   0.00362   0.00362   2.02563
   R21        2.64826   0.01729   0.00000   0.00543   0.00541   2.65368
   R22        2.02201   0.01064   0.00000   0.00346   0.00346   2.02547
   R23        2.91018  -0.05444   0.00000  -0.01934  -0.01934   2.89084
   R24        2.26923  -0.05572   0.00000  -0.02431  -0.02431   2.24492
   R25        2.19208   0.00611   0.00000   0.00106   0.00106   2.19314
   R26        2.70231   0.00832   0.00000   0.00261   0.00261   2.70492
   R27        2.02201   0.01637   0.00000   0.00533   0.00533   2.02733
   R28        2.02201   0.01926   0.00000   0.00627   0.00627   2.02827
   R29        2.02201   0.01900   0.00000   0.00618   0.00618   2.02819
    A1        2.09440   0.00148   0.00000   0.00111   0.00110   2.09549
    A2        2.09440  -0.00878   0.00000  -0.00353  -0.00352   2.09088
    A3        2.09440   0.00731   0.00000   0.00241   0.00242   2.09681
    A4        2.09440  -0.04242   0.00000  -0.01630  -0.01627   2.07812
    A5        2.09440   0.01968   0.00000   0.00752   0.00751   2.10191
    A6        2.09440   0.02274   0.00000   0.00878   0.00876   2.10316
    A7        2.09440   0.05623   0.00000   0.02075   0.02078   2.11518
    A8        2.09440   0.16725   0.00000   0.06961   0.06959   2.16399
    A9        2.09440  -0.22348   0.00000  -0.09036  -0.09038   2.00402
   A10        2.09440  -0.00561   0.00000  -0.00265  -0.00264   2.09176
   A11        2.09440  -0.03863   0.00000  -0.01396  -0.01397   2.08043
   A12        2.09440   0.04424   0.00000   0.01662   0.01661   2.11100
   A13        2.09440  -0.02250   0.00000  -0.00849  -0.00852   2.08588
   A14        2.09440   0.01013   0.00000   0.00378   0.00380   2.09819
   A15        2.09440   0.01238   0.00000   0.00471   0.00472   2.09911
   A16        2.09440   0.01283   0.00000   0.00559   0.00555   2.09994
   A17        2.09440  -0.00486   0.00000  -0.00215  -0.00214   2.09226
   A18        2.09440  -0.00798   0.00000  -0.00343  -0.00341   2.09098
   A19        2.09440  -0.00612   0.00000  -0.00277  -0.00276   2.09164
   A20        2.09440   0.04507   0.00000   0.01678   0.01680   2.11120
   A21        2.09440  -0.18124   0.00000  -0.07336  -0.07338   2.02102
   A22        2.09440   0.13617   0.00000   0.05658   0.05657   2.15096
   A23        2.09440  -0.01725   0.00000  -0.00650  -0.00651   2.08788
   A24        2.09440   0.00860   0.00000   0.00324   0.00325   2.09764
   A25        2.09440   0.00865   0.00000   0.00326   0.00327   2.09766
   A26        2.09440  -0.03660   0.00000  -0.01400  -0.01399   2.08041
   A27        2.09440   0.01768   0.00000   0.00675   0.00674   2.10114
   A28        2.09440   0.01892   0.00000   0.00725   0.00725   2.10164
   A29        2.09440   0.01119   0.00000   0.00473   0.00470   2.09910
   A30        2.09440  -0.00734   0.00000  -0.00308  -0.00307   2.09133
   A31        2.09440  -0.00385   0.00000  -0.00165  -0.00164   2.09276
   A32        2.09440   0.00372   0.00000   0.00176   0.00175   2.09614
   A33        2.09440  -0.00167   0.00000  -0.00081  -0.00080   2.09359
   A34        2.09440  -0.00205   0.00000  -0.00095  -0.00094   2.09345
   A35        2.54074  -0.46424   0.00000  -0.19006  -0.19006   2.35068
   A36        2.58185  -0.40430   0.00000  -0.16552  -0.16552   2.41633
   A37        1.91114   0.02475   0.00000   0.00913   0.00913   1.92027
   A38        1.91063  -0.01020   0.00000  -0.00423  -0.00423   1.90640
   A39        1.91063   0.00732   0.00000   0.00302   0.00302   1.91366
   A40        1.91063   0.00532   0.00000   0.00221   0.00221   1.91284
   A41        1.91063  -0.00116   0.00000  -0.00054  -0.00054   1.91010
   A42        1.91063   0.00025   0.00000   0.00005   0.00005   1.91068
   A43        1.91063  -0.00154   0.00000  -0.00052  -0.00052   1.91011
   A44        3.14159  -0.00011   0.00000  -0.00005  -0.00005   3.14154
   A45        3.14159  -0.00014   0.00000  -0.00007  -0.00007   3.14153
    D1        0.00000  -0.00071   0.00000  -0.00035  -0.00035  -0.00035
    D2       -3.14159  -0.00047   0.00000  -0.00023  -0.00024   3.14136
    D3       -3.14159   0.00072   0.00000   0.00036   0.00036  -3.14124
    D4        0.00000   0.00095   0.00000   0.00047   0.00047   0.00047
    D5        0.00000   0.00022   0.00000   0.00011   0.00011   0.00011
    D6        3.14159   0.00103   0.00000   0.00051   0.00051  -3.14109
    D7        3.14159  -0.00121   0.00000  -0.00060  -0.00060   3.14099
    D8        0.00000  -0.00040   0.00000  -0.00020  -0.00020  -0.00020
    D9       -2.07887   0.00019   0.00000   0.00010   0.00009  -2.07878
   D10        1.06272   0.00161   0.00000   0.00080   0.00080   1.06352
   D11        0.00000   0.00087   0.00000   0.00043   0.00044   0.00044
   D12       -3.14159  -0.00024   0.00000  -0.00012  -0.00014   3.14145
   D13        3.14159   0.00064   0.00000   0.00032   0.00032  -3.14127
   D14        0.00000  -0.00048   0.00000  -0.00024  -0.00025  -0.00025
   D15        0.00000  -0.00055   0.00000  -0.00027  -0.00027  -0.00028
   D16        3.14159  -0.00186   0.00000  -0.00092  -0.00091   3.14068
   D17        3.14159   0.00056   0.00000   0.00028   0.00025  -3.14134
   D18        0.00000  -0.00075   0.00000  -0.00037  -0.00038  -0.00038
   D19        3.08065  -0.00607   0.00000  -0.00307  -0.00307   3.07757
   D20       -0.06095  -0.00719   0.00000  -0.00362  -0.00362  -0.06457
   D21        0.00000   0.00007   0.00000   0.00003   0.00003   0.00003
   D22       -3.14159  -0.00057   0.00000  -0.00028  -0.00028   3.14131
   D23       -3.14159   0.00137   0.00000   0.00068   0.00067  -3.14092
   D24        0.00000   0.00074   0.00000   0.00036   0.00036   0.00036
   D25        0.00000   0.00010   0.00000   0.00005   0.00005   0.00005
   D26       -3.14159  -0.00071   0.00000  -0.00035  -0.00035   3.14125
   D27       -3.14159   0.00074   0.00000   0.00036   0.00036  -3.14123
   D28        0.00000  -0.00007   0.00000  -0.00003  -0.00004  -0.00003
   D29        0.00000   0.00453   0.00000   0.00224   0.00223   0.00223
   D30       -3.14159  -0.00481   0.00000  -0.00238  -0.00219   3.13940
   D31        0.00000  -0.00136   0.00000  -0.00068  -0.00062  -0.00062
   D32        3.14159  -0.00062   0.00000  -0.00031  -0.00028   3.14131
   D33        0.00000  -0.00472   0.00000  -0.00234  -0.00235  -0.00235
   D34        3.14159  -0.00396   0.00000  -0.00196  -0.00200   3.13959
   D35        3.14159   0.00461   0.00000   0.00229   0.00241  -3.13919
   D36        0.00000   0.00537   0.00000   0.00266   0.00276   0.00276
   D37       -0.46463   0.03206   0.00000   0.01613   0.01608  -0.44855
   D38        2.67696   0.02272   0.00000   0.01151   0.01155   2.68851
   D39        0.00000  -0.00161   0.00000  -0.00079  -0.00082  -0.00082
   D40        3.14159   0.00019   0.00000   0.00010   0.00007  -3.14152
   D41        3.14159  -0.00236   0.00000  -0.00116  -0.00115   3.14044
   D42        0.00000  -0.00056   0.00000  -0.00027  -0.00026  -0.00026
   D43        0.00000   0.00175   0.00000   0.00087   0.00089   0.00089
   D44       -3.14159   0.00115   0.00000   0.00057   0.00057  -3.14102
   D45       -3.14159   0.00099   0.00000   0.00049   0.00053  -3.14106
   D46        0.00000   0.00039   0.00000   0.00020   0.00021   0.00022
   D47        0.00000   0.00142   0.00000   0.00070   0.00068   0.00068
   D48       -3.14159   0.00201   0.00000   0.00099   0.00100  -3.14059
   D49       -3.14159  -0.00038   0.00000  -0.00019  -0.00021   3.14139
   D50        0.00000   0.00021   0.00000   0.00010   0.00011   0.00011
   D51        0.43564  -0.03086   0.00000  -0.01563  -0.01563   0.42001
   D52        2.86399   0.00087   0.00000   0.00042   0.00042   2.86442
   D53       -1.32480  -0.00231   0.00000  -0.00097  -0.00098  -1.32578
   D54        0.76960   0.00354   0.00000   0.00160   0.00160   0.77120
         Item               Value     Threshold  Converged?
 Maximum Force            0.464241     0.000450     NO 
 RMS     Force            0.065489     0.000300     NO 
 Maximum Displacement     1.920384     0.001800     NO 
 RMS     Displacement     0.565700     0.001200     NO 
 Predicted change in Energy=-2.154294D-01
 GradGradGradGradGradGradGradGradGradGradGradGradGradGradGradGradGradGrad

                          Input orientation:                          
 ---------------------------------------------------------------------
 Center     Atomic      Atomic             Coordinates (Angstroms)
 Number     Number       Type             X           Y           Z
 ---------------------------------------------------------------------
      1          6           0       -4.691926   -0.058496   -0.491691
      2          6           0       -4.859959    0.115566   -1.871686
      3          6           0       -4.675726    1.386841   -2.423331
      4          6           0       -4.328796    2.477454   -1.625298
      5          6           0       -4.160335    2.306233   -0.247802
      6          6           0       -4.342713    1.035062    0.318259
      7          1           0       -5.126151   -0.714751   -2.495216
      8          1           0       -3.893559    3.140034    0.370866
      9          1           0       -4.214467    0.898442    1.373553
     10          8           0       -4.134399    3.869299   -2.287038
     11          6           0       -4.035309    4.039513   -2.760471
     12          6           0       -4.289616    3.559711   -4.050024
     13          6           0       -3.456260    5.300605   -2.588921
     14          6           0       -3.970572    4.322596   -5.177165
     15          6           0       -3.134225    6.074525   -3.713527
     16          1           0       -3.259272    5.673723   -1.603463
     17          6           0       -3.390247    5.586872   -5.005273
     18          1           0       -4.167747    3.945198   -6.160879
     19          1           0       -2.690186    7.041641   -3.585691
     20          1           0       -4.782233    1.605774   -3.452264
     21          1           0       -4.727518    2.596450   -4.105575
     22          6           0       -3.034841    6.436626   -6.226659
     23          7           0       -2.765284    7.081278   -7.153301
     24          8           0       -4.875524   -1.348233    0.087233
     25          6           0       -5.938318   -1.308657    1.045229
     26          1           0       -6.252521   -2.310405    1.265950
     27          1           0       -5.595259   -0.835346    1.945394
     28          1           0       -6.765007   -0.754770    0.643104
 ---------------------------------------------------------------------
                    Distance matrix (angstroms):
                    1          2          3          4          5
     1  C    0.000000
     2  C    1.401042   0.000000
     3  C    2.412570   1.397996   0.000000
     4  C    2.801423   2.433383   1.395225   0.000000
     5  C    2.435983   2.815225   2.417403   1.398282   0.000000
     6  C    1.404933   2.430818   2.784055   2.420352   1.403411
     7  H    2.152518   1.071949   2.150521   3.403337   3.887160
     8  H    3.407637   3.887206   3.390134   2.147817   1.071981
     9  H    2.150078   3.400167   3.855856   3.391086   2.147929
    10  O    4.354501   3.845707   2.544447   1.553358   2.569501
    11  C    4.729925   4.106987   2.749630   1.953146   3.055061
    12  C    5.090679   4.114922   2.741637   2.655581   4.005599
    13  C    5.886018   5.419356   4.102690   3.108065   3.865595
    14  C    6.455074   5.423679   4.086502   4.018535   5.329198
    15  C    7.100747   6.471454   5.100511   4.327426   5.221511
    16  H    6.012227   5.790271   4.588669   3.370533   3.740284
    17  C    7.344179   6.474148   5.095011   4.687598   5.830022
    18  H    6.960174   5.791581   4.557686   4.769874   6.136020
    19  H    7.999484   7.457629   6.104933   5.230677   5.977201
    20  H    3.397491   2.173704   1.057345   2.074424   3.338560
    21  H    4.484436   3.341045   2.072627   2.514938   3.910031
    22  C    8.821701   7.890034   6.531320   6.206600   7.353477
    23  N    9.953159   8.989119   7.645196   7.361968   8.510766
    24  O    1.425581   2.445468   3.717994   4.227003   3.738832
    25  C    2.340624   3.420478   4.570641   4.904785   4.230908
    26  H    3.255127   4.203490   5.455887   5.914696   5.289805
    27  H    2.712727   4.001875   4.986924   5.032734   4.091287
    28  H    2.463781   3.272746   4.284229   4.639832   4.116766
                    6          7          8          9         10
     6  C    0.000000
     7  H    3.404594   0.000000
     8  H    2.153001   4.959141   0.000000
     9  H    1.071802   4.289631   2.476510   0.000000
    10  O    3.855368   4.694723   2.766638   4.715118   0.000000
    11  C    4.312748   4.885010   3.261047   5.195054   0.512767
    12  C    5.045649   4.624743   4.458392   6.041788   1.796680
    13  C    5.237590   6.243543   3.690479   5.971191   1.612341
    14  C    6.414519   5.822635   5.673185   7.395690   2.930043
    15  C    6.565967   7.179577   5.086265   7.337380   2.810381
    16  H    5.136539   6.715136   3.274122   5.707744   2.118742
    17  C    7.068674   7.001728   5.928171   7.959280   3.300397
    18  H    7.104839   6.005893   6.586893   8.127274   3.874728
    19  H    7.351915   8.202724   5.685507   8.040923   3.719678
    20  H    3.838715   2.533586   4.214264   4.910315   2.626973
    21  H    4.707050   3.703541   4.585793   5.759106   2.297610
    22  C    8.586231   8.333033   7.425109   9.477670   4.829162
    23  N    9.740083   9.383470   8.568518  10.631785   5.989307
    24  O    2.453030   2.670797   4.603177   2.671921   5.780058
    25  C    2.927023   3.680637   4.942333   2.819706   6.416336
    26  H    3.967069   4.238064   6.006094   3.802886   7.436324
    27  H    2.777565   4.466947   4.602018   2.289019   6.494712
    28  H    3.029278   3.540693   4.846527   3.126006   6.073536
                   11         12         13         14         15
    11  C    0.000000
    12  C    1.399225   0.000000
    13  C    1.398242   2.420748   0.000000
    14  C    2.434078   1.397937   2.814254   0.000000
    15  C    2.421062   2.787911   1.402640   2.431248   0.000000
    16  H    2.147450   3.393570   1.071983   3.886236   2.151429
    17  C    2.801706   2.414693   2.434145   1.401683   1.404265
    18  H    3.404293   2.149223   3.886159   1.071915   3.404664
    19  H    3.391624   3.859743   2.147470   3.400791   1.071833
    20  H    2.638098   2.101870   4.019371   3.318915   4.770107
    21  H    2.090667   1.059583   3.350939   2.168145   3.845685
    22  C    4.331460   3.819534   3.834224   2.538928   2.541028
    23  N    5.492017   4.935114   4.947910   3.601133   3.603014
    24  O    6.151681   6.445782   7.306378   7.790451   8.519110
    25  C    6.834305   7.237461   7.940404   8.619816   9.220634
    26  H    7.838977   8.159096   8.978117   9.524585  10.238458
    27  H    6.952903   7.547600   7.923713   8.942864   9.264254
    28  H    6.482339   6.838696   7.619800   8.213650   8.877054
                   16         17         18         19         20
    16  H    0.000000
    17  C    3.405438   0.000000
    18  H    4.958141   2.152911   0.000000
    19  H    2.474729   2.149803   4.289842   0.000000
    20  H    4.720771   4.494285   3.631403   5.826072   0.000000
    21  H    4.229175   3.397112   2.521257   4.917390   1.187959
    22  C    4.691090   1.529765   2.737703   2.731216   5.838474
    23  N    5.746819   2.690326   3.575864   3.568620   6.909913
    24  O    7.401256   8.731285   8.219505   9.415734   4.611171
    25  C    7.933883   9.521006   9.092080  10.085795   5.482508
    26  H    8.996631  10.482739   9.931598  11.121574   6.305533
    27  H    7.772979   9.716930   9.518563  10.053819   5.979531
    28  H    7.659162   9.138358   8.667736   9.760681   5.125973
                   21         22         23         24         25
    21  H    0.000000
    22  C    4.702245   0.000000
    23  N    5.766513   1.160561   0.000000
    24  O    5.758652  10.191044  11.310840   0.000000
    25  C    6.576221  11.013626  12.152163   1.431382   0.000000
    26  H    7.433448  11.958395  13.086188   2.052138   1.072819
    27  H    7.010308  11.234757  12.388218   2.057627   1.073317
    28  H    6.158895  10.621862  11.755227   2.057021   1.073271
                   26         27         28
    26  H    0.000000
    27  H    1.751981   0.000000
    28  H    1.752307   1.752358   0.000000
 Stoichiometry    C14H11NO2
 Framework group  C1[X(C14H11NO2)]
 Deg. of freedom    78
 Full point group                 C1      NOp   1
 Largest Abelian subgroup         C1      NOp   1
 Largest concise Abelian subgroup C1      NOp   1
                         Standard orientation:                         
 ---------------------------------------------------------------------
 Center     Atomic      Atomic             Coordinates (Angstroms)
 Number     Number       Type             X           Y           Z
 ---------------------------------------------------------------------
      1          6           0        3.539250   -0.324986   -0.325821
      2          6           0        2.569762   -1.322106   -0.156220
      3          6           0        1.236334   -0.947637    0.033871
      4          6           0        0.859183    0.395455    0.056514
      5          6           0        1.824884    1.392439   -0.112717
      6          6           0        3.166991    1.029558   -0.304096
      7          1           0        2.847205   -2.357409   -0.171989
      8          1           0        1.541643    2.426199   -0.096607
      9          1           0        3.911028    1.789909   -0.434611
     10          8           0       -0.635831    0.759274    0.269801
     11          6           0       -1.083981    0.516916    0.211882
     12          6           0       -1.492175   -0.820199    0.269610
     13          6           0       -2.035102    1.528176    0.045137
     14          6           0       -2.842409   -1.165343    0.160194
     15          6           0       -3.392558    1.192233   -0.063727
     16          1           0       -1.728528    2.554413    0.000442
     17          6           0       -3.795949   -0.151641   -0.006798
     18          1           0       -3.144658   -2.192837    0.203832
     19          1           0       -4.124319    1.964875   -0.191693
     20          1           0        0.443278   -1.633718    0.169278
     21          1           0       -0.718692   -1.533419    0.395138
     22          6           0       -5.278289   -0.509755   -0.127642
     23          7           0       -6.402864   -0.781491   -0.219257
     24          8           0        4.903569   -0.689310   -0.521228
     25          6           0        5.709718   -0.153891    0.533430
     26          1           0        6.660734   -0.650366    0.538076
     27          1           0        5.856518    0.897775    0.377038
     28          1           0        5.219980   -0.310003    1.475606
 ---------------------------------------------------------------------
 Rotational constants (GHZ):           2.2304814           0.1813924           0.1697201
 Standard basis: 6-31+G(d) (6D, 7F)
 There are   345 symmetry adapted cartesian basis functions of A   symmetry.
 There are   345 symmetry adapted basis functions of A   symmetry.
   345 basis functions,   588 primitive gaussians,   345 cartesian basis functions
    59 alpha electrons       59 beta electrons
       nuclear repulsion energy      1093.7539025893 Hartrees.
 NAtoms=   28 NActive=   28 NUniq=   28 SFac= 1.00D+00 NAtFMM=   60 NAOKFM=F Big=F
 Integral buffers will be    131072 words long.
 Raffenetti 2 integral format.
 Two-electron integral symmetry is turned on.
 Nuclear repulsion after empirical dispersion term =     1093.7315661673 Hartrees.
 One-electron integrals computed using PRISM.
 NBasis=   345 RedAO= T EigKep=  1.16D-06  NBF=   345
 NBsUse=   343 1.00D-06 EigRej=  9.16D-07 NBFU=   343
 Initial guess from the checkpoint file:  "molecule_82.chk"
 B after Tr=     0.000000    0.000000    0.000000
         Rot=    0.999812   -0.019221   -0.001130   -0.002097 Ang=  -2.22 deg.
 ExpMin= 4.38D-02 ExpMax= 5.48D+03 ExpMxC= 8.25D+02 IAcc=3 IRadAn=         5 AccDes= 0.00D+00
 Harris functional with IExCor=  402 and IRadAn=       5 diagonalized for initial guess.
 HarFok:  IExCor=  402 AccDes= 0.00D+00 IRadAn=         5 IDoV= 1 UseB2=F ITyADJ=14
 ICtDFT=  3500011 ScaDFX=  1.000000  1.000000  1.000000  1.000000
 FoFCou: FMM=F IPFlag=           0 FMFlag=      100000 FMFlg1=           0
         NFxFlg=           0 DoJE=T BraDBF=F KetDBF=T FulRan=T
         wScrn=  0.000000 ICntrl=       500 IOpCl=  0 I1Cent=   200000004 NGrid=           0
         NMat0=    1 NMatS0=      1 NMatT0=    0 NMatD0=    1 NMtDS0=    0 NMtDT0=    0
 Petite list used in FoFCou.
 Requested convergence on RMS density matrix=1.00D-08 within 128 cycles.
 Requested convergence on MAX density matrix=1.00D-06.
 Requested convergence on             energy=1.00D-06.
 No special actions if energy rises.
 EnCoef did     3 forward-backward iterations
 SCF Done:  E(RB3LYP) =  -739.361148775     A.U. after   19 cycles
            NFock= 19  Conv=0.87D-08     -V/T= 1.9841
 Calling FoFJK, ICntrl=      2127 FMM=F ISym2X=0 I1Cent= 0 IOpClX= 0 NMat=1 NMatS=1 NMatT=0.
 ***** Axes restored to original set *****
 -------------------------------------------------------------------
 Center     Atomic                   Forces (Hartrees/Bohr)
 Number     Number              X              Y              Z
 -------------------------------------------------------------------
      1        6           0.000610399   -0.020207020    0.009656654
      2        6           0.005818200    0.006395079    0.013585535
      3        6           0.000387935   -0.007212218    0.010251995
      4        6          -0.027876881   -0.070771021    0.072483818
      5        6          -0.004080679   -0.003226807   -0.014620282
      6        6           0.000800294    0.004741874   -0.013383611
[...]
 2909,0.00010791,-0.00024760,0.00041042,-0.00137594,0.00134681,-0.00006
 760,0.00020294,-0.00005515,-0.00001552,0.00013818,-0.00004338,0.000000
 31,0.00005476,-0.00002249,-0.00004005,-0.00000969,0.00007642,0.0000067
 0,0.00002744,-0.00005239,0.00260962,0.00293825,-0.00176553,-0.00490964
 ,-0.00160052,0.00040365,-0.00405525,0.00394096,-0.00614983,0.00534388,
 0.00353907,-0.00351974,-0.03585612,-0.02977294,0.01642594,0.00930263,-
 0.00856817,0.01002232,0.00057602,0.00028686,-0.00035053,-0.16581944,-0
 .08832124,0.04615362,0.00048873,0.00014374,0.00092323,0.00021701,0.001
 78894,-0.00047551,-0.00001107,-0.00008870,-0.00001916,-0.00064501,-0.0
 0114092,0.00056724,0.71263428,0.00012713,-0.00045254,0.00028973,0.0000
 0512,0.00004258,-0.00007023,-0.00006715,0.00018911,-0.00019234,0.00050
 675,-0.00168918,0.00123105,-0.00016219,0.00023350,-0.00010709,-0.00004
 380,0.00015205,-0.00009780,-0.00000555,0.00005031,-0.00002031,-0.00000
 987,-0.00000742,0.00007979,0.00000869,0.00003730,-0.00005886,0.0023314
 0,0.00311486,-0.00251398,-0.00201271,-0.00379561,0.00191567,0.00138088
 ,0.00768322,-0.00043353,0.00604845,0.00269298,0.00531775,-0.01890786,-
 0.00419742,-0.00217674,-0.01921009,-0.02962145,0.01956124,-0.00084639,
 -0.00011397,0.00070471,-0.08862450,-0.15646460,0.06593670,0.00180489,-
 0.00102034,-0.00169040,0.00009953,-0.00098782,-0.00236159,0.00000325,-
 0.00008696,-0.00001941,0.00002453,0.00056188,0.00031747,0.61053953,0.7
 2016742,-0.00006689,0.00022566,-0.00020164,0.00003625,-0.00007751,0.00
 006963,0.00009698,-0.00007872,0.00018818,-0.00022052,0.00079162,-0.001
 08339,0.00003877,-0.00009960,0.00012590,-0.00000490,-0.00005002,0.0000
 1295,-0.00000004,-0.00003887,0.00001918,0.00001363,0.00000246,-0.00005
 068,0.00000186,-0.00001112,0.00002923,-0.00121222,-0.00230542,0.001229
 52,0.00070168,0.00196572,-0.00256042,-0.00401418,0.00017953,0.00549332
 ,-0.00560090,0.00472498,0.00158477,0.00713067,-0.00500807,0.00517729,0
 .01915411,0.02228679,-0.01507060,0.00061853,0.00099402,0.00027858,0.04
 638623,0.06603834,-0.09704758,-0.00050043,-0.00212395,-0.00184332,0.00
 096484,-0.00192705,-0.00188918,-0.00002108,0.00004466,0.00000225,-0.00
 043759,0.00001353,0.00080066,-0.35937224,-0.38466915,0.32105561,-0.000
 10101,0.00035929,-0.00025670,0.00000720,-0.00003951,0.00007844,0.00002
 018,-0.00007607,0.00017363,-0.00031853,0.00101214,-0.00093857,0.000052
 96,-0.00015215,0.00003825,0.00002322,-0.00011101,0.00003590,-0.0000004
 3,-0.00004232,0.00001591,0.00002401,0.00000602,-0.00006018,-0.00000630
 ,-0.00002061,0.00004052,-0.00160153,-0.00213378,0.00142254,0.00261227,
 0.00162417,-0.00081555,-0.00011372,-0.00164792,0.00166162,-0.00195439,
 -0.00165050,0.00123812,0.00704760,0.00193275,-0.00035320,-0.00396225,0
 .00458900,-0.00550684,-0.00030425,-0.00015102,0.00013033,0.00033000,-0
 .01941945,0.01274087,-0.00011380,0.00014913,-0.00024857,0.00032054,-0.
 00043128,0.00034214,-0.00000004,0.00006670,0.00001341,-0.00003453,0.00
 006224,0.00001451,-0.52010484,-0.49284961,0.29622635,0.51806116,-0.000
 09536,0.00035602,-0.00024580,-0.00000579,-0.00003064,0.00006808,0.0000
 1884,-0.00010302,0.00016212,-0.00033092,0.00104890,-0.00090088,0.00007
 199,-0.00016495,0.00003783,0.00002255,-0.00011470,0.00005096,0.0000070
 8,-0.00003493,0.00001403,0.00001983,0.00000829,-0.00005682,-0.00000255
 ,-0.00002335,0.00004274,-0.00159436,-0.00217122,0.00153655,0.00188226,
 0.00219128,-0.00121379,-0.00121829,-0.00232577,0.00068707,-0.00210297,
 -0.00138895,-0.00036945,0.00705154,0.00023153,0.00340271,-0.00068967,0
 .00647328,-0.00395579,0.00001460,-0.00016455,-0.00010703,-0.01918300,-
 0.00230010,0.01005175,-0.00052660,0.00027338,-0.00006204,0.00024489,0.
 00004807,0.00035719,0.00000964,0.00006831,0.00001708,-0.00010208,-0.00
 034082,0.00001391,-0.49288484,-0.53693193,0.29937262,0.50928388,0.5357
 4417,0.00005182,-0.00019894,0.00014955,-0.00000528,0.00003569,-0.00004
 652,-0.00002352,0.00004251,-0.00012157,0.00018664,-0.00058384,0.000600
 06,-0.00002466,0.00009146,-0.00004604,-0.00000291,0.00005470,-0.000009
 93,-0.00000342,0.00002573,-0.00001293,-0.00002157,-0.00000313,0.000035
 79,-0.00000339,0.00000808,-0.00002138,0.00093277,0.00136382,-0.0008773
 9,-0.00099742,-0.00123281,0.00108644,0.00131638,0.00059072,-0.00130039
 ,0.00159800,-0.00028309,-0.00056129,-0.00474602,0.00207216,-0.00094835
 ,-0.00098485,-0.00256095,0.00401725,-0.00001351,-0.00015119,-0.0001717
 0,0.01255662,0.00998863,0.00997481,0.00032911,0.00011284,0.00034569,-0
 .00023091,0.00018510,0.00018152,0.00000105,-0.00003614,-0.00000478,0.0
 0015625,0.00005644,-0.00030138,0.29624035,0.29936862,-0.21649858,-0.30
 624692,-0.30914807,0.20467069,-0.05982085,0.05556532,-0.01625276,0.006
 79445,-0.00080486,-0.00383181,0.00339701,0.00171763,0.00176331,-0.0007
 7149,-0.00066527,-0.00013791,0.00570105,0.00220527,0.00258081,0.002838
 51,0.01649670,-0.00967937,-0.00276096,-0.00120334,-0.00014147,-0.00009
 571,0.00046779,-0.00044255,-0.00232728,-0.00155482,-0.00014367,-0.0001
 5011,0.00141603,-0.00151523,-0.00101576,-0.00092569,0.00066827,0.00014
 463,0.00023631,-0.00018999,0.00037214,0.00013847,-0.00004316,-0.000125
 05,-0.00004458,0.00001288,-0.00009587,-0.00011234,0.00007159,-0.000132
 18,-0.00001761,-0.00001160,0.00013368,0.00014608,-0.00009300,0.0000106
 9,0.00002074,-0.00001361,0.00003081,0.00002593,-0.00000927,0.00033785,
 -0.00009516,0.00007116,0.00000098,-0.00002515,0.00002606,-0.00014742,-
 0.00014046,0.00008229,0.00011816,0.00010507,-0.00006144,0.09686208,0.0
 5728049,-0.21406441,0.06125532,0.00017946,0.00348878,0.01673513,0.0017
 2353,-0.00021612,-0.00445976,-0.00092823,0.00077415,-0.00040815,0.0024
 3883,0.00021285,-0.00589574,0.01516309,-0.03992559,0.02793773,-0.00115
 883,0.00033567,-0.00009085,0.00038918,-0.00122996,0.00123461,-0.001410
 12,0.00139807,0.00014548,-0.00052760,-0.00511706,0.00473060,0.00271044
 ,0.00260550,-0.00176464,-0.00049379,-0.00076894,0.00053110,-0.00113855
 ,-0.00044008,0.00012489,0.00038431,0.00011578,0.00000969,0.00031332,0.
 00037020,-0.00023407,0.00046168,0.00009370,0.00002671,-0.00039300,-0.0
 0047935,0.00030677,-0.00003637,-0.00007451,0.00005279,-0.00008722,-0.0
 0005751,0.00001535,-0.00003402,0.00045440,-0.00006390,0.00001440,0.000
 07122,-0.00006786,0.00048050,0.00045680,-0.00026137,-0.00037237,-0.000
 36046,0.00021378,-0.08690733,0.33037555,-0.02911590,0.09817105,-0.1616
 1749,-0.01434726,0.04820963,-0.04853423,0.00320566,-0.00873576,-0.0019
 2171,-0.00079735,0.00215538,0.00552701,0.00107432,-0.00147436,-0.00673
 098,-0.00075518,0.00222697,0.01091704,-0.00038328,0.00050111,0.0018523
 1,0.00003698,-0.00018921,0.00037142,-0.00065681,0.00152162,-0.00044316
 ,0.00045717,0.00594241,-0.00459154,-0.00309352,-0.00307304,0.00190870,
 0.00054049,0.00084814,-0.00059719,0.00128408,0.00048964,-0.00008578,-0
 .00042705,-0.00011920,-0.00000065,-0.00038129,-0.00041723,0.00028771,-
 0.00050687,-0.00016350,-0.00006794,0.00043647,0.00054639,-0.00035246,0
 .00003902,0.00008015,-0.00006155,0.00010191,0.00003875,-0.00003856,-0.
 00040108,0.00133035,-0.00130186,-0.00000809,-0.00009647,0.00005586,-0.
 00055619,-0.00053303,0.00029422,0.00042809,0.00042778,-0.00023240,0.01
 487101,-0.09510836,0.51175522,-0.00434072,-0.00245642,-0.01104045,0.00
 181383,0.00226431,-0.00034801,0.00144453,0.00051839,-0.00035443,0.0005
 7976,0.00000562,-0.00011854,0.00033588,-0.00001707,0.00006970,-0.00122
 982,0.00050876,-0.00168968,-0.00056842,-0.00027267,-0.00008948,-0.0000
 4431,0.00000726,-0.00000221,-0.00031949,0.00063741,-0.00061804,-0.0004
 1627,0.00008568,-0.00021495,-0.00002932,-0.00010069,0.00009404,-0.0000
 0054,0.00001781,-0.00000277,0.00003105,-0.00001859,0.00002354,-0.00000
 152,0.00000517,-0.00000334,-0.00001014,-0.00000820,0.00000853,-0.00000
 083,-0.00000047,0.00000558,0.00000419,0.00000560,-0.00001519,0.0000001
 1,0.00000287,-0.00000384,-0.00000460,-0.00000537,0.00000791,-0.0002389
 6,0.00004416,-0.00010116,-0.00000190,-0.00000015,-0.00000435,-0.000020
 32,-0.00001378,0.00000771,0.00000921,0.00001720,-0.00001228,-0.0642055
 3,0.01016290,0.01982347,0.57897216,-0.00333853,-0.00025076,0.03594762,
 0.00221048,-0.00402953,0.00068087,0.00048031,0.00017098,0.00128672,-0.
 00003539,0.00063811,0.00030985,-0.00007111,0.00049348,0.00011830,0.000
 13730,-0.00206906,0.00406965,-0.00029283,0.00016643,0.00023747,-0.0000
 1118,-0.00000370,-0.00003568,0.00053231,-0.00189139,0.00186353,-0.0001
 4996,-0.00047873,0.00027678,0.00023637,0.00018396,-0.00014365,-0.00004
 726,-0.00005189,0.00004305,-0.00008011,-0.00004962,0.00001377,0.000031
 38,0.00000783,-0.00000519,0.00002425,0.00001113,-0.00002037,0.00003669
 ,0.00002174,0.00002603,-0.00003338,-0.00002825,0.00002215,-0.00000417,
 -0.00000238,0.00000400,-0.00001257,-0.00000557,0.00001290,0.00002084,-
 0.00032939,0.00021443,-0.00000161,0.00001056,-0.00000132,0.00002212,0.
 00002592,-0.00001011,-0.00001918,-0.00001826,0.00000202,0.01144288,-0.
 08836212,-0.03886899,-0.01408358,0.61817415,-0.00377055,0.01511490,-0.
 04025433,-0.00033195,0.00059983,0.00505042,0.00030381,-0.00051436,-0.0
 0133372,-0.00038795,0.00094195,-0.00057595,0.00039240,-0.00092716,-0.0
 0185169,0.00118636,-0.00471611,0.00653992,0.00003443,-0.00011853,-0.00
 020200,0.00017333,-0.00052675,0.00033680,0.00020599,-0.00041665,-0.001
 17050,-0.00030921,-0.00313198,0.00241521,0.00165505,0.00161701,-0.0010
 4567,-0.00028252,-0.00046054,0.00030856,-0.00070357,-0.00028082,0.0000
 1485,0.00022563,0.00006077,0.00000429,0.00022042,0.00023078,-0.0001663
 8,0.00027127,0.00011571,0.00005317,-0.00023297,-0.00030086,0.00020201,
 -0.00002114,-0.00004112,0.00003746,-0.00005484,-0.00001370,0.00002160,
 -0.00002386,0.00004719,0.00022969,0.00000519,0.00005243,-0.00002771,0.
 00031101,0.00030061,-0.00015938,-0.00023759,-0.00024472,0.00012615,0.0
 0911102,-0.00835792,-0.21332579,0.01410773,-0.02685415,0.45536527,0.00
 062141,-0.00023870,0.00087945,0.00026489,-0.00005732,0.00009653,-0.000
 03848,0.00006013,0.00000577,-0.00001467,-0.00005403,-0.00000877,0.0001
 9983,-0.00003668,-0.00003824,0.00021814,0.00027799,0.00020067,0.000017
 14,0.00001134,-0.00000675,0.00002722,0.00000793,0.00000964,-0.00038847
 ,-0.00022095,-0.00021403,-0.00000605,0.00005667,-0.00007220,-0.0000438
 4,-0.00004343,0.00002705,0.00000444,0.00001321,-0.00000660,0.00001728,
 0.00000749,0.00000078,-0.00000364,-0.00000288,-0.00000062,-0.00000447,
 -0.00000675,0.00000527,-0.00000365,-0.00000272,-0.00000327,0.00000474,
 0.00000850,-0.00000350,0.00000024,0.00000112,-0.00000092,0.00000079,-0
 .00000070,-0.00000010,-0.00003937,-0.00002260,0.00000295,-0.00000011,-
 0.00000109,0.00000123,-0.00000865,-0.00000830,0.00000349,0.00000557,0.
 00000706,-0.00000399,0.00173384,-0.00368858,0.00179016,-0.07660827,0.0
 7197810,-0.03049519,0.07343944,-0.00028564,0.00164073,-0.00199157,0.00
 001064,0.00020499,-0.00014782,0.00004541,-0.00014131,0.00003427,-0.000
 06123,0.00014082,-0.00000758,-0.00002951,0.00024456,0.00010820,0.00026
 052,-0.00038080,-0.00046951,0.00000877,-0.00000707,0.00002128,0.000012
 12,0.00000309,-0.00001726,-0.00023615,0.00015650,0.00048507,-0.0000759
 5,-0.00021975,0.00020355,0.00014704,0.00013924,-0.00007635,-0.00002169
 ,-0.00004155,0.00002378,-0.00006138,-0.00001910,0.00000032,0.00001893,
 0.00000598,0.00000077,0.00002223,0.00002448,-0.00001366,0.00002220,0.0
 0000554,-0.00000167,-0.00001893,-0.00002842,0.00001785,-0.00000119,-0.
 00000361,0.00000290,-0.00000314,-0.00000149,-0.00000102,-0.00001632,0.
 00000714,-0.00000155,0.00000028,0.00000370,-0.00000319,0.00003029,0.00
 002835,-0.00001627,-0.00002356,-0.00002267,0.00001358,-0.00218815,0.00
 709169,-0.00147479,0.07144987,-0.27148686,0.09154334,-0.07726564,0.284
 02492,0.00128203,-0.00311929,-0.00422049,-0.00053025,0.00170016,-0.000
 87633,0.00016321,-0.00043852,-0.00036237,0.00002696,-0.00010240,0.0002
 5498,-0.00012624,0.00037056,0.00015237,0.00036033,-0.00090371,-0.00062
 163,0.00001814,-0.00004995,0.00000990,-0.00001567,0.00005100,-0.000048
 62,-0.00008966,0.00011661,0.00065388,0.00002262,0.00026394,-0.00014898
 ,-0.00013704,-0.00013590,0.00008860,0.00002217,0.00003487,-0.00002677,
 0.00005893,0.00002086,-0.00000286,-0.00001761,-0.00000588,-0.00000035,
 -0.00001934,-0.00001968,0.00001267,-0.00002396,-0.00000895,-0.00000334
 ,0.00001914,0.00002551,-0.00001651,0.00000157,0.00000359,-0.00000248,0
 .00000456,0.00000213,-0.00000159,-0.00004034,0.00012358,-0.00009836,-0
 .00000044,-0.00000416,0.00000265,-0.00002530,-0.00002420,0.00001362,0.
 00001964,0.00001898,-0.00001083,-0.01075710,0.03492214,-0.03072641,-0.
 02610287,0.07879006,-0.07775921,0.03096509,-0.09645101,0.10284407,0.00
 056230,-0.00117114,0.00046814,-0.00025220,0.00028046,-0.00035519,0.000
 03033,-0.00021020,0.00014881,-0.00005565,0.00006540,0.00009608,-0.0000
 4385,0.00029634,0.00023911,0.00004269,-0.00055789,-0.00088924,0.000003
 06,0.00001538,0.00008009,-0.00000453,0.00000729,-0.00002772,-0.0007881
 4,0.00072924,0.00000483,-0.00003279,0.00002014,0.00006539,0.00002648,0
 .00000874,-0.00000829,-0.00000407,-0.00000310,0.00000488,-0.00000852,0
 .00000884,0.00000215,0.00000158,-0.00000108,-0.00000129,0.00000650,0.0
 0000523,-0.00000326,0.00000276,-0.00000421,-0.00000783,-0.00000176,-0.
 00000212,0.00000552,0.00000004,-0.00000093,0.00000002,0.00000162,-0.00
 000151,-0.00000322,0.00000245,0.00000720,-0.00000110,-0.00000001,-0.00
 000140,-0.00000117,0.00000566,0.00000404,-0.00000397,-0.00000411,-0.00
 000279,0.00000444,0.00728140,0.00565344,-0.00168944,-0.15063438,-0.113
 67522,-0.04610703,0.00743504,0.00762487,0.00405604,0.15405086,0.001407
 60,-0.00000740,0.00130667,-0.00023838,0.00001656,0.00001778,-0.0001403
 9,0.00046713,0.00006108,0.00002191,-0.00047427,-0.00034269,-0.00038700
 ,-0.00025049,0.00061595,0.00040896,0.00009864,-0.00088280,-0.00002916,
 -0.00001116,0.00005589,0.00002410,0.00006287,-0.00001866,0.00121870,-0
 .00040858,0.00125707,0.00013548,0.00044464,-0.00027133,-0.00022111,-0.
 00019433,0.00012700,0.00004233,0.00005753,-0.00004341,0.00009041,0.000
 04344,-0.00001261,-0.00003169,-0.00000799,0.00000205,-0.00002939,-0.00
 002667,0.00002270,-0.00003819,-0.00001131,-0.00001071,0.00003295,0.000
 03578,-0.00002903,0.00000311,0.00000469,-0.00000448,0.00000854,0.00000
 496,-0.00000419,-0.00000313,0.00002002,-0.00003377,-0.00000025,-0.0000
 0742,0.00000456,-0.00003894,-0.00003693,0.00002065,0.00003120,0.000028
 92,-0.00001402,0.00159100,0.00230337,-0.00802507,-0.11432728,-0.188104
 31,-0.05345765,-0.01848811,-0.01828829,-0.00809597,0.12417187,0.198906
 20,0.00022684,-0.00684047,0.00429339,0.00045011,0.00091737,-0.00180581
 ,0.00056291,-0.00073331,0.00032891,-0.00012433,0.00050732,0.00072051,0
 .00020117,0.00045517,-0.00059558,-0.00011659,0.00092862,0.00048026,-0.
 00024345,-0.00002038,0.00020304,-0.00003821,0.00003658,-0.00002893,-0.
 00123826,0.00065190,-0.00039595,-0.00005628,0.00030638,-0.00027048,-0.
 00018906,-0.00021176,0.00011158,0.00002737,0.00005407,-0.00002934,0.00
 007422,0.00003752,-0.00000758,-0.00002356,-0.00001322,-0.00000117,-0.0
 0001947,-0.00002284,0.00001502,-0.00003229,-0.00001118,-0.00000847,0.0
 0002584,0.00003396,-0.00001219,0.00000234,0.00000404,-0.00000270,0.000
 00758,0.00000392,-0.00000556,-0.00005671,-0.00000533,-0.00004504,0.000
 00091,-0.00000668,0.00000416,-0.00002843,-0.00002889,0.00001391,0.0000
 2228,0.00002138,-0.00001080,-0.02026262,-0.02506450,-0.03249509,-0.043
 39951,-0.04927872,-0.07052170,0.00801919,0.00745252,0.00589656,0.05271
 377,0.06473524,0.08905064,0.00028892,0.00196514,-0.00141008,-0.0001008
 8,-0.00043911,0.00038427,0.00004226,-0.00005640,-0.00017833,-0.0001788
 9,0.00009202,0.00009769,-0.00010554,-0.00024050,-0.00054073,-0.0000704
 7,0.00037962,0.00119152,-0.00001386,-0.00001951,-0.00011227,0.00003267
 ,-0.00003129,0.00003778,0.00031658,-0.00024322,-0.00071753,0.00010342,
 -0.00022103,0.00014816,0.00007200,0.00007964,-0.00008918,-0.00001525,-
 0.00002112,0.00001893,-0.00003969,-0.00000488,-0.00000484,0.00001224,-
 0.00000068,0.00000172,0.00001035,0.00001121,-0.00001140,0.00001167,0.0
 0000982,0.00000125,-0.00001122,-0.00001513,0.00001324,-0.00000129,-0.0
 0000290,0.00000344,-0.00000152,0.00000250,-0.00000068,0.00000630,-0.00
 001913,0.00002488,0.00000159,0.00000272,0.00000058,0.00001877,0.000018
 08,-0.00000843,-0.00001236,-0.00001721,0.00000867,0.00589093,-0.000179
 56,0.00903051,-0.28451540,0.04470304,0.05475474,-0.00683036,0.00063532
 ,0.00086537,-0.01762274,0.00478487,0.00349421,0.30271179,-0.00118451,0
 .00023639,0.00054366,0.00012337,-0.00012566,0.00028983,-0.00019354,0.0
 0050297,-0.00005703,0.00021170,-0.00035649,-0.00035027,0.00046154,-0.0
 0013816,0.00038422,-0.00046090,0.00014172,-0.00016694,0.00002543,-0.00
 000290,-0.00000960,-0.00004758,0.00001978,-0.00000190,-0.00073796,-0.0
 0155511,0.00088309,-0.00001256,0.00027642,-0.00028686,-0.00018531,-0.0
 0015919,0.00013893,0.00002853,0.00004476,-0.00003675,0.00007537,0.0000
 2081,-0.00000682,-0.00002200,-0.00000799,0.00000051,-0.00002441,-0.000
 02249,0.00001793,-0.00002756,-0.00000854,-0.00000699,0.00002503,0.0000
 2980,-0.00002096,0.00000198,0.00000411,-0.00000338,0.00000516,0.000002
 70,-0.00000136,-0.00000469,0.00001165,-0.00002444,-0.00000004,-0.00000
 446,0.00000425,-0.00003136,-0.00003012,0.00001663,0.00002382,0.0000241
 7,-0.00001371,0.00310953,0.00094840,-0.00421034,0.04557124,-0.06274245
 ,-0.01026150,0.02770893,-0.00308081,-0.00708438,-0.02326690,0.00533442
 ,0.00609127,-0.05117231,0.06063627,0.00372538,-0.00549209,0.00436837,-
 0.00079945,0.00045596,-0.00181413,-0.00000937,-0.00091868,0.00029927,-
 0.00023310,0.00047044,0.00072061,-0.00038355,0.00022631,-0.00064642,-0
 .00051427,0.00081759,0.00053012,0.00019312,0.00012050,0.00020808,0.000
 00882,0.00005274,-0.00002506,0.00059747,0.00121710,-0.00033136,0.00011
 285,0.00031677,-0.00022330,-0.00014646,-0.00014156,0.00006470,0.000033
 99,0.00004153,-0.00003051,0.00005890,0.00002968,0.00000071,-0.00002340
 ,-0.00000219,0.00000090,-0.00001957,-0.00002368,0.00001313,-0.00002782
 ,-0.00001137,-0.00000271,0.00002175,0.00002508,-0.00002099,0.00000240,
 0.00000485,-0.00000303,0.00000517,0.00000094,-0.00000296,0.00005067,0.
 00002607,-0.00003876,-0.00000105,-0.00000424,0.00000222,-0.00002799,-0
 .00002582,0.00001595,0.00002157,0.00002158,-0.00001169,0.03432816,-0.0
 0646497,-0.02984471,0.04997288,-0.00870100,-0.06231137,-0.01115311,0.0
 0076580,0.00499782,-0.00879051,0.00301975,0.00511841,-0.06700349,0.014
 17292,0.07896672\\0.00000066,0.00000421,-0.00000170,-0.00000003,0.0000
 0529,-0.00000544,-0.00000023,-0.00000158,0.00000195,0.00000054,0.00000
 853,-0.00000381,-0.00000148,-0.00000337,0.00000010,-0.00000140,-0.0000
 0263,0.00000176,0.00000213,-0.00000037,0.00000158,-0.00000185,-0.00000
 025,-0.00000084,-0.00000127,0.00000152,-0.00000097,0.00002387,0.000002
 36,-0.00000708,-0.00001188,-0.00001039,0.00001379,-0.00000526,-0.00000
 284,-0.00000762,-0.00000620,-0.00000335,0.00000081,0.00000185,-0.00000
 092,-0.00000137,-0.00000138,0.00000364,-0.00000227,0.00000017,-0.00000
 017,-0.00000003,0.00000522,-0.00000245,0.00000476,-0.00000057,-0.00000
 067,-0.00000054,-0.00000008,0.00000056,0.00000171,0.00000198,0.0000045
 0,-0.00000381,0.00000208,0.00000090,0.00000108,-0.00000126,0.00000057,
 0.00000188,-0.00000158,0.00000104,0.00000105,-0.00000027,-0.00000454,0
 .00000197,-0.00000469,-0.00000149,-0.00000260,0.00000088,0.00000121,0.
 00000219,-0.00000048,0.00000081,0.00000289,0.00000051,-0.00000010,0.00
 000058\\\@


 ADAM SMITH SAID, "THE REAL PRICE OF ANYTHING IS THE TOIL AND TROUBLE
 OF ACQUIRING IT."  BUT IN ALL UNDERTAKINGS WITH NATURE WE SHOULD FIRST
 READ CAREFULLY THE SMALL PRINT IN THE CONTRACT. THIS MIGHT DISCLOSE
 THAT THE REAL PRICE IS TO BE PAID BY THOSE WHO INHERIT THE DEPLETION
 AND DESPOILATION THAT FOLLOWS.
                               -- E. R. HARRISON IN "COSMOLOGY" (1980)
 Job cpu time:       0 days  2 hours 34 minutes  4.7 seconds.
 Elapsed time:       0 days  0 hours  5 minutes  8.2 seconds.
 File lengths (MBytes):  RWF=    348 Int=      0 D2E=      0 Chk=     12 Scr=      1
 Normal termination of Gaussian 16 at Mon Sep 18 10:36:07 2023.
