 Entering Gaussian System, Link 0=/home/ubuntu/g16/g16
 Input=/home/ubuntu/products/molecule_32.gjf
 Output=/home/ubuntu/products/molecule_32.log
 Initial command:
 /home/ubuntu/g16/l1.exe "/home/ubuntu/Scratch/Gau-26945.inp" -scrdir="/home/ubuntu/Scratch/"
 Entering Link 1 = /home/ubuntu/g16/l1.exe PID=     26947.
  
 Copyright (c) 1988-2017, Gaussian, Inc.  All Rights Reserved.
  
 This is part of the Gaussian(R) 16 program.  It is based on
 the Gaussian(R) 09 system (copyright 2009, Gaussian, Inc.),
 the Gaussian(R) 03 system (copyright 2003, Gaussian, Inc.),
 the Gaussian(R) 98 system (copyright 1998, Gaussian, Inc.),
 the Gaussian(R) 94 system (copyright 1995, Gaussian, Inc.),
 the Gaussian 92(TM) system (copyright 1992, Gaussian, Inc.),
 the Gaussian 90(TM) system (copyright 1990, Gaussian, Inc.),
 the Gaussian 88(TM) system (copyright 1988, Gaussian, Inc.),
 the Gaussian 86(TM) system (copyright 1986, Carnegie Mellon
 University), and the Gaussian 82(TM) system (copyright 1983,
 Carnegie Mellon University). Gaussian is a federally registered
 trademark of Gaussian, Inc.
  
 This software contains proprietary and confidential information,
 including trade secrets, belonging to Gaussian, Inc.
  
 This software is provided under written license and may be
 used, copied, transmitted, or stored only in accord with that
 written license.
  
 The following legend is applicable only to US Government
 contracts under FAR:
  
                    RESTRICTED RIGHTS LEGEND
  
 Use, reproduction and disclosure by the US Government is
 subject to restrictions as set forth in subparagraphs (a)
 and (c) of the Commercial Computer Software - Restricted
 Rights clause in FAR 52.227-19.
  
 Gaussian, Inc.
 340 Quinnipiac St., Bldg. 40, Wallingford CT 06492
  
  
 ---------------------------------------------------------------
 Warning -- This program may not be used in any manner that
 competes with the business of Gaussian, Inc. or will provide
 assistance to any competitor of Gaussian, Inc.  The licensee
 of this program is prohibited from giving any competitor of
 Gaussian, Inc. access to this program.  By using this program,
 the user acknowledges that Gaussian, Inc. is engaged in the
 business of creating and licensing software in the field of
 computational chemistry and represents and warrants to the
 licensee that it is not a competitor of Gaussian, Inc. and that
 it will not use this program in any manner prohibited above.
 ---------------------------------------------------------------
  

 Cite this work as:
 Gaussian 16, Revision B.01,
 M. J. Frisch, G. W. Trucks, H. B. Schlegel, G. E. Scuseria, 
 M. A. Robb, J. R. Cheeseman, G. Scalmani, V. Barone, 
 G. A. Petersson, H. Nakatsuji, X. Li, M. Caricato, A. V. Marenich, 
 J. Bloino, B. G. Janesko, R. Gomperts, B. Mennucci, H. P. Hratchian, 
 J. V. Ortiz, A. F. Izmaylov, J. L. Sonnenberg, D. Williams-Young, 
 F. Ding, F. Lipparini, F. Egidi, J. Goings, B. Peng, A. Petrone, 
 T. Henderson, D. Ranasinghe, V. G. Zakrzewski, J. Gao, N. Rega, 
 G. Zheng, W. Liang, M. Hada, M. Ehara, K. Toyota, R. Fukuda, 
 J. Hasegawa, M. Ishida, T. Nakajima, Y. Honda, O. Kitao, H. Nakai, 
 T. Vreven, K. Throssell, J. A. Montgomery, Jr., J. E. Peralta, 
 F. Ogliaro, M. J. Bearpark, J. J. Heyd, E. N. Brothers, K. N. Kudin, 
 V. N. Staroverov, T. A. Keith, R. Kobayashi, J. Normand, 
 K. Raghavachari, A. P. Rendell, J. C. Burant, S. S. Iyengar, 
 J. Tomasi, M. Cossi, J. M. Millam, M. Klene, C. Adamo, R. Cammi, 
 J. W. Ochterski, R. L. Martin, K. Morokuma, O. Farkas, 
 J. B. Foresman, and D. J. Fox, Gaussian, Inc., Wallingford CT, 2016.
 
 ******************************************
 Gaussian 16:  EM64L-G16RevB.01 20-Dec-2017
                18-Sep-2023 
 ******************************************
 %nprocshared=30
 Will use up to   30 processors via shared memory.
 %mem=30GB
 %chk=molecule_32.chk
 ---------------------------------------------------------
 # opt freq b3lyp/6-31+g(d) empiricaldispersion=gd3 volume
 ---------------------------------------------------------
 1/18=20,19=15,26=3,38=1/1,3;
 2/9=110,12=2,17=6,18=5,40=1/2;
 3/5=1,6=6,7=11,11=2,25=1,30=1,71=1,74=-5,124=31/1,2,3;
 4//1;
 5/5=2,38=5/2;
 6/7=2,8=2,9=2,10=2,28=1,44=1/1,4;
 7//1,2,3,16;
 1/18=20,19=15,26=3/3(2);
 2/9=110/2;
 99//99;
 2/9=110/2;
 3/5=1,6=6,7=11,11=2,25=1,30=1,71=1,74=-5,124=31/1,2,3;
 4/5=5,16=3,69=1/1;
 5/5=2,38=5/2;
 7//1,2,3,16;
 1/18=20,19=15,26=3/3(-5);
 2/9=110/2;
 6/7=2,8=2,9=2,10=2,19=2,28=1,44=1/1,4;
 99/9=1/99;
 -------------------
 Title Card Required
 -------------------
 Symbolic Z-matrix:
 Charge =  0 Multiplicity = 1
 C                     5.18729   1.0533   -0.00017 
 C                     3.79658   1.15458  -0.0001 
 C                     3.01941  -0.02546   0.00012 
 C                     3.70996  -1.25822   0.00014 
 C                     5.10443  -1.25674   0.00007 
 H                     5.80529   1.9451   -0.00023 
 H                     3.31311   2.12463  -0.00023 
 H                     3.15825  -2.19118   0.00026 
 H                     5.65699  -2.19053   0.00003 
 C                     1.5984    0.02617   0.00008 
 C                     0.37889   0.07206   0.00004 
 C                    -1.04302   0.12695   0.00002 
 C                    -1.72099   1.37108   0.00011 
 C                    -1.8123   -1.0549   -0.00008 
 C                    -3.10799   1.42365   0.00009 
 H                    -1.14298   2.28856   0.00019 
 C                    -3.20753  -1.00805  -0.00008 
 H                    -1.30707  -2.01465  -0.00009 
 C                    -3.85731   0.2351    0.00001 
 H                    -3.6398    2.3675    0.00017 
 H                    -3.7697   -1.93335  -0.00016 
 N                     5.85033  -0.127    -0.00009 
 O                    -5.23397   0.3997    0.00003 
 C                    -6.08296  -0.78073  -0.0001 
 H                    -7.10267  -0.39803   0.00013 
 H                    -5.91473  -1.38947  -0.89656 
 H                    -5.91451  -1.38988   0.89604 
 

 GradGradGradGradGradGradGradGradGradGradGradGradGradGradGradGradGradGrad
 Berny optimization.
 Initialization pass.
                           ----------------------------
                           !    Initial Parameters    !
                           ! (Angstroms and Degrees)  !
 --------------------------                            --------------------------
 ! Name  Definition              Value          Derivative Info.                !
 --------------------------------------------------------------------------------
 ! R1    R(1,2)                  1.3944         estimate D2E/DX2                !
 ! R2    R(1,6)                  1.085          estimate D2E/DX2                !
 ! R3    R(1,22)                 1.3538         estimate D2E/DX2                !
 ! R4    R(2,3)                  1.413          estimate D2E/DX2                !
 ! R5    R(2,7)                  1.0839         estimate D2E/DX2                !
 ! R6    R(3,4)                  1.413          estimate D2E/DX2                !
 ! R7    R(3,10)                 1.4219         estimate D2E/DX2                !
 ! R8    R(4,5)                  1.3945         estimate D2E/DX2                !
 ! R9    R(4,8)                  1.0839         estimate D2E/DX2                !
 ! R10   R(5,9)                  1.085          estimate D2E/DX2                !
 ! R11   R(5,22)                 1.3538         estimate D2E/DX2                !
 ! R12   R(10,11)                1.2204         estimate D2E/DX2                !
 ! R13   R(11,12)                1.423          estimate D2E/DX2                !
 ! R14   R(12,13)                1.4169         estimate D2E/DX2                !
 ! R15   R(12,14)                1.4102         estimate D2E/DX2                !
 ! R16   R(13,15)                1.388          estimate D2E/DX2                !
 ! R17   R(13,16)                1.0844         estimate D2E/DX2                !
 ! R18   R(14,17)                1.396          estimate D2E/DX2                !
 ! R19   R(14,18)                1.0846         estimate D2E/DX2                !
 ! R20   R(15,19)                1.405          estimate D2E/DX2                !
 ! R21   R(15,20)                1.0834         estimate D2E/DX2                !
 ! R22   R(17,19)                1.4027         estimate D2E/DX2                !
 ! R23   R(17,21)                1.0827         estimate D2E/DX2                !
 ! R24   R(19,23)                1.3865         estimate D2E/DX2                !
 ! R25   R(23,24)                1.454          estimate D2E/DX2                !
 ! R26   R(24,25)                1.0892         estimate D2E/DX2                !
 ! R27   R(24,26)                1.0966         estimate D2E/DX2                !
 ! R28   R(24,27)                1.0966         estimate D2E/DX2                !
 ! A1    A(2,1,6)              120.5556         estimate D2E/DX2                !
 ! A2    A(2,1,22)             123.4909         estimate D2E/DX2                !
 ! A3    A(6,1,22)             115.9535         estimate D2E/DX2                !
 ! A4    A(1,2,3)              119.2032         estimate D2E/DX2                !
 ! A5    A(1,2,7)              120.6572         estimate D2E/DX2                !
 ! A6    A(3,2,7)              120.1397         estimate D2E/DX2                !
 ! A7    A(2,3,4)              117.375          estimate D2E/DX2                !
 ! A8    A(2,3,10)             121.2877         estimate D2E/DX2                !
 ! A9    A(4,3,10)             121.3373         estimate D2E/DX2                !
 ! A10   A(3,4,5)              119.1953         estimate D2E/DX2                !
 ! A11   A(3,4,8)              120.1455         estimate D2E/DX2                !
 ! A12   A(5,4,8)              120.6592         estimate D2E/DX2                !
 ! A13   A(4,5,9)              120.5534         estimate D2E/DX2                !
 ! A14   A(4,5,22)             123.4956         estimate D2E/DX2                !
 ! A15   A(9,5,22)             115.951          estimate D2E/DX2                !
 ! A16   A(11,12,13)           120.798          estimate D2E/DX2                !
 ! A17   A(11,12,14)           120.8502         estimate D2E/DX2                !
 ! A18   A(13,12,14)           118.3518         estimate D2E/DX2                !
 ! A19   A(12,13,15)           120.7578         estimate D2E/DX2                !
 ! A20   A(12,13,16)           119.2018         estimate D2E/DX2                !
 ! A21   A(15,13,16)           120.0403         estimate D2E/DX2                !
 ! A22   A(12,14,17)           121.1376         estimate D2E/DX2                !
 ! A23   A(12,14,18)           119.1758         estimate D2E/DX2                !
 ! A24   A(17,14,18)           119.6866         estimate D2E/DX2                !
 ! A25   A(13,15,19)           120.0588         estimate D2E/DX2                !
 ! A26   A(13,15,20)           121.5694         estimate D2E/DX2                !
 ! A27   A(19,15,20)           118.3717         estimate D2E/DX2                !
 ! A28   A(14,17,19)           119.5186         estimate D2E/DX2                !
 ! A29   A(14,17,21)           119.3579         estimate D2E/DX2                !
 ! A30   A(19,17,21)           121.1235         estimate D2E/DX2                !
 ! A31   A(15,19,17)           120.1753         estimate D2E/DX2                !
 ! A32   A(15,19,23)           115.4112         estimate D2E/DX2                !
 ! A33   A(17,19,23)           124.4135         estimate D2E/DX2                !
 ! A34   A(1,22,5)             117.2401         estimate D2E/DX2                !
 ! A35   A(19,23,24)           118.9067         estimate D2E/DX2                !
 ! A36   A(23,24,25)           105.1536         estimate D2E/DX2                !
 ! A37   A(23,24,26)           111.1718         estimate D2E/DX2                !
 ! A38   A(23,24,27)           111.1739         estimate D2E/DX2                !
 ! A39   A(25,24,26)           109.8076         estimate D2E/DX2                !
 ! A40   A(25,24,27)           109.8056         estimate D2E/DX2                !
 ! A41   A(26,24,27)           109.641          estimate D2E/DX2                !
 ! A42   L(3,10,11,7,-1)       179.9257         estimate D2E/DX2                !
 ! A43   L(10,11,12,16,-1)     179.9446         estimate D2E/DX2                !
 ! A44   L(3,10,11,7,-2)       180.0001         estimate D2E/DX2                !
 ! A45   L(10,11,12,16,-2)     180.0008         estimate D2E/DX2                !
 ! D1    D(6,1,2,3)           -179.9934         estimate D2E/DX2                !
 ! D2    D(6,1,2,7)              0.007          estimate D2E/DX2                !
 ! D3    D(22,1,2,3)             0.003          estimate D2E/DX2                !
 ! D4    D(22,1,2,7)          -179.9966         estimate D2E/DX2                !
 ! D5    D(2,1,22,5)            -0.0006         estimate D2E/DX2                !
 ! D6    D(6,1,22,5)           179.9959         estimate D2E/DX2                !
 ! D7    D(1,2,3,4)             -0.0054         estimate D2E/DX2                !
 ! D8    D(1,2,3,10)          -179.9945         estimate D2E/DX2                !
 ! D9    D(7,2,3,4)            179.9942         estimate D2E/DX2                !
 ! D10   D(7,2,3,10)             0.0051         estimate D2E/DX2                !
 ! D11   D(2,3,4,5)              0.0056         estimate D2E/DX2                !
 ! D12   D(2,3,4,8)           -179.9969         estimate D2E/DX2                !
 ! D13   D(10,3,4,5)           179.9948         estimate D2E/DX2                !
 ! D14   D(10,3,4,8)            -0.0077         estimate D2E/DX2                !
 ! D15   D(2,3,12,13)           -0.0162         estimate D2E/DX2                !
 ! D16   D(2,3,12,14)          179.985          estimate D2E/DX2                !
 ! D17   D(4,3,12,13)          179.9947         estimate D2E/DX2                !
 ! D18   D(4,3,12,14)           -0.0041         estimate D2E/DX2                !
 ! D19   D(3,4,5,9)           -179.9965         estimate D2E/DX2                !
 ! D20   D(3,4,5,22)            -0.0035         estimate D2E/DX2                !
 ! D21   D(8,4,5,9)              0.006          estimate D2E/DX2                !
 ! D22   D(8,4,5,22)           179.999          estimate D2E/DX2                !
 ! D23   D(4,5,22,1)             0.0009         estimate D2E/DX2                !
 ! D24   D(9,5,22,1)           179.9941         estimate D2E/DX2                !
 ! D25   D(11,12,13,15)       -179.9996         estimate D2E/DX2                !
 ! D26   D(11,12,13,16)          0.0004         estimate D2E/DX2                !
 ! D27   D(14,12,13,15)         -0.0002         estimate D2E/DX2                !
 ! D28   D(14,12,13,16)        179.9998         estimate D2E/DX2                !
 ! D29   D(11,12,14,17)        179.9989         estimate D2E/DX2                !
 ! D30   D(11,12,14,18)          0.0025         estimate D2E/DX2                !
 ! D31   D(13,12,14,17)         -0.0005         estimate D2E/DX2                !
 ! D32   D(13,12,14,18)       -179.9969         estimate D2E/DX2                !
 ! D33   D(12,13,15,19)          0.0008         estimate D2E/DX2                !
 ! D34   D(12,13,15,20)        179.9994         estimate D2E/DX2                !
 ! D35   D(16,13,15,19)       -179.9992         estimate D2E/DX2                !
 ! D36   D(16,13,15,20)         -0.0006         estimate D2E/DX2                !
 ! D37   D(12,14,17,19)          0.0005         estimate D2E/DX2                !
 ! D38   D(12,14,17,21)        179.9997         estimate D2E/DX2                !
 ! D39   D(18,14,17,19)        179.9969         estimate D2E/DX2                !
 ! D40   D(18,14,17,21)         -0.0039         estimate D2E/DX2                !
 ! D41   D(13,15,19,17)         -0.0007         estimate D2E/DX2                !
 ! D42   D(13,15,19,23)        179.9989         estimate D2E/DX2                !
 ! D43   D(20,15,19,17)       -179.9994         estimate D2E/DX2                !
 ! D44   D(20,15,19,23)          0.0002         estimate D2E/DX2                !
 ! D45   D(14,17,19,15)          0.0001         estimate D2E/DX2                !
 ! D46   D(14,17,19,23)       -179.9995         estimate D2E/DX2                !
 ! D47   D(21,17,19,15)       -179.9991         estimate D2E/DX2                !
 ! D48   D(21,17,19,23)          0.0014         estimate D2E/DX2                !
 ! D49   D(15,19,23,24)        179.9979         estimate D2E/DX2                !
 ! D50   D(17,19,23,24)         -0.0025         estimate D2E/DX2                !
 ! D51   D(19,23,24,25)        179.9895         estimate D2E/DX2                !
 ! D52   D(19,23,24,26)        -61.2352         estimate D2E/DX2                !
 ! D53   D(19,23,24,27)         61.2156         estimate D2E/DX2                !
 --------------------------------------------------------------------------------
 Trust Radius=3.00D-01 FncErr=1.00D-07 GrdErr=1.00D-06 EigMax=2.50D+02 EigMin=1.00D-04
 Number of steps in this run=    136 maximum allowed number of steps=    162.
 GradGradGradGradGradGradGradGradGradGradGradGradGradGradGradGradGradGrad

                          Input orientation:                          
 ---------------------------------------------------------------------
 Center     Atomic      Atomic             Coordinates (Angstroms)
 Number     Number       Type             X           Y           Z
 ---------------------------------------------------------------------
      1          6           0        5.187292    1.053295   -0.000169
      2          6           0        3.796577    1.154581   -0.000103
      3          6           0        3.019406   -0.025464    0.000117
      4          6           0        3.709962   -1.258221    0.000142
      5          6           0        5.104432   -1.256736    0.000071
      6          1           0        5.805293    1.945099   -0.000229
      7          1           0        3.313105    2.124629   -0.000225
      8          1           0        3.158248   -2.191185    0.000256
      9          1           0        5.656992   -2.190527    0.000031
     10          6           0        1.598395    0.026169    0.000076
     11          6           0        0.378889    0.072063    0.000043
     12          6           0       -1.043015    0.126950    0.000020
     13          6           0       -1.720985    1.371084    0.000107
     14          6           0       -1.812301   -1.054900   -0.000077
     15          6           0       -3.107988    1.423650    0.000093
     16          1           0       -1.142977    2.288563    0.000186
     17          6           0       -3.207530   -1.008051   -0.000078
     18          1           0       -1.307066   -2.014649   -0.000093
     19          6           0       -3.857307    0.235098    0.000008
     20          1           0       -3.639798    2.367498    0.000169
     21          1           0       -3.769701   -1.933349   -0.000159
     22          7           0        5.850332   -0.127002   -0.000091
     23          8           0       -5.233966    0.399695    0.000026
     24          6           0       -6.082959   -0.780726   -0.000104
     25          1           0       -7.102668   -0.398027    0.000130
     26          1           0       -5.914728   -1.389470   -0.896555
     27          1           0       -5.914505   -1.389878    0.896040
 ---------------------------------------------------------------------
                    Distance matrix (angstroms):
                    1          2          3          4          5
     1  C    0.000000
     2  C    1.394398   0.000000
     3  C    2.421456   1.412976   0.000000
     4  C    2.743285   2.414356   1.412996   0.000000
     5  C    2.311517   2.743161   2.421438   1.394471   0.000000
     6  H    1.085007   2.158671   3.412372   3.827750   3.277645
     7  H    2.158781   1.083853   2.170060   3.406049   3.826550
     8  H    3.826705   3.406114   2.170167   1.083887   2.158895
     9  H    3.277651   3.827648   3.412383   2.158731   1.085029
    10  C    3.732984   2.470894   1.421949   2.471512   3.733382
    11  C    4.907500   3.585029   2.642317   3.586879   4.908815
    12  C    6.298797   4.947492   4.065279   4.950706   6.301245
    13  C    6.915582   5.521808   4.941827   6.033940   7.313806
    14  C    7.310184   6.028376   4.940155   5.526005   6.919677
    15  C    8.303543   6.909806   6.296419   7.326450   8.638768
    16  H    6.449666   5.068048   4.762368   6.010881   7.183263
    17  C    8.644199   7.330381   6.303984   6.922014   8.315681
    18  H    7.182546   6.007594   4.761850   5.073732   6.456140
    19  C    9.081532   7.708916   6.881648   7.713207   9.085061
    20  H    8.924385   7.534643   7.076105   8.195414   9.465550
    21  H    9.441809   8.172140   7.052092   7.510070   8.899890
    22  N    1.353781   2.420819   2.832746   2.420917   1.353760
    23  O   10.441734   9.062039   8.264315   9.096292  10.470255
    24  C   11.418502  10.067306   9.133645   9.804555  11.197513
    25  H   12.375357  11.009275  10.128928  10.846792  12.237266
    26  H   11.402871  10.078952   9.082031   9.667262  11.056376
    27  H   11.402727  10.078812   9.081799   9.666971  11.056105
                    6          7          8          9         10
     6  H    0.000000
     7  H    2.498646   0.000000
     8  H    4.910773   4.318591   0.000000
     9  H    4.138284   4.910639   2.498744   0.000000
    10  C    4.623882   2.709938   2.711051   4.624495   0.000000
    11  C    5.740568   3.580873   3.584289   5.742620   1.220369
    12  C    7.085548   4.792338   4.798371   7.089485   2.643332
    13  C    7.548136   5.090176   6.041248   8.192656   3.581491
    14  C    8.187047   6.031517   5.098774   7.555130   3.577926
    15  C    8.928521   6.459242   7.234138   9.480883   4.909480
    16  H    6.956754   4.459096   6.210369   8.142593   3.554370
    17  C    9.484307   7.234111   6.474792   8.943042   4.915946
    18  H    8.140347   6.203193   4.468802   6.966279   3.550583
    19  C    9.812744   7.415196   7.423265   9.818632   5.459701
    20  H    9.454531   6.957143   8.185049  10.354028   5.737638
    21  H   10.330676   8.162924   6.932745   9.430201   5.714557
    22  N    2.072590   3.392250   3.392369   2.072563   4.254695
    23  O   11.146906   8.719393   8.783047  11.194741   6.842564
    24  C   12.196748   9.834994   9.348225  11.824297   7.723618
    25  H   13.118906  10.716908  10.416420  12.884952   8.711397
    26  H   12.218087   9.914898   9.152372  11.634013   7.697727
    27  H   12.217980   9.914829   9.152014  11.633719   7.697507
                   11         12         13         14         15
    11  C    0.000000
    12  C    1.422963   0.000000
    13  C    2.469195   1.416867   0.000000
    14  C    2.464013   1.410167   2.427702   0.000000
    15  C    3.739666   2.438349   1.387999   2.796787   0.000000
    16  H    2.688670   2.163923   1.084371   3.409801   2.146938
    17  C    3.745537   2.444044   2.805370   1.396015   2.433738
    18  H    2.682687   2.157816   3.410941   1.084611   3.881394
    19  C    4.239332   2.816369   2.419573   2.417880   1.405039
    20  H    4.628052   3.429772   2.162102   3.879762   1.083361
    21  H    4.607871   3.417550   3.887996   2.145481   3.421594
    22  N    5.475063   6.898023   7.718102   7.718610   9.091536
    23  O    5.622409   4.199817   3.644809   3.718015   2.359717
    24  C    6.517878   5.121026   4.863857   4.279450   3.702665
    25  H    7.496311   6.082351   5.665004   5.330991   4.390441
    26  H    6.523004   5.180441   5.100210   4.212543   4.073747
    27  H    6.522798   5.180254   5.100119   4.212281   4.073720
                   16         17         18         19         20
    16  H    0.000000
    17  C    3.889736   0.000000
    18  H    4.306339   2.150582   0.000000
    19  C    3.403573   1.402722   3.400749   0.000000
    20  H    2.498068   3.403114   4.964358   2.143464   0.000000
    21  H    4.972346   1.082688   2.463977   2.170216   4.302808
    22  N    7.398738   9.100610   7.402132   9.714390   9.812497
    23  O    4.505997   2.467426   4.609729   1.386464   2.532513
    24  C    5.815837   2.884401   4.932719   2.446513   3.985016
    25  H    6.537253   3.942617   6.016849   3.306541   4.431659
    26  H    6.091115   2.877164   4.735509   2.770564   4.482659
    27  H    6.091056   2.876896   4.735176   2.770466   4.482717
                   21         22         23         24         25
    21  H    0.000000
    22  N    9.788152   0.000000
    23  O    2.754481  11.096805   0.000000
    24  C    2.584512  11.951184   1.454023   0.000000
    25  H    3.669589  12.955835   2.031848   1.089158   0.000000
    26  H    2.387566  11.866512   2.113860   1.096583   1.788352
    27  H    2.387199  11.866309   2.113894   1.096593   1.788338
                   26         27
    26  H    0.000000
    27  H    1.792595   0.000000
 Stoichiometry    C14H11NO
 Framework group  C1[X(C14H11NO)]
 Deg. of freedom    75
 Full point group                 C1      NOp   1
 Largest Abelian subgroup         C1      NOp   1
 Largest concise Abelian subgroup C1      NOp   1
                         Standard orientation:                         
 ---------------------------------------------------------------------
 Center     Atomic      Atomic             Coordinates (Angstroms)
 Number     Number       Type             X           Y           Z
 ---------------------------------------------------------------------
      1          6           0       -5.187292    1.053295    0.000169
      2          6           0       -3.796577    1.154581    0.000103
      3          6           0       -3.019406   -0.025464   -0.000117
      4          6           0       -3.709962   -1.258221   -0.000142
      5          6           0       -5.104432   -1.256736   -0.000071
      6          1           0       -5.805293    1.945099    0.000229
      7          1           0       -3.313105    2.124629    0.000225
      8          1           0       -3.158248   -2.191185   -0.000256
      9          1           0       -5.656992   -2.190527   -0.000031
     10          6           0       -1.598395    0.026169   -0.000076
     11          6           0       -0.378889    0.072063   -0.000043
     12          6           0        1.043015    0.126950   -0.000020
     13          6           0        1.720985    1.371084   -0.000107
     14          6           0        1.812301   -1.054900    0.000077
     15          6           0        3.107988    1.423650   -0.000093
     16          1           0        1.142977    2.288563   -0.000186
     17          6           0        3.207530   -1.008051    0.000078
     18          1           0        1.307066   -2.014649    0.000093
     19          6           0        3.857307    0.235098   -0.000008
     20          1           0        3.639798    2.367498   -0.000169
     21          1           0        3.769701   -1.933349    0.000159
     22          7           0       -5.850332   -0.127002    0.000091
     23          8           0        5.233966    0.399695   -0.000026
     24          6           0        6.082959   -0.780726    0.000104
     25          1           0        7.102668   -0.398027   -0.000130
     26          1           0        5.914728   -1.389470    0.896555
     27          1           0        5.914505   -1.389878   -0.896040
 ---------------------------------------------------------------------
 Rotational constants (GHZ):           2.6174540           0.1567828           0.1480628
 Standard basis: 6-31+G(d) (6D, 7F)
 There are   326 symmetry adapted cartesian basis functions of A   symmetry.
 There are   326 symmetry adapted basis functions of A   symmetry.
   326 basis functions,   556 primitive gaussians,   326 cartesian basis functions
    55 alpha electrons       55 beta electrons
       nuclear repulsion energy       882.1619388159 Hartrees.
 NAtoms=   27 NActive=   27 NUniq=   27 SFac= 1.00D+00 NAtFMM=   60 NAOKFM=F Big=F
 Integral buffers will be    131072 words long.
 Raffenetti 2 integral format.
 Two-electron integral symmetry is turned on.
 Nuclear repulsion after empirical dispersion term =      882.1437682209 Hartrees.
 One-electron integrals computed using PRISM.
 NBasis=   326 RedAO= T EigKep=  1.89D-06  NBF=   326
 NBsUse=   322 1.00D-06 EigRej=  7.07D-07 NBFU=   322
 ExpMin= 4.38D-02 ExpMax= 5.48D+03 ExpMxC= 8.25D+02 IAcc=3 IRadAn=         5 AccDes= 0.00D+00
 Harris functional with IExCor=  402 and IRadAn=       5 diagonalized for initial guess.
 HarFok:  IExCor=  402 AccDes= 0.00D+00 IRadAn=         5 IDoV= 1 UseB2=F ITyADJ=14
 ICtDFT=  3500011 ScaDFX=  1.000000  1.000000  1.000000  1.000000
 FoFCou: FMM=F IPFlag=           0 FMFlag=      100000 FMFlg1=           0
         NFxFlg=           0 DoJE=T BraDBF=F KetDBF=T FulRan=T
         wScrn=  0.000000 ICntrl=       500 IOpCl=  0 I1Cent=   200000004 NGrid=           0
         NMat0=    1 NMatS0=      1 NMatT0=    0 NMatD0=    1 NMtDS0=    0 NMtDT0=    0
 Petite list used in FoFCou.
 Requested convergence on RMS density matrix=1.00D-08 within 128 cycles.
 Requested convergence on MAX density matrix=1.00D-06.
 Requested convergence on             energy=1.00D-06.
 No special actions if energy rises.
 SCF Done:  E(RB3LYP) =  -670.063782221     A.U. after   15 cycles
            NFock= 15  Conv=0.38D-08     -V/T= 2.0100

 **********************************************************************

            Population analysis using the SCF Density.

 **********************************************************************

 Orbital symmetries:
       Occupied  (A) (A) (A) (A) (A) (A) (A) (A) (A) (A) (A) (A)
                 (A) (A) (A) (A) (A) (A) (A) (A) (A) (A) (A) (A)
                 (A) (A) (A) (A) (A) (A) (A) (A) (A) (A) (A) (A)
                 (A) (A) (A) (A) (A) (A) (A) (A) (A) (A) (A) (A)
                 (A) (A) (A) (A) (A) (A) (A)
       Virtual   (A) (A) (A) (A) (A) (A) (A) (A) (A) (A) (A) (A)
                 (A) (A) (A) (A) (A) (A) (A) (A) (A) (A) (A) (A)
                 (A) (A) (A) (A) (A) (A) (A) (A) (A) (A) (A) (A)
                 (A) (A) (A) (A) (A) (A) (A) (A) (A) (A) (A) (A)
                 (A) (A) (A) (A) (A) (A) (A) (A) (A) (A) (A) (A)
                 (A) (A) (A) (A) (A) (A) (A) (A) (A) (A) (A) (A)
                 (A) (A) (A) (A) (A) (A) (A) (A) (A) (A) (A) (A)
                 (A) (A) (A) (A) (A) (A) (A) (A) (A) (A) (A) (A)
                 (A) (A) (A) (A) (A) (A) (A) (A) (A) (A) (A) (A)
                 (A) (A) (A) (A) (A) (A) (A) (A) (A) (A) (A) (A)
                 (A) (A) (A) (A) (A) (A) (A) (A) (A) (A) (A) (A)
                 (A) (A) (A) (A) (A) (A) (A) (A) (A) (A) (A) (A)
                 (A) (A) (A) (A) (A) (A) (A) (A) (A) (A) (A) (A)
                 (A) (A) (A) (A) (A) (A) (A) (A) (A) (A) (A) (A)
                 (A) (A) (A) (A) (A) (A) (A) (A) (A) (A) (A) (A)
                 (A) (A) (A) (A) (A) (A) (A) (A) (A) (A) (A) (A)
                 (A) (A) (A) (A) (A) (A) (A) (A) (A) (A) (A) (A)
                 (A) (A) (A) (A) (A) (A) (A) (A) (A) (A) (A) (A)
                 (A) (A) (A) (A) (A) (A) (A) (A) (A) (A) (A) (A)
                 (A) (A) (A) (A) (A) (A) (A) (A) (A) (A) (A) (A)
                 (A) (A) (A) (A) (A) (A) (A) (A) (A) (A) (A) (A)
                 (A) (A) (A) (A) (A) (A) (A) (A) (A) (A) (A) (A)
                 (A) (A) (A)
 The electronic state is 1-A.
 Alpha  occ. eigenvalues --  -19.20134 -14.34084 -10.27241 -10.25879 -10.24115
 Alpha  occ. eigenvalues --  -10.23181 -10.23175 -10.22766 -10.21742 -10.21559
 Alpha  occ. eigenvalues --  -10.21187 -10.21074 -10.21064 -10.20885 -10.20710
 Alpha  occ. eigenvalues --  -10.20364  -1.07005  -0.94133  -0.87643  -0.83388
 Alpha  occ. eigenvalues --   -0.79419  -0.77064  -0.76910  -0.74599  -0.71409
 Alpha  occ. eigenvalues --   -0.65536  -0.63735  -0.63215  -0.61739  -0.56346
 Alpha  occ. eigenvalues --   -0.54879  -0.52372  -0.49965  -0.49117  -0.48276
 Alpha  occ. eigenvalues --   -0.48020  -0.46686  -0.44496  -0.43963  -0.43780
 Alpha  occ. eigenvalues --   -0.43507  -0.40797  -0.40747  -0.40042  -0.38222
 Alpha  occ. eigenvalues --   -0.37622  -0.35968  -0.34766  -0.32827  -0.28322
 Alpha  occ. eigenvalues --   -0.27840  -0.27299  -0.27155  -0.26375  -0.22115
 Alpha virt. eigenvalues --   -0.06944  -0.02828  -0.02372  -0.01252  -0.00553
 Alpha virt. eigenvalues --    0.00416   0.01545   0.01969   0.02246   0.03149
 Alpha virt. eigenvalues --    0.03397   0.03829   0.03867   0.04676   0.05343
 Alpha virt. eigenvalues --    0.05350   0.06119   0.06232   0.06437   0.08057
 Alpha virt. eigenvalues --    0.08123   0.08592   0.08855   0.09217   0.09289
 Alpha virt. eigenvalues --    0.09344   0.10587   0.11215   0.11919   0.12150
 Alpha virt. eigenvalues --    0.12899   0.13080   0.13734   0.13750   0.14182
 Alpha virt. eigenvalues --    0.14202   0.14604   0.15376   0.15554   0.15608
 Alpha virt. eigenvalues --    0.16114   0.16407   0.17315   0.18172   0.18294
 Alpha virt. eigenvalues --    0.19292   0.19438   0.19898   0.20376   0.20631
 Alpha virt. eigenvalues --    0.21121   0.21869   0.22103   0.22666   0.23137
 Alpha virt. eigenvalues --    0.23286   0.23502   0.23814   0.24140   0.24744
 Alpha virt. eigenvalues --    0.25171   0.25433   0.25513   0.26069   0.26831
 Alpha virt. eigenvalues --    0.27021   0.27313   0.27941   0.28104   0.29566
 Alpha virt. eigenvalues --    0.29938   0.30669   0.31136   0.31379   0.32139
 Alpha virt. eigenvalues --    0.32582   0.32984   0.33107   0.33809   0.34969
 Alpha virt. eigenvalues --    0.35337   0.35780   0.36311   0.37027   0.38639
 Alpha virt. eigenvalues --    0.39338   0.40641   0.40925   0.43919   0.45171
 Alpha virt. eigenvalues --    0.48083   0.55298   0.55710   0.57309   0.59652
 Alpha virt. eigenvalues --    0.63583   0.65522   0.66260   0.66582   0.67329
 Alpha virt. eigenvalues --    0.67562   0.67714   0.69906   0.70036   0.70193
 Alpha virt. eigenvalues --    0.70607   0.71253   0.72164   0.73109   0.73471
 Alpha virt. eigenvalues --    0.73709   0.74731   0.75006   0.76057   0.76239
 Alpha virt. eigenvalues --    0.78019   0.78084   0.79402   0.80745   0.82261
 Alpha virt. eigenvalues --    0.83393   0.86376   0.86579   0.88846   0.89338
 Alpha virt. eigenvalues --    0.90088   0.91599   0.92649   0.93312   0.93961
 Alpha virt. eigenvalues --    0.94006   0.96396   0.96635   0.98144   0.98626
 Alpha virt. eigenvalues --    0.99552   1.01827   1.01843   1.04788   1.05536
 Alpha virt. eigenvalues --    1.06862   1.08752   1.09896   1.10488   1.13492
 Alpha virt. eigenvalues --    1.13989   1.14395   1.16931   1.17024   1.18250
 Alpha virt. eigenvalues --    1.20170   1.20493   1.21205   1.22415   1.23446
 Alpha virt. eigenvalues --    1.23617   1.25210   1.25424   1.26110   1.27524
 Alpha virt. eigenvalues --    1.29269   1.30942   1.34115   1.35886   1.36697
 Alpha virt. eigenvalues --    1.38931   1.42026   1.42397   1.42924   1.43015
 Alpha virt. eigenvalues --    1.44347   1.45434   1.48509   1.49028   1.50307
 Alpha virt. eigenvalues --    1.50779   1.50863   1.52985   1.54520   1.55669
 Alpha virt. eigenvalues --    1.57237   1.59524   1.67218   1.70916   1.75921
 Alpha virt. eigenvalues --    1.77853   1.83112   1.83254   1.85105   1.87016
 Alpha virt. eigenvalues --    1.87520   1.89713   1.89896   1.89972   1.91050
 Alpha virt. eigenvalues --    1.95347   1.95453   1.98420   1.98865   2.00004
 Alpha virt. eigenvalues --    2.01284   2.05573   2.07133   2.09085   2.10426
 Alpha virt. eigenvalues --    2.11282   2.12620   2.12729   2.14532   2.17011
 Alpha virt. eigenvalues --    2.20411   2.20471   2.22043   2.23360   2.24169
 Alpha virt. eigenvalues --    2.26713   2.27908   2.29383   2.30059   2.31105
 Alpha virt. eigenvalues --    2.33242   2.35532   2.38252   2.46977   2.49606
 Alpha virt. eigenvalues --    2.50369   2.51226   2.56624   2.60152   2.62884
 Alpha virt. eigenvalues --    2.63449   2.64703   2.66448   2.68563   2.70233
 Alpha virt. eigenvalues --    2.74498   2.75491   2.76038   2.80102   2.81765
 Alpha virt. eigenvalues --    2.82612   2.89710   2.91276   2.98158   3.00693
 Alpha virt. eigenvalues --    3.03708   3.12723   3.28271   3.31954   3.40245
 Alpha virt. eigenvalues --    3.59212   4.16724   4.21889   4.23504   4.24111
 Alpha virt. eigenvalues --    4.26192   4.26566   4.31102   4.36680   4.38675
 Alpha virt. eigenvalues --    4.39512   4.41943   4.47802   4.52948   4.64745
 Alpha virt. eigenvalues --    4.78280   4.99116
          Condensed to atoms (all electrons):
               1          2          3          4          5          6
     1  C    7.241871  -3.090739   0.498397   1.097701  -0.277543   0.483612
     2  C   -3.090739  13.490416  -0.196787  -4.989327   1.168735  -0.216222
     3  C    0.498397  -0.196787   8.408666  -2.360951   1.039262   0.059828
     4  C    1.097701  -4.989327  -2.360951  14.085319  -3.351017  -0.005351
     5  C   -0.277543   1.168735   1.039262  -3.351017   7.395645   0.023729
     6  H    0.483612  -0.216222   0.059828  -0.005351   0.023729   0.551723
     7  H   -0.045881   0.356526  -0.049470  -0.014583   0.006806  -0.001863
     8  H    0.008656  -0.023671  -0.083465   0.382192  -0.053377   0.000020
     9  H    0.020391   0.003823   0.071665  -0.239456   0.496930  -0.000041
    10  C    0.234011  -0.538404  -0.893438   1.028369  -0.205675   0.008110
    11  C    0.034216  -0.047424  -0.464635  -0.033656   0.000728   0.000233
    12  C    0.115324  -0.438177   0.024812   0.262429  -0.020059   0.000329
    13  C   -0.001075   0.091775  -0.066024  -0.062456   0.007678   0.000111
    14  C    0.009059  -0.143186  -0.295373   0.199767  -0.020537  -0.000044
    15  C    0.009757  -0.075188   0.041588   0.052656  -0.014240   0.000008
    16  H    0.000006   0.001522  -0.000778  -0.000172   0.000024   0.000000
    17  C   -0.018305   0.119481   0.297227  -0.180784   0.017458  -0.000004
    18  H    0.000026  -0.000159   0.000339   0.001596   0.000030   0.000000
    19  C    0.003725  -0.020349  -0.009246   0.013708  -0.000214   0.000001
    20  H    0.000001   0.000018  -0.000009  -0.000008  -0.000001   0.000000
    21  H   -0.000001  -0.000024  -0.000221   0.000079   0.000001   0.000000
    22  N    0.171329   0.090587  -0.022546   0.100169   0.152192  -0.087994
    23  O   -0.000001   0.000028   0.000082  -0.000051   0.000000   0.000000
    24  C    0.000010  -0.000057   0.000116   0.000071   0.000001   0.000000
    25  H    0.000000   0.000000   0.000000   0.000000   0.000000   0.000000
    26  H    0.000000   0.000000  -0.000004   0.000001   0.000000   0.000000
    27  H    0.000000   0.000000  -0.000004   0.000001   0.000000   0.000000
               7          8          9         10         11         12
     1  C   -0.045881   0.008656   0.020391   0.234011   0.034216   0.115324
     2  C    0.356526  -0.023671   0.003823  -0.538404  -0.047424  -0.438177
     3  C   -0.049470  -0.083465   0.071665  -0.893438  -0.464635   0.024812
     4  C   -0.014583   0.382192  -0.239456   1.028369  -0.033656   0.262429
     5  C    0.006806  -0.053377   0.496930  -0.205675   0.000728  -0.020059
     6  H   -0.001863   0.000020  -0.000041   0.008110   0.000233   0.000329
     7  H    0.518156  -0.000113   0.000020   0.025681   0.003937  -0.001272
     8  H   -0.000113   0.518613  -0.001837   0.045923   0.002821   0.002645
     9  H    0.000020  -0.001837   0.551917   0.001499  -0.000481   0.000092
    10  C    0.025681   0.045923   0.001499   6.635309   0.298868  -0.350383
    11  C    0.003937   0.002821  -0.000481   0.298868   6.493127   0.187981
    12  C   -0.001272   0.002645   0.000092  -0.350383   0.187981   6.259064
    13  C    0.001366   0.000192  -0.000034   0.086476   0.359510  -0.295425
    14  C    0.000213   0.001390   0.000109   0.040073  -0.733068   0.370247
    15  C   -0.000406   0.000034  -0.000004  -0.045169  -0.318674   0.968351
    16  H    0.000002   0.000000   0.000000  -0.005105   0.024528  -0.038601
    17  C    0.000086  -0.000832   0.000014  -0.198452   0.504591  -0.598554
    18  H    0.000000   0.000002   0.000000  -0.004075   0.036766  -0.026453
    19  C    0.000017   0.000034   0.000001  -0.074329  -0.249160  -0.447605
    20  H    0.000000   0.000000   0.000000   0.000879  -0.003340   0.029179
    21  H    0.000000   0.000000   0.000000   0.001055  -0.007519   0.042960
    22  N    0.005033   0.004922  -0.088255  -0.018719  -0.003214  -0.002165
    23  O    0.000000   0.000000   0.000000  -0.000406   0.000912  -0.039512
    24  C    0.000000   0.000000   0.000000  -0.002132   0.002349  -0.025150
    25  H    0.000000   0.000000   0.000000   0.000003   0.000033   0.000974
    26  H    0.000000   0.000000   0.000000   0.000000  -0.000161  -0.001844
    27  H    0.000000   0.000000   0.000000   0.000000  -0.000162  -0.001852
              13         14         15         16         17         18
     1  C   -0.001075   0.009059   0.009757   0.000006  -0.018305   0.000026
     2  C    0.091775  -0.143186  -0.075188   0.001522   0.119481  -0.000159
     3  C   -0.066024  -0.295373   0.041588  -0.000778   0.297227   0.000339
     4  C   -0.062456   0.199767   0.052656  -0.000172  -0.180784   0.001596
     5  C    0.007678  -0.020537  -0.014240   0.000024   0.017458   0.000030
     6  H    0.000111  -0.000044   0.000008   0.000000  -0.000004   0.000000
     7  H    0.001366   0.000213  -0.000406   0.000002   0.000086   0.000000
     8  H    0.000192   0.001390   0.000034   0.000000  -0.000832   0.000002
     9  H   -0.000034   0.000109  -0.000004   0.000000   0.000014   0.000000
    10  C    0.086476   0.040073  -0.045169  -0.005105  -0.198452  -0.004075
    11  C    0.359510  -0.733068  -0.318674   0.024528   0.504591   0.036766
    12  C   -0.295425   0.370247   0.968351  -0.038601  -0.598554  -0.026453
    13  C    9.971849  -1.514898  -1.952523   0.381938   0.072777   0.018687
    14  C   -1.514898  12.737111  -1.186361   0.023316  -3.443379   0.345949
    15  C   -1.952523  -1.186361  11.007608  -0.104452  -1.570826  -0.011934
    16  H    0.381938   0.023316  -0.104452   0.521113  -0.015639  -0.000154
    17  C    0.072777  -3.443379  -1.570826  -0.015639  10.346745  -0.075783
    18  H    0.018687   0.345949  -0.011934  -0.000154  -0.075783   0.522422
    19  C   -0.537718   0.088794  -0.511602   0.019527  -0.123732   0.001087
    20  H   -0.111245  -0.009046   0.358225  -0.004302   0.033478   0.000014
    21  H    0.006784   0.034318   0.003902   0.000016   0.244143  -0.004607
    22  N   -0.000071   0.000222   0.000201   0.000000   0.000293   0.000000
    23  O   -0.001850  -0.017683  -0.575754  -0.000479   0.156291  -0.000566
    24  C   -0.018356   0.115583   0.062926   0.000292  -0.146292   0.000707
    25  H    0.002021  -0.023275   0.046241   0.000000  -0.066810   0.000000
    26  H    0.001332   0.053181  -0.028882   0.000000   0.045252   0.000003
    27  H    0.001339   0.053182  -0.028901   0.000000   0.045218   0.000003
              19         20         21         22         23         24
     1  C    0.003725   0.000001  -0.000001   0.171329  -0.000001   0.000010
     2  C   -0.020349   0.000018  -0.000024   0.090587   0.000028  -0.000057
     3  C   -0.009246  -0.000009  -0.000221  -0.022546   0.000082   0.000116
     4  C    0.013708  -0.000008   0.000079   0.100169  -0.000051   0.000071
     5  C   -0.000214  -0.000001   0.000001   0.152192   0.000000   0.000001
     6  H    0.000001   0.000000   0.000000  -0.087994   0.000000   0.000000
     7  H    0.000017   0.000000   0.000000   0.005033   0.000000   0.000000
     8  H    0.000034   0.000000   0.000000   0.004922   0.000000   0.000000
     9  H    0.000001   0.000000   0.000000  -0.088255   0.000000   0.000000
    10  C   -0.074329   0.000879   0.001055  -0.018719  -0.000406  -0.002132
    11  C   -0.249160  -0.003340  -0.007519  -0.003214   0.000912   0.002349
    12  C   -0.447605   0.029179   0.042960  -0.002165  -0.039512  -0.025150
    13  C   -0.537718  -0.111245   0.006784  -0.000071  -0.001850  -0.018356
    14  C    0.088794  -0.009046   0.034318   0.000222  -0.017683   0.115583
    15  C   -0.511602   0.358225   0.003902   0.000201  -0.575754   0.062926
    16  H    0.019527  -0.004302   0.000016   0.000000  -0.000479   0.000292
    17  C   -0.123732   0.033478   0.244143   0.000293   0.156291  -0.146292
    18  H    0.001087   0.000014  -0.004607   0.000000  -0.000566   0.000707
    19  C    7.721945   0.002611  -0.024353  -0.000036   0.477751  -0.165403
    20  H    0.002611   0.513920  -0.000145   0.000000  -0.006480  -0.001692
    21  H   -0.024353  -0.000145   0.536958   0.000000  -0.012404  -0.001248
    22  N   -0.000036   0.000000   0.000000   6.868427   0.000000   0.000000
    23  O    0.477751  -0.006480  -0.012404   0.000000   8.444357   0.086206
    24  C   -0.165403  -0.001692  -0.001248   0.000000   0.086206   5.256204
    25  H    0.053998  -0.000014   0.000114   0.000000  -0.058424   0.395641
    26  H   -0.082968   0.000005  -0.000550   0.000000  -0.033221   0.384978
    27  H   -0.082925   0.000005  -0.000549   0.000000  -0.033216   0.384978
              25         26         27
     1  C    0.000000   0.000000   0.000000
     2  C    0.000000   0.000000   0.000000
     3  C    0.000000  -0.000004  -0.000004
     4  C    0.000000   0.000001   0.000001
     5  C    0.000000   0.000000   0.000000
     6  H    0.000000   0.000000   0.000000
     7  H    0.000000   0.000000   0.000000
     8  H    0.000000   0.000000   0.000000
     9  H    0.000000   0.000000   0.000000
    10  C    0.000003   0.000000   0.000000
    11  C    0.000033  -0.000161  -0.000162
    12  C    0.000974  -0.001844  -0.001852
    13  C    0.002021   0.001332   0.001339
    14  C   -0.023275   0.053181   0.053182
    15  C    0.046241  -0.028882  -0.028901
    16  H    0.000000   0.000000   0.000000
    17  C   -0.066810   0.045252   0.045218
    18  H    0.000000   0.000003   0.000003
    19  C    0.053998  -0.082968  -0.082925
    20  H   -0.000014   0.000005   0.000005
    21  H    0.000114  -0.000550  -0.000549
    22  N    0.000000   0.000000   0.000000
    23  O   -0.058424  -0.033221  -0.033216
    24  C    0.395641   0.384978   0.384978
    25  H    0.491267  -0.028135  -0.028134
    26  H   -0.028135   0.527090  -0.044580
    27  H   -0.028134  -0.044580   0.527106
 Mulliken charges:
               1
     1  C   -0.494547
     2  C    0.456804
     3  C    0.000967
     4  C    0.013754
     5  C   -0.366557
     6  H    0.183816
     7  H    0.195744
     8  H    0.195850
     9  H    0.183647
    10  C   -0.069967
    11  C   -0.089106
    12  C    0.022666
    13  C   -0.442160
    14  C   -0.685663
    15  C   -0.126583
    16  H    0.197401
    17  C    0.556336
    18  H    0.196102
    19  C   -0.053558
    20  H    0.197949
    21  H    0.181291
    22  N   -0.170372
    23  O   -0.385580
    24  C   -0.329731
    25  H    0.214502
    26  H    0.208504
    27  H    0.208491
 Sum of Mulliken charges =   0.00000
 Mulliken charges with hydrogens summed into heavy atoms:
               1
     1  C   -0.310731
     2  C    0.652548
     3  C    0.000967
     4  C    0.209604
     5  C   -0.182910
    10  C   -0.069967
    11  C   -0.089106
    12  C    0.022666
    13  C   -0.244759
    14  C   -0.489561
    15  C    0.071365
    17  C    0.737627
    19  C   -0.053558
    22  N   -0.170372
    23  O   -0.385580
    24  C    0.301766
 Electronic spatial extent (au):  <R**2>=           6800.8654
 Charge=              0.0000 electrons
 Dipole moment (field-independent basis, Debye):
    X=              4.7463    Y=             -1.2346    Z=              0.0001  Tot=              4.9042
 Quadrupole moment (field-independent basis, Debye-Ang):
   XX=            -97.9893   YY=            -81.2725   ZZ=            -98.9183
   XY=             -9.2450   XZ=              0.0011   YZ=              0.0001
 Traceless Quadrupole moment (field-independent basis, Debye-Ang):
   XX=             -5.2627   YY=             11.4542   ZZ=             -6.1916
   XY=             -9.2450   XZ=              0.0011   YZ=              0.0001
 Octapole moment (field-independent basis, Debye-Ang**2):
  XXX=            310.3428  YYY=              1.6830  ZZZ=              0.0011  XYY=             -7.0510
  XXY=            -43.6967  XXZ=              0.0022  XZZ=             12.6336  YZZ=             -0.9436
  YYZ=             -0.0001  XYZ=             -0.0047
 Hexadecapole moment (field-independent basis, Debye-Ang**3):
 XXXX=          -9064.8943 YYYY=           -602.4872 ZZZZ=           -123.7850 XXXY=           -343.5042
 XXXZ=              0.0388 YYYX=             15.2905 YYYZ=              0.0005 ZZZX=              0.0027
 ZZZY=             -0.0009 XXYY=          -1344.6358 XXZZ=          -1519.8216 YYZZ=           -142.9849
 XXYZ=              0.0054 YYXZ=             -0.0060 ZZXY=             -5.2410
 N-N= 8.821437682209D+02 E-N=-3.318012004505D+03  KE= 6.634059393571D+02
 Evaluate density.
 Using the total density.
 Monte-Carlo method of calculating molar volume:
 based on  0.001 e/bohr**3 density envelope.
 Number of points per bohr**3 =   20 CutOff= 1.00D-04
 Using the SCF density.
 There are       402 points.  Will hold       402 in memory.
 LenV=  4026292578 MDV=  4026531840.
 Box volume = 8142.215 fraction occupied=0.224
 Integrated density= 6.0507297358110101D+01 error=-4.9492702641889899D+01
 Molar volume = 1822.884 bohr**3/mol (162.672 cm**3/mol)
 Recommended a0 for SCRF calculation =  4.91 angstrom (  9.29 bohr)
 Calling FoFJK, ICntrl=      2127 FMM=F ISym2X=0 I1Cent= 0 IOpClX= 0 NMat=1 NMatS=1 NMatT=0.
 ***** Axes restored to original set *****
 -------------------------------------------------------------------
 Center     Atomic                   Forces (Hartrees/Bohr)
 Number     Number              X              Y              Z
 -------------------------------------------------------------------
      1        6           0.000519139   -0.015343334    0.000007664
      2        6          -0.000232553   -0.002785953    0.000004746
      3        6           0.003760381   -0.000144275   -0.000019678
      4        6          -0.000013975    0.002847608    0.000009781
      5        6           0.001579803    0.015241478   -0.000012323
      6        1           0.001179877    0.001414599   -0.000004514
      7        1          -0.000619351    0.001228591    0.000001716
      8        1          -0.000695260   -0.001171994   -0.000000344
      9        1           0.001072295   -0.001490973    0.000004043
     10        6          -0.004620716    0.000229337    0.000005120
     11        6           0.004480873   -0.000234380    0.000001307
     12        6          -0.002015505   -0.000008856   -0.000000460
     13        6          -0.000787640   -0.003033605   -0.000001539
     14        6          -0.000031471    0.003198743    0.000004548
     15        6           0.000614552   -0.002565481    0.000001611
     16        1           0.000434368    0.000969185   -0.000000101
     17        6           0.000762638    0.002048430   -0.000002010
     18        1           0.000314115   -0.000939296   -0.000002567
     19        6          -0.015887812   -0.000656129   -0.000001229
     20        1          -0.000235423    0.001616393   -0.000000269
     21        1          -0.000529233   -0.000823915    0.000000292
     22        7          -0.006841599    0.000227901    0.000003123
     23        8           0.006216458   -0.012621227    0.000000679
     24        6           0.011014358    0.010614699    0.000005980
     25        1          -0.000594605    0.000833447   -0.000001676
     26        1           0.000577927    0.000671909   -0.000613818
     27        1           0.000578362    0.000677098    0.000609919
 -------------------------------------------------------------------
 Cartesian Forces:  Max     0.015887812 RMS     0.004050960

 GradGradGradGradGradGradGradGradGradGradGradGradGradGradGradGradGradGrad
 Berny optimization.
 FormGI is forming the generalized inverse of G from B-inverse, IUseBI=4.
 Internal  Forces:  Max     0.017646167 RMS     0.002906409
 Search for a local minimum.
 Step number   1 out of a maximum of  136
 All quantities printed in internal units (Hartrees-Bohrs-Radians)
 Mixed Optimization -- RFO/linear search
 Second derivative matrix not updated -- first step.
 ITU=  0
     Eigenvalues ---    0.00230   0.00977   0.01015   0.01369   0.01785
     Eigenvalues ---    0.01860   0.01871   0.01934   0.01952   0.02015
     Eigenvalues ---    0.02028   0.02034   0.02047   0.02052   0.02078
     Eigenvalues ---    0.02097   0.02112   0.02130   0.02157   0.02199
     Eigenvalues ---    0.02209   0.02265   0.03745   0.04465   0.09920
     Eigenvalues ---    0.10578   0.16000   0.16000   0.16000   0.16000
     Eigenvalues ---    0.16000   0.16000   0.16000   0.16000   0.16000
     Eigenvalues ---    0.16000   0.16000   0.22000   0.22000   0.22821
     Eigenvalues ---    0.22965   0.23880   0.24000   0.25000   0.25000
     Eigenvalues ---    0.25000   0.25000   0.34062   0.34063   0.34910
     Eigenvalues ---    0.35393   0.35396   0.35443   0.35471   0.35529
     Eigenvalues ---    0.35533   0.35591   0.35672   0.37723   0.40488
     Eigenvalues ---    0.41310   0.41412   0.41745   0.42017   0.42168
     Eigenvalues ---    0.44137   0.44411   0.44617   0.45543   0.46553
     Eigenvalues ---    0.47181   0.47939   0.52282   0.53516   0.95220
 RFO step:  Lambda=-2.50271666D-03 EMin= 2.30000000D-03
 Linear search not attempted -- first point.
 Iteration  1 RMS(Cart)=  0.02320320 RMS(Int)=  0.00010254
 Iteration  2 RMS(Cart)=  0.00017819 RMS(Int)=  0.00000364
 Iteration  3 RMS(Cart)=  0.00000005 RMS(Int)=  0.00000364
 Variable       Old X    -DE/DX   Delta X   Delta X   Delta X     New X
                                 (Linear)    (Quad)   (Total)
    R1        2.63503  -0.00112   0.00000  -0.00243  -0.00243   2.63261
    R2        2.05037   0.00183   0.00000   0.00515   0.00515   2.05551
    R3        2.55828  -0.01142   0.00000  -0.02169  -0.02169   2.53658
    R4        2.67014  -0.00460   0.00000  -0.00957  -0.00957   2.66056
    R5        2.04819   0.00138   0.00000   0.00385   0.00385   2.05203
    R6        2.67018  -0.00463   0.00000  -0.00967  -0.00967   2.66051
    R7        2.68709  -0.00029   0.00000  -0.00069  -0.00069   2.68641
    R8        2.63517  -0.00118   0.00000  -0.00256  -0.00256   2.63260
    R9        2.04825   0.00136   0.00000   0.00381   0.00381   2.05206
   R10        2.05041   0.00183   0.00000   0.00513   0.00513   2.05554
   R11        2.55824  -0.01144   0.00000  -0.02174  -0.02174   2.53650
   R12        2.30616  -0.00492   0.00000  -0.00515  -0.00515   2.30101
   R13        2.68901  -0.00043   0.00000  -0.00102  -0.00102   2.68799
   R14        2.67749  -0.00229   0.00000  -0.00539  -0.00539   2.67210
   R15        2.66483  -0.00241   0.00000  -0.00552  -0.00552   2.65930
   R16        2.62294  -0.00145   0.00000  -0.00303  -0.00303   2.61991
   R17        2.04916   0.00105   0.00000   0.00294   0.00294   2.05211
   R18        2.63809  -0.00108   0.00000  -0.00230  -0.00230   2.63579
   R19        2.04962   0.00098   0.00000   0.00274   0.00274   2.05236
   R20        2.65514  -0.00142   0.00000  -0.00308  -0.00308   2.65206
   R21        2.04726   0.00152   0.00000   0.00425   0.00425   2.05151
   R22        2.65076  -0.00170   0.00000  -0.00367  -0.00367   2.64709
   R23        2.04598   0.00098   0.00000   0.00273   0.00273   2.04871
   R24        2.62004  -0.01765   0.00000  -0.03662  -0.03662   2.58342
   R25        2.74771  -0.01715   0.00000  -0.04516  -0.04516   2.70255
   R26        2.05821   0.00085   0.00000   0.00242   0.00242   2.06063
   R27        2.07224   0.00022   0.00000   0.00063   0.00063   2.07288
   R28        2.07226   0.00021   0.00000   0.00062   0.00062   2.07288
    A1        2.10409  -0.00154   0.00000  -0.00567  -0.00567   2.09842
    A2        2.15532   0.00342   0.00000   0.01340   0.01340   2.16873
    A3        2.02377  -0.00188   0.00000  -0.00773  -0.00773   2.01604
    A4        2.08049  -0.00128   0.00000  -0.00399  -0.00399   2.07650
    A5        2.10586   0.00065   0.00000   0.00203   0.00203   2.10790
    A6        2.09683   0.00063   0.00000   0.00195   0.00195   2.09879
    A7        2.04858  -0.00203   0.00000  -0.00476  -0.00476   2.04382
    A8        2.11687   0.00106   0.00000   0.00258   0.00258   2.11945
    A9        2.11774   0.00096   0.00000   0.00218   0.00218   2.11991
   A10        2.08035  -0.00123   0.00000  -0.00381  -0.00381   2.07654
   A11        2.09693   0.00061   0.00000   0.00189   0.00189   2.09883
   A12        2.10590   0.00062   0.00000   0.00192   0.00192   2.10782
   A13        2.10405  -0.00154   0.00000  -0.00562  -0.00562   2.09843
   A14        2.15540   0.00341   0.00000   0.01332   0.01331   2.16872
   A15        2.02373  -0.00187   0.00000  -0.00769  -0.00769   2.01604
   A16        2.10832  -0.00011   0.00000  -0.00030  -0.00030   2.10803
   A17        2.10923   0.00001   0.00000   0.00017   0.00017   2.10940
   A18        2.06563   0.00010   0.00000   0.00013   0.00013   2.06576
   A19        2.10762   0.00024   0.00000   0.00090   0.00091   2.10853
   A20        2.08046   0.00003   0.00000   0.00049   0.00049   2.08095
   A21        2.09510  -0.00027   0.00000  -0.00139  -0.00139   2.09371
   A22        2.11425   0.00010   0.00000   0.00033   0.00033   2.11458
   A23        2.08001   0.00011   0.00000   0.00084   0.00084   2.08085
   A24        2.08892  -0.00021   0.00000  -0.00117  -0.00117   2.08775
   A25        2.09542  -0.00024   0.00000  -0.00098  -0.00098   2.09444
   A26        2.12179  -0.00048   0.00000  -0.00322  -0.00322   2.11857
   A27        2.06598   0.00072   0.00000   0.00419   0.00419   2.07017
   A28        2.08599  -0.00017   0.00000  -0.00057  -0.00057   2.08543
   A29        2.08319   0.00011   0.00000   0.00044   0.00044   2.08362
   A30        2.11400   0.00006   0.00000   0.00013   0.00013   2.11413
   A31        2.09745  -0.00003   0.00000   0.00018   0.00018   2.09763
   A32        2.01431  -0.00004   0.00000  -0.00031  -0.00031   2.01400
   A33        2.17143   0.00007   0.00000   0.00013   0.00013   2.17155
   A34        2.04622  -0.00229   0.00000  -0.01416  -0.01416   2.03207
   A35        2.07531  -0.00588   0.00000  -0.02328  -0.02328   2.05203
   A36        1.83528  -0.00048   0.00000  -0.00302  -0.00303   1.83224
   A37        1.94031  -0.00112   0.00000  -0.00687  -0.00689   1.93342
   A38        1.94035  -0.00113   0.00000  -0.00690  -0.00692   1.93344
   A39        1.91650   0.00070   0.00000   0.00425   0.00423   1.92074
   A40        1.91647   0.00070   0.00000   0.00426   0.00425   1.92072
   A41        1.91360   0.00128   0.00000   0.00803   0.00801   1.92161
   A42        3.14030   0.00006   0.00000   0.00129   0.00129   3.14158
   A43        3.14063  -0.00010   0.00000  -0.00506  -0.00506   3.13556
   A44        3.14160   0.00000   0.00000  -0.00002  -0.00002   3.14157
   A45        3.14161   0.00000   0.00000  -0.00008  -0.00008   3.14152
    D1       -3.14148   0.00000   0.00000  -0.00013  -0.00013   3.14158
    D2        0.00012   0.00000   0.00000  -0.00012  -0.00012   0.00000
    D3        0.00005   0.00000   0.00000  -0.00004  -0.00004   0.00002
    D4       -3.14153   0.00000   0.00000  -0.00003  -0.00003  -3.14157
    D5       -0.00001   0.00000   0.00000  -0.00001  -0.00001  -0.00002
    D6        3.14152   0.00000   0.00000   0.00007   0.00007  -3.14159
    D7       -0.00009   0.00000   0.00000   0.00012   0.00012   0.00003
    D8       -3.14150   0.00000   0.00000  -0.00014  -0.00014   3.14155
    D9        3.14149   0.00000   0.00000   0.00012   0.00012  -3.14157
   D10        0.00009   0.00000   0.00000  -0.00014  -0.00014  -0.00006
   D11        0.00010   0.00000   0.00000  -0.00016  -0.00016  -0.00006
   D12       -3.14154   0.00000   0.00000  -0.00012  -0.00012   3.14152
   D13        3.14150   0.00000   0.00000   0.00010   0.00010  -3.14158
   D14       -0.00013   0.00000   0.00000   0.00014   0.00014   0.00001
   D15       -0.00028   0.00000   0.00000   0.00019   0.00019  -0.00009
   D16        3.14133   0.00000   0.00000   0.00011   0.00011   3.14144
   D17        3.14150   0.00000   0.00000  -0.00004  -0.00004   3.14146
   D18       -0.00007   0.00000   0.00000  -0.00012  -0.00012  -0.00019
   D19       -3.14153   0.00000   0.00000  -0.00006  -0.00006  -3.14159
   D20       -0.00006   0.00000   0.00000   0.00012   0.00012   0.00006
   D21        0.00010   0.00000   0.00000  -0.00010  -0.00010   0.00000
   D22        3.14157   0.00000   0.00000   0.00008   0.00008  -3.14153
   D23        0.00001   0.00000   0.00000  -0.00003  -0.00003  -0.00002
   D24        3.14149   0.00000   0.00000   0.00014   0.00014  -3.14155
   D25       -3.14159   0.00000   0.00000  -0.00001  -0.00001  -3.14159
   D26        0.00001   0.00000   0.00000   0.00000   0.00000   0.00000
   D27        0.00000   0.00000   0.00000   0.00001   0.00001   0.00000
   D28        3.14159   0.00000   0.00000   0.00001   0.00001  -3.14159
   D29        3.14157   0.00000   0.00000   0.00002   0.00002  -3.14159
   D30        0.00004   0.00000   0.00000  -0.00004  -0.00004   0.00000
   D31       -0.00001   0.00000   0.00000   0.00001   0.00001   0.00000
   D32       -3.14154   0.00000   0.00000  -0.00006  -0.00006   3.14159
   D33        0.00001   0.00000   0.00000  -0.00002  -0.00002   0.00000
   D34        3.14158   0.00000   0.00000   0.00001   0.00001   3.14159
   D35       -3.14158   0.00000   0.00000  -0.00002  -0.00002   3.14159
   D36       -0.00001   0.00000   0.00000   0.00001   0.00001   0.00000
   D37        0.00001   0.00000   0.00000  -0.00002  -0.00002  -0.00001
   D38        3.14159   0.00000   0.00000  -0.00002  -0.00002   3.14157
   D39        3.14154   0.00000   0.00000   0.00005   0.00005   3.14159
   D40       -0.00007   0.00000   0.00000   0.00005   0.00005  -0.00002
   D41       -0.00001   0.00000   0.00000   0.00001   0.00001  -0.00001
   D42        3.14157   0.00000   0.00000   0.00002   0.00002  -3.14159
   D43       -3.14158   0.00000   0.00000  -0.00002  -0.00002   3.14159
   D44        0.00000   0.00000   0.00000   0.00000   0.00000   0.00000
   D45        0.00000   0.00000   0.00000   0.00001   0.00001   0.00001
   D46       -3.14158   0.00000   0.00000  -0.00001  -0.00001  -3.14159
   D47       -3.14158   0.00000   0.00000   0.00001   0.00001  -3.14157
   D48        0.00002   0.00000   0.00000  -0.00001  -0.00001   0.00002
   D49        3.14156   0.00000   0.00000   0.00007   0.00007  -3.14156
   D50       -0.00004   0.00000   0.00000   0.00008   0.00008   0.00004
   D51        3.14141   0.00000   0.00000   0.00014   0.00014   3.14155
   D52       -1.06876  -0.00003   0.00000  -0.00016  -0.00016  -1.06892
   D53        1.06841   0.00003   0.00000   0.00044   0.00044   1.06886
         Item               Value     Threshold  Converged?
 Maximum Force            0.017646     0.000450     NO 
 RMS     Force            0.002906     0.000300     NO 
 Maximum Displacement     0.129434     0.001800     NO 
 RMS     Displacement     0.023159     0.001200     NO 
 Predicted change in Energy=-1.259371D-03
 GradGradGradGradGradGradGradGradGradGradGradGradGradGradGradGradGradGrad

                          Input orientation:                          
 ---------------------------------------------------------------------
 Center     Atomic      Atomic             Coordinates (Angstroms)
 Number     Number       Type             X           Y           Z
 ---------------------------------------------------------------------
      1          6           0        5.169631    1.038684   -0.000112
      2          6           0        3.780729    1.146946   -0.000100
      3          6           0        3.005051   -0.028015   -0.000026
      4          6           0        3.697597   -1.253783    0.000069
      5          6           0        5.090660   -1.241892    0.000005
      6          1           0        5.788665    1.933086   -0.000179
      7          1           0        3.299320    2.120290   -0.000155
      8          1           0        3.150056   -2.191536    0.000193
      9          1           0        5.646331   -2.176996    0.000075
     10          6           0        1.584329    0.021497    0.000046
     11          6           0        0.367425    0.063919    0.000086
     12          6           0       -1.053809    0.122047    0.000056
     13          6           0       -1.727196    1.365425    0.000125
     14          6           0       -1.824400   -1.055461   -0.000048
     15          6           0       -3.112405    1.422773    0.000097
     16          1           0       -1.146427    2.283003    0.000201
     17          6           0       -3.218309   -1.005686   -0.000084
     18          1           0       -1.321664   -2.018157   -0.000105
     19          6           0       -3.863840    0.237488   -0.000004
     20          1           0       -3.638959    2.372136    0.000153
     21          1           0       -3.783603   -1.930770   -0.000186
     22          7           0        5.836756   -0.126100   -0.000075
     23          8           0       -5.220795    0.403615   -0.000025
     24          6           0       -6.031911   -0.774245   -0.000084
     25          1           0       -7.059339   -0.408944   -0.000048
     26          1           0       -5.846234   -1.374514   -0.899213
     27          1           0       -5.846230   -1.374622    0.898972
 ---------------------------------------------------------------------
                    Distance matrix (angstroms):
                    1          2          3          4          5
     1  C    0.000000
     2  C    1.393115   0.000000
     3  C    2.413141   1.407909   0.000000
     4  C    2.724387   2.402168   1.407880   0.000000
     5  C    2.281943   2.724421   2.413144   1.393114   0.000000
     6  H    1.087731   2.156345   3.405058   3.811653   3.250799
     7  H    2.160540   1.085889   2.168366   3.397498   3.809616
     8  H    3.809593   3.397530   2.168375   1.085902   2.160502
     9  H    3.250821   3.811700   3.405066   2.156359   1.087744
    10  C    3.726802   2.467956   1.421584   2.468246   3.726997
    11  C    4.900137   3.581004   2.639228   3.581394   4.900417
    12  C    6.290582   4.941981   4.061633   4.946592   6.294032
    13  C    6.904562   5.512256   4.933137   6.024005   7.299402
    14  C    7.300815   6.022297   4.937534   5.525557   6.917573
    15  C    8.290937   6.898650   6.287134   7.317108   8.625005
    16  H    6.437462   5.056431   4.751376   5.997785   7.164227
    17  C    8.633480   7.322592   6.299687   6.920355   8.312326
    18  H    7.175039   6.004356   4.762471   5.077130   6.459140
    19  C    9.068931   7.698477   6.874021   7.707089   9.075883
    20  H    8.908948   7.520164   7.064248   8.183664   9.448146
    21  H    9.432817   8.166483   7.050270   7.511769   8.900961
    22  N    1.342303   2.418242   2.833403   2.418196   1.342256
    23  O   10.409816   9.032164   8.237163   9.071091  10.441926
    24  C   11.347302   9.998944   9.067720   9.741319  11.132398
    25  H   12.314354  10.951158  10.071596  10.790061  12.178517
    26  H   11.312877   9.992226   8.998158   9.586866  10.974600
    27  H   11.312895   9.992246   8.998151   9.586828  10.974577
                    6          7          8          9         10
     6  H    0.000000
     7  H    2.496374   0.000000
     8  H    4.896403   4.314409   0.000000
     9  H    4.112545   4.896440   2.496317   0.000000
    10  C    4.618507   2.710374   2.710907   4.618790   0.000000
    11  C    5.734424   3.581155   3.581915   5.734853   1.217643
    12  C    7.078087   4.789855   4.798453   7.083606   2.640054
    13  C    7.537267   5.082882   6.036519   8.180320   3.573841
    14  C    8.178641   6.028093   5.102537   7.554446   3.574811
    15  C    8.915686   6.449554   7.230605   9.469624   4.901315
    16  H    6.943914   4.448724   6.203328   8.126078   3.545623
    17  C    9.474279   7.228500   6.477833   8.941689   4.911256
    18  H    8.134439   6.203244   4.475080   6.969805   3.550350
    19  C    9.800302   7.406471   7.422594   9.811885   5.452449
    20  H    9.437842   6.942849   8.180333  10.339788   5.727849
    21  H   10.322679   8.159589   6.938561   9.433148   5.711921
    22  N    2.059747   3.388930   3.388862   2.059718   4.254987
    23  O   11.115192   8.691337   8.763901  11.169332   6.815845
    24  C   12.126651   9.769863   9.290707  11.762187   7.657697
    25  H   13.059720  10.662966  10.363850  12.828096   8.654379
    26  H   12.129277   9.831741   9.077979  11.555594   7.613855
    27  H   12.129311   9.831782   9.077903  11.555552   7.613831
                   11         12         13         14         15
    11  C    0.000000
    12  C    1.422423   0.000000
    13  C    2.466041   1.414015   0.000000
    14  C    2.461119   1.407244   2.422837   0.000000
    15  C    3.735733   2.435098   1.386395   2.792955   0.000000
    16  H    2.686277   2.162940   1.085929   3.406610   2.145941
    17  C    3.741864   2.440664   2.800997   1.394798   2.430767
    18  H    2.681056   2.156900   3.407798   1.086060   3.879014
    19  C    4.234824   2.812402   2.416090   2.414754   1.403409
    20  H    4.623742   3.427230   2.160626   3.878279   1.085611
    21  H    4.605412   3.415528   3.885063   2.145843   3.420052
    22  N    5.472631   6.895032   7.709605   7.717319   9.082207
    23  O    5.598536   4.176488   3.623578   3.696540   2.341793
    24  C    6.453993   5.058146   4.807158   4.216899   3.653821
    25  H    7.441802   6.028958   5.619621   5.274710   4.351262
    26  H    6.441071   5.100561   5.028176   4.133455   4.013403
    27  H    6.441033   5.100526   5.028144   4.133427   4.013377
                   16         17         18         19         20
    16  H    0.000000
    17  C    3.886923   0.000000
    18  H    4.304728   2.149968   0.000000
    19  C    3.401245   1.400782   3.398616   0.000000
    20  H    2.494125   3.403914   4.964326   2.146461   0.000000
    21  H    4.970974   1.084130   2.463490   2.169742   4.305336
    22  N    7.387058   9.097685   7.404246   9.707408   9.799508
    23  O    4.486934   2.448689   4.590011   1.367086   2.525328
    24  C    5.763222   2.823105   4.871729   2.392517   3.952965
    25  H    6.496853   3.887108   5.959067   3.260228   4.408333
    26  H    6.022837   2.801867   4.657726   2.708692   4.440531
    27  H    6.022803   2.801854   4.657701   2.708676   4.440508
                   21         22         23         24         25
    21  H    0.000000
    22  N    9.788163   0.000000
    23  O    2.741327  11.070232   0.000000
    24  C    2.528327  11.886352   1.430127   0.000000
    25  H    3.611979  12.899196   2.010098   1.090436   0.000000
    26  H    2.317783  11.783856   2.088410   1.096919   1.792330
    27  H    2.317804  11.783856   2.088418   1.096919   1.792317
                   26         27
    26  H    0.000000
    27  H    1.798185   0.000000
 Stoichiometry    C14H11NO
 Framework group  C1[X(C14H11NO)]
 Deg. of freedom    75
 Full point group                 C1      NOp   1
 Largest Abelian subgroup         C1      NOp   1
 Largest concise Abelian subgroup C1      NOp   1
                         Standard orientation:                         
 ---------------------------------------------------------------------
 Center     Atomic      Atomic             Coordinates (Angstroms)
 Number     Number       Type             X           Y           Z
 ---------------------------------------------------------------------
      1          6           0       -5.173389    1.042523    0.000104
      2          6           0       -3.784419    1.149907    0.000092
      3          6           0       -3.009485   -0.025543    0.000018
      4          6           0       -3.702805   -1.250873   -0.000077
      5          6           0       -5.095861   -1.238102   -0.000013
      6          1           0       -5.791858    1.937316    0.000171
      7          1           0       -3.302396    2.122948    0.000148
      8          1           0       -3.155857   -2.188973   -0.000201
      9          1           0       -5.652122   -2.172854   -0.000083
     10          6           0       -1.588732    0.023070   -0.000054
     11          6           0       -0.371801    0.064723   -0.000094
     12          6           0        1.049470    0.121953   -0.000064
     13          6           0        1.723642    1.364905   -0.000133
     14          6           0        1.819316   -1.056042    0.000040
     15          6           0        3.108887    1.421378   -0.000105
     16          1           0        1.143454    2.282850   -0.000209
     17          6           0        3.213256   -1.007148    0.000076
     18          1           0        1.315972   -2.018420    0.000097
     19          6           0        3.859573    0.235618   -0.000004
     20          1           0        3.636042    2.370408   -0.000161
     21          1           0        3.777966   -1.932589    0.000178
     22          7           0       -5.841251   -0.121838    0.000067
     23          8           0        5.216633    0.400887    0.000017
     24          6           0        6.027004   -0.777486    0.000076
     25          1           0        7.054662   -0.412834    0.000040
     26          1           0        5.840948   -1.377637    0.899206
     27          1           0        5.840944   -1.377745   -0.898980
 ---------------------------------------------------------------------
 Rotational constants (GHZ):           2.6408361           0.1577389           0.1489911
 Standard basis: 6-31+G(d) (6D, 7F)
 There are   326 symmetry adapted cartesian basis functions of A   symmetry.
 There are   326 symmetry adapted basis functions of A   symmetry.
   326 basis functions,   556 primitive gaussians,   326 cartesian basis functions
    55 alpha electrons       55 beta electrons
       nuclear repulsion energy       885.5204211906 Hartrees.
 NAtoms=   27 NActive=   27 NUniq=   27 SFac= 1.00D+00 NAtFMM=   60 NAOKFM=F Big=F
 Integral buffers will be    131072 words long.
 Raffenetti 2 integral format.
 Two-electron integral symmetry is turned on.
 Nuclear repulsion after empirical dispersion term =      885.5022727865 Hartrees.
 One-electron integrals computed using PRISM.
 NBasis=   326 RedAO= T EigKep=  1.83D-06  NBF=   326
 NBsUse=   322 1.00D-06 EigRej=  6.81D-07 NBFU=   322
 Initial guess from the checkpoint file:  "molecule_32.chk"
 B after Tr=     0.000000    0.000000    0.000000
         Rot=    1.000000    0.000004   -0.000001    0.000232 Ang=   0.03 deg.
 ExpMin= 4.38D-02 ExpMax= 5.48D+03 ExpMxC= 8.25D+02 IAcc=3 IRadAn=         5 AccDes= 0.00D+00
 Harris functional with IExCor=  402 and IRadAn=       5 diagonalized for initial guess.
 HarFok:  IExCor=  402 AccDes= 0.00D+00 IRadAn=         5 IDoV= 1 UseB2=F ITyADJ=14
 ICtDFT=  3500011 ScaDFX=  1.000000  1.000000  1.000000  1.000000
 FoFCou: FMM=F IPFlag=           0 FMFlag=      100000 FMFlg1=           0
         NFxFlg=           0 DoJE=T BraDBF=F KetDBF=T FulRan=T
         wScrn=  0.000000 ICntrl=       500 IOpCl=  0 I1Cent=   200000004 NGrid=           0
         NMat0=    1 NMatS0=      1 NMatT0=    0 NMatD0=    1 NMtDS0=    0 NMtDT0=    0
 Petite list used in FoFCou.
 Requested convergence on RMS density matrix=1.00D-08 within 128 cycles.
 Requested convergence on MAX density matrix=1.00D-06.
 Requested convergence on             energy=1.00D-06.
 No special actions if energy rises.
 SCF Done:  E(RB3LYP) =  -670.064953445     A.U. after   12 cycles
            NFock= 12  Conv=0.57D-08     -V/T= 2.0097
 Calling FoFJK, ICntrl=      2127 FMM=F ISym2X=0 I1Cent= 0 IOpClX= 0 NMat=1 NMatS=1 NMatT=0.
 ***** Axes restored to original set *****
 -------------------------------------------------------------------
 Center     Atomic                   Forces (Hartrees/Bohr)
 Number     Number              X              Y              Z
 -------------------------------------------------------------------
      1        6           0.001747792   -0.000085730   -0.000003396
      2        6          -0.000407724    0.000877276   -0.000002341
      3        6           0.000159483   -0.000033617    0.000008802
      4        6          -0.000449480   -0.000859128   -0.000003162
      5        6           0.001738371   -0.000050529    0.000005341
      6        1          -0.000367838    0.000941452    0.000000823
      7        1           0.000373399    0.000014331    0.000000453
      8        1           0.000367330   -0.000040018   -0.000001553
      9        1          -0.000430566   -0.000914389   -0.000001374
     10        6          -0.000341246    0.000010237   -0.000001771
     11        6           0.000224901    0.000162155   -0.000003563
     12        6          -0.000228733   -0.000510725    0.000002036
     13        6          -0.000117035    0.000388794    0.000000115
     14        6           0.000466439    0.000335643    0.000000155
     15        6           0.001920015    0.000186593    0.000000222
     16        1           0.000024053    0.000050033    0.000000155
     17        6           0.001083924   -0.000769809   -0.000000548
     18        1          -0.000056056   -0.000054960   -0.000000120
     19        6          -0.005261764    0.002045042   -0.000000592
     20        1           0.000097470    0.000010175   -0.000000067
     21        1           0.000840436    0.000118008    0.000000820
     22        7          -0.002174179    0.000086889   -0.000000480
     23        8           0.002535786   -0.004505265    0.000000933
     24        6           0.001042890    0.005537564    0.000000391
     25        1          -0.000861619   -0.001406288   -0.000001275
     26        1          -0.000964012   -0.000767091   -0.000098746
     27        1          -0.000962037   -0.000766642    0.000098743
 -------------------------------------------------------------------
 Cartesian Forces:  Max     0.005537564 RMS     0.001208976

 GradGradGradGradGradGradGradGradGradGradGradGradGradGradGradGradGradGrad
 Berny optimization.
 Using GEDIIS/GDIIS optimizer.
 FormGI is forming the generalized inverse of G from B-inverse, IUseBI=4.
 Internal  Forces:  Max     0.007260561 RMS     0.000886905
 Search for a local minimum.
 Step number   2 out of a maximum of  136
 All quantities printed in internal units (Hartrees-Bohrs-Radians)
 Mixed Optimization -- En-DIIS/RFO-DIIS
 Update second derivatives using D2CorX and points    1    2
 DE= -1.17D-03 DEPred=-1.26D-03 R= 9.30D-01
 TightC=F SS=  1.41D+00  RLast= 8.00D-02 DXNew= 5.0454D-01 2.4010D-01
 Trust test= 9.30D-01 RLast= 8.00D-02 DXMaxT set to 3.00D-01
 ITU=  1  0
 Use linear search instead of GDIIS.
     Eigenvalues ---    0.00230   0.00977   0.01012   0.01368   0.01786
     Eigenvalues ---    0.01860   0.01871   0.01934   0.01952   0.02015
     Eigenvalues ---    0.02028   0.02033   0.02047   0.02052   0.02078
     Eigenvalues ---    0.02097   0.02112   0.02132   0.02156   0.02199
     Eigenvalues ---    0.02209   0.02264   0.03746   0.04464   0.09988
     Eigenvalues ---    0.10625   0.15807   0.16000   0.16000   0.16000
     Eigenvalues ---    0.16000   0.16000   0.16000   0.16000   0.16000
     Eigenvalues ---    0.16000   0.16304   0.21963   0.22000   0.22342
     Eigenvalues ---    0.23024   0.23662   0.24079   0.24919   0.25000
     Eigenvalues ---    0.25000   0.26702   0.34013   0.34062   0.34862
[...]
 0.00000510,0.,-0.00001508,0.00002075,0.,-0.00074510,0.00081146,0.00000
 008,0.00052298,-0.00217823,-0.00000016,-0.00472726,-0.06800947,-0.0000
 0224,-0.07274225,0.04218926,0.00000464,0.08230342,0.03191252,-0.000002
 19,-0.04131108,-0.27176878,-0.00000610,0.00233963,0.00137461,-0.000000
 25,0.02656479,-0.28335062,-0.00000930,-0.00191938,0.00168493,-0.000000
 23,0.00550902,0.69854649,0.00000002,0.,-0.00001884,-0.00000004,-0.0000
 0001,0.00001421,0.00000016,0.,-0.00000238,-0.00000006,0.00000003,0.000
 04891,0.00000004,0.,-0.00003916,0.,0.,0.00000107,0.,0.,0.00001475,0.,0
 .,0.00001141,0.,0.,0.00000026,-0.00000033,0.00000004,0.00044486,0.0000
 0027,-0.00000005,-0.00165980,-0.00000066,-0.00000224,-0.00358287,-0.00
 000137,0.00000259,0.00115812,0.00000405,-0.00000023,0.00086082,0.00000
 211,-0.00000315,-0.06713208,0.00000060,-0.00000030,0.00809474,0.000004
 72,-0.00001209,-0.06459815,0.00000045,-0.00000019,0.00735699,-0.000020
 69,0.00001974,0.15676461,0.00003164,-0.00001817,0.,-0.00012161,0.00003
 779,0.,0.00017260,-0.00009148,0.00000001,-0.00007788,-0.00000907,0.,0.
 00003263,0.00000804,0.,-0.00001654,-0.00000586,0.,0.00000890,0.0000024
 1,0.,0.00001158,-0.00000805,0.,-0.00001008,0.00000489,0.,-0.00039003,-
 0.00002297,-0.00000002,-0.00032272,0.00130982,0.00000008,-0.00463729,-
 0.00149926,0.00000050,-0.00994821,0.02880551,0.00000160,-0.00076349,-0
 .00067039,-0.00000001,-0.12320193,0.11976362,0.00000803,0.00068577,-0.
 00029602,-0.00000024,-0.00177235,-0.00277373,0.00000014,0.00006898,0.0
 0008562,-0.00000002,0.01125367,-0.01556005,-0.00000086,0.12740882,-0.0
 0002529,-0.00000457,0.,0.00003878,0.00000480,0.,-0.00009038,-0.0000107
 9,0.00000001,0.00004206,-0.00000848,0.,-0.00002725,0.00000532,0.,0.000
 00390,0.00000395,0.,-0.00000428,-0.00000063,0.,-0.00000379,0.00000117,
 0.,0.00000356,-0.00000413,0.,0.00000447,-0.00004500,-0.00000004,-0.000
 03633,0.00013908,0.00000003,-0.00096573,0.00199820,-0.00000015,-0.0013
 1063,0.00422041,0.00000011,-0.00109237,0.00023188,0.00000007,0.1177779
 6,-0.27863538,-0.00001386,0.00032258,0.00083758,0.00000018,-0.00403616
 ,-0.00302895,-0.00000010,0.00007244,-0.00001359,0.00000003,0.01637991,
 -0.01995107,-0.00000163,-0.12853018,0.29321303,0.,0.,0.00001455,0.,0.,
 0.00001417,0.00000001,0.,-0.00003197,0.,0.,-0.00001934,0.,0.,-0.000008
 81,0.,0.,-0.00000003,0.,0.,0.00000178,0.,0.,0.00000528,0.,0.,0.0000025
 5,0.,0.00000001,-0.00021001,0.00000005,-0.00000005,0.00072149,0.000000
 46,-0.00000021,0.00736089,0.00000045,-0.00000112,0.00247696,0.,0.00000
 007,-0.00066701,0.00000795,-0.00001395,-0.03435741,-0.00000021,0.00000
 021,-0.00461019,0.00000012,-0.00000015,0.00464099,-0.00000003,0.000000
 02,-0.00074206,0.00000037,-0.00000029,0.00489168,-0.00000897,0.0000152
 4,0.02423334,0.00004000,-0.00000871,0.,-0.00008883,0.00000953,0.,0.000
 21044,0.00007659,0.00000002,-0.00013732,-0.00002475,-0.00000001,0.0000
 3964,0.00001443,0.,-0.00001126,-0.00000506,0.,0.00001255,0.00000724,0.
 ,0.00000892,-0.00000248,0.,-0.00001703,0.00000809,0.,-0.00044150,0.000
 06029,-0.00000002,-0.00035966,-0.00130223,0.,-0.00470365,0.00181346,0.
 00000059,-0.00069225,0.00081436,0.00000006,-0.01257548,-0.02899506,-0.
 00000050,-0.00134897,0.00286834,0.00000034,0.00005586,-0.00007704,-0.0
 0000003,-0.13229763,-0.12491019,-0.00000082,0.00065457,0.00029324,-0.0
 0000020,0.01308353,0.01220857,0.00000006,0.00045516,0.00080533,0.,0.14
 411849,0.00003130,0.00000394,0.,-0.00004750,-0.00000560,0.,0.00009799,
 -0.00001750,0.00000003,-0.00004262,0.00000759,0.,0.00002903,-0.0000072
 6,0.,-0.00000435,-0.00000435,0.,0.00000483,0.00000155,0.,0.00000493,-0
 .00000149,0.,-0.00000409,0.00000486,0.,-0.00001080,-0.00005316,-0.0000
 0005,0.00005962,0.00017429,0.00000002,0.00126853,0.00188916,-0.0000002
 7,0.00106238,0.00006089,-0.00000003,0.00201254,0.00500019,0.00000005,0
 .00405715,-0.00333078,-0.00000048,-0.00008749,-0.00000973,0.00000003,-
 0.12411918,-0.27097598,-0.00000426,-0.00015043,0.00097160,0.00000022,-
 0.01799873,-0.01852671,-0.00000011,-0.00091634,-0.00097448,0.,0.135743
 55,0.28350576,0.,0.,-0.00001081,0.,0.,-0.00001927,0.,0.,-0.00003613,0.
 ,0.,0.00001379,0.,0.,0.00001824,0.,0.,0.00000271,0.,0.,0.00000591,0.,0
 .,0.00000114,0.,0.,-0.00000020,0.00000002,0.,-0.00020541,0.00000004,0.
 ,0.00082397,0.00000053,-0.00000020,0.00679000,0.00000007,-0.00000002,-
 0.00048342,0.00000066,0.00000130,0.00189981,0.00000042,-0.00000045,0.0
 0507733,-0.00000004,0.00000004,-0.00083270,-0.00000081,-0.00000419,-0.
 03150735,-0.00000021,0.00000019,-0.00420488,-0.00000101,-0.00000135,0.
 00334285,-0.00000005,-0.00000008,0.00005403,0.00000035,0.00000459,0.02
 293454,-0.17657658,0.10550986,-0.00000502,-0.02557875,0.03711250,-0.00
 000233,0.00980458,-0.00312527,0.00000114,-0.03503535,-0.03315675,-0.00
 000353,-0.18986360,-0.11226842,-0.00000802,0.01466016,-0.00917671,0.00
 000093,-0.00663103,0.00011757,-0.00000080,-0.00663292,0.00046961,-0.00
 000081,0.01380765,0.00580206,0.00000103,-0.00638447,0.00025564,-0.0000
 0011,0.00411025,-0.00008545,0.00000002,-0.00122284,-0.00004741,0.,0.00
 041679,-0.00064723,0.,0.00053965,0.00064049,0.,-0.00057789,-0.00047365
 ,0.,0.00006007,-0.00000728,0.,-0.00062429,0.00055245,0.00000005,0.0000
 5891,0.00000768,0.,0.00126401,-0.00023403,-0.00000005,-0.00005233,0.00
 003995,0.,-0.00006227,-0.00004513,0.,0.40585345,0.07542605,-0.28516393
 ,0.00000184,0.09999873,0.02068637,0.00000543,-0.00311790,-0.07807776,-
 0.00000083,-0.09605499,0.03010363,-0.00000516,-0.08220744,-0.27185016,
 -0.00000661,0.01785678,-0.03373726,0.00000066,0.00045698,0.00178075,0.
 00000003,0.00014327,0.00177881,-0.00000012,-0.02122118,-0.03290221,-0.
 00000152,0.00025780,0.00077974,0.00000005,-0.00012216,0.00088490,0.000
 00001,0.00005003,-0.00004921,0.,-0.00008245,-0.00002693,0.00000002,0.0
 0004017,-0.00007956,0.,0.00006272,0.00006517,0.,-0.00001117,0.00001788
 ,0.,-0.00001200,0.00002852,0.,0.00000853,0.00001706,0.,-0.00005785,-0.
 00006934,0.,-0.00000518,-0.00000047,0.,0.00000962,0.00000293,0.,0.0085
 2297,0.64580630,-0.00000525,0.00000351,-0.06586104,-0.00000169,0.00000
 200,0.02240237,0.00000109,-0.00000088,-0.00989346,-0.00000416,-0.00000
 170,0.02238663,-0.00000776,-0.00000836,-0.06583896,0.00000117,-0.00000
 081,-0.00374232,-0.00000079,-0.00000005,0.00795512,-0.00000078,-0.0000
 0004,0.00796066,0.00000076,0.00000004,-0.00374471,-0.00000010,0.000000
 07,-0.00358443,0.00000016,0.,-0.00004362,-0.00000006,0.,0.00027470,0.0
 0000002,-0.00000004,-0.00001165,0.00000003,0.00000004,-0.00001051,-0.0
 0000003,-0.00000002,0.00000725,0.,0.,-0.00000494,-0.00000004,0.0000000
 3,0.00000748,0.,0.,-0.00000467,0.00000007,-0.00000001,-0.00000236,0.,0
 .,-0.00000476,0.,0.,-0.00000639,0.00001744,0.00000622,0.09175994,0.001
 23384,0.00016885,0.00000006,-0.00193327,-0.00025517,-0.00000013,0.0046
 6159,-0.00017668,0.00000027,-0.00191905,0.00038232,-0.00000011,0.00121
 258,-0.00026944,0.00000007,-0.00015598,-0.00015680,0.,0.00012643,0.000
 02803,0.,0.00012496,-0.00002999,0.,-0.00015035,0.00017230,0.,-0.005678
 58,0.00015115,0.00000020,0.00570475,-0.00000496,-0.00000063,-0.0081151
 8,0.00312129,0.00000044,0.00869173,-0.00371448,-0.00000014,0.00387093,
 0.00137185,0.00000027,-0.05606608,-0.01372122,0.00000206,-0.00103725,-
 0.00012771,0.00000004,-0.03827011,0.01402169,0.00000243,-0.00118755,0.
 00002431,0.00000004,-0.28584152,0.04737365,0.00001133,0.00109075,0.000
 84872,-0.00000018,0.00004321,-0.00046668,-0.00000016,-0.00169999,0.000
 07777,-0.00000010,0.52544702,0.00006648,0.00000286,0.,-0.00008988,-0.0
 0001755,0.,0.00022687,-0.00005385,0.00000003,-0.00011880,-0.00001426,-
 0.00000001,0.00005854,-0.00001553,0.,-0.00000597,-0.00000583,0.,0.0000
 1689,0.00001517,0.,0.00000838,0.00000312,0.,-0.00001587,0.00001411,0.,
 -0.00018919,-0.00002358,0.00000002,0.00015360,0.00054801,-0.00000003,0
 .00043409,0.00440601,0.00000021,0.00248997,-0.00862635,-0.00000061,-0.
 00505358,-0.00817639,-0.00000032,-0.04591983,0.00923003,0.00000195,-0.
 00172152,0.00012630,0.00000006,0.04017545,0.00189655,-0.00000181,0.001
 62945,0.00012008,-0.00000006,0.00911596,-0.11287729,-0.00000260,0.0002
 1989,0.00166312,0.00000017,-0.00194107,0.00156500,0.00000024,-0.000091
 58,0.00003195,0.,0.08322030,0.34680616,-0.00000005,0.,0.00000129,0.000
 00007,0.,0.00002180,-0.00000017,0.,0.00002632,0.00000007,-0.00000002,-
 0.00000566,-0.00000005,0.00000001,0.00000797,0.,0.,-0.00000216,0.,0.,-
 0.00000923,0.,0.,-0.00000952,0.,0.,-0.00000130,0.00000022,0.,-0.000081
 49,-0.00000022,0.00000003,-0.00033688,0.00000027,0.00000015,-0.0013671
 3,0.00000008,-0.00000036,0.00428129,-0.00000008,-0.00000061,0.00659913
 ,0.00000078,0.00000052,0.00628143,0.,0.,0.00024931,0.00000350,-0.00000
 078,0.00897165,0.00000009,0.,-0.00021066,0.00001037,-0.00000407,-0.042
 13999,-0.00000015,0.00000014,-0.00312404,-0.00000016,0.00000018,-0.002
 73836,0.00000006,0.,0.00000310,-0.00001676,0.00000449,0.06794467,-0.00
 030386,-0.00003479,-0.00000001,0.00046634,0.00007555,0.00000003,-0.001
 15014,0.00004930,-0.00000009,0.00046797,-0.00010291,0.00000003,-0.0002
 9938,0.00006194,-0.00000002,0.00003600,0.00003724,0.,-0.00003156,-0.00
 000992,0.,-0.00003110,0.00000867,0.,0.00003710,-0.00004256,0.,0.001418
 24,-0.00003035,-0.00000002,-0.00154651,-0.00004761,0.00000013,0.001817
 63,-0.00033070,-0.00000006,-0.00168453,-0.00135051,0.00000002,-0.00086
 093,-0.00200919,-0.00000009,-0.00040418,0.00518348,0.00000036,-0.00022
 385,0.00015268,0.,0.00266483,-0.00052891,-0.00000014,0.00044071,-0.000
 07011,-0.00000002,-0.04489190,-0.03388929,0.00000072,-0.00002234,-0.00
 042497,-0.00000003,-0.00243766,-0.00084171,0.00000006,0.00041631,-0.00
 002378,0.00000002,-0.11930575,-0.04123592,0.00000134,0.57486034,-0.000
 38502,-0.00004981,-0.00000002,0.00059427,0.00007823,0.00000005,-0.0014
 5593,0.00007819,-0.00000011,0.00062007,-0.00009991,0.00000004,-0.00038
 570,0.00008938,-0.00000002,0.00004643,0.00004679,0.,-0.00004234,-0.000
 01519,0.,-0.00004162,0.00000582,0.,0.00005263,-0.00005763,0.,0.0017084
 8,-0.00007328,-0.00000008,-0.00171556,-0.00007446,0.00000024,0.0021071
 4,0.00047887,-0.00000006,-0.00053861,0.00010181,-0.00000009,-0.0015830
 0,-0.00162460,-0.00000007,0.00539931,0.00167855,-0.00000024,0.00036004
 ,0.00009601,0.,0.00974912,0.00184551,-0.00000031,0.00045673,-0.0001181
 6,-0.00000003,-0.01297728,0.00532325,0.00000083,-0.00005797,0.00007566
 ,0.00000004,0.00150531,-0.00082975,-0.00000010,0.00053513,-0.00004020,
 0.00000003,-0.07207197,-0.18379279,-0.00000036,-0.08219289,0.50103192,
 0.,0.,0.00000124,0.,0.,-0.00000812,0.,0.,0.00004759,0.,0.,-0.00000606,
 0.,0.,-0.00000417,0.,0.,0.00000356,0.,0.,0.00000617,0.,0.,0.00001213,0
 .,0.,0.00000346,0.,0.,-0.00005513,0.,0.00000001,-0.00028852,0.,0.,0.00
 021976,0.00000009,-0.00000002,0.00165934,0.00000001,0.00000002,0.00034
 917,0.00000025,-0.00000025,0.00302273,0.,0.,-0.00032520,0.00000011,0.0
 0000017,-0.00133616,0.,0.,0.00002255,0.00000117,0.00000167,-0.00554300
 ,-0.00000002,0.00000005,-0.00065028,0.00000016,0.,-0.00012772,0.,0.,-0
 .00000600,0.00000071,-0.00000158,-0.06010460,-0.00000204,0.00000131,0.
 57640830,0.00005138,0.00000561,0.,-0.00008013,-0.00000844,0.,0.0001875
 3,-0.00000744,0.00000002,-0.00007946,0.00001334,0.,0.00005007,-0.00000
 928,0.,-0.00000723,-0.00000688,0.,0.00000713,0.00000253,0.,0.00000687,
 -0.00000288,0.,-0.00000677,0.00000738,0.,-0.00020580,0.00000727,0.,0.0
 0019269,0.00000710,-0.00000002,-0.00011000,0.00000503,-0.00000002,0.00
 004106,-0.00037967,0.,0.00005446,0.00011091,0.00000004,-0.00112814,0.0
 0033251,0.00000006,-0.00010403,0.00000370,0.,0.00011828,-0.00019476,-0
 .00000002,-0.00004142,0.00001102,0.,0.00181632,-0.00332997,-0.00000010
 ,0.00001605,-0.00002835,0.,0.00009937,-0.00001433,-0.00000003,-0.00007
 179,0.00000278,0.,-0.02688062,-0.00167275,0.00000114,-0.28508147,0.094
 06633,0.00001327,0.31580943,0.00000485,0.00000156,0.,-0.00000637,-0.00
 000177,0.,0.00001840,-0.00000452,0.,-0.00000691,0.00000019,0.,0.000003
 23,-0.00000160,0.,-0.00000004,-0.00000028,0.,0.00000012,-0.00000027,0.
 ,-0.00000069,0.00000128,0.,-0.00000035,0.00000042,0.,-0.00002632,-0.00
 000061,0.,0.00005707,0.00005646,0.,0.00006781,0.00016602,0.,0.00018996
 ,-0.00050953,-0.00000003,-0.00018382,0.00047560,0.00000001,-0.00158856
 ,0.00044373,0.00000008,-0.00013124,0.00001605,0.,0.00018188,-0.0012825
 9,-0.00000008,-0.00005991,-0.00000676,0.,-0.00204614,-0.00434363,-0.00
 000002,0.00005132,-0.00001671,0.,0.00038879,0.00080585,0.00000003,-0.0
 0000432,0.00000133,0.,-0.04036305,0.00426015,0.00000191,0.10760397,-0.
 08781890,-0.00000585,-0.09442412,0.09656773,0.,0.,0.00000342,0.,0.,-0.
 00000545,0.,0.,0.00000490,0.,0.,0.00000117,0.,0.,-0.00000166,0.,0.,0.0
 0000039,0.,0.,0.00000077,0.,0.,0.00000054,0.,0.,0.00000029,0.,0.,-0.00
 001011,0.,0.,-0.00001286,0.,0.,-0.00007724,0.,0.,0.00001267,0.00000001
 ,0.,0.00020021,0.00000002,0.,0.00021495,0.,0.,-0.00004351,0.,-0.000000
 05,0.00030815,0.,0.,0.00003057,-0.00000012,-0.00000001,0.00059227,0.,0
 .,0.00001858,-0.00000002,0.00000005,-0.00046333,0.,0.,-0.00000028,0.00
 000005,0.00000020,0.00054727,0.00001366,-0.00000524,-0.05318558,-0.000
 01489,0.00000570,0.04813825,-0.00000594,-0.00000185,0.00000512,0.00001
 061,-0.00000183,-0.00000657,-0.00002289,-0.00000050,0.00001943,0.00001
 102,-0.00000024,0.00000477,-0.00000814,0.00000201,-0.00000664,0.000001
 29,0.00000117,0.00000009,-0.00000114,-0.00000037,-0.00000007,-0.000001
 48,0.00000095,0.00000077,0.00000110,-0.00000114,0.00000040,0.00001160,
 -0.00001186,-0.00001685,0.00000228,0.00003881,-0.00011021,0.00003386,0
 .00089398,0.00003247,0.00089006,-0.00047504,0.00022421,-0.00083635,-0.
 00030267,0.00053748,-0.00129284,-0.00062372,0.00059756,-0.00000218,-0.
 00000442,-0.00005255,0.00011758,0.00087228,-0.00015727,-0.00000478,-0.
 00000576,-0.00004446,0.00469359,-0.00140008,-0.00216022,0.00005013,0.0
 0011802,-0.00013377,-0.00182423,0.00018887,-0.00150504,0.00001113,0.00
 000096,-0.00000023,-0.00198434,-0.01987952,-0.01886182,-0.06217153,0.0
 2811720,0.04175828,-0.00232573,0.01513657,0.02572517,0.06276987,0.0000
 7358,0.00000857,0.00000292,-0.00011465,-0.00001706,-0.00000522,0.00027
 858,-0.00001282,0.00000310,-0.00011493,0.00002336,0.00000664,0.0000719
 7,-0.00001520,-0.00000227,-0.00000899,-0.00000908,-0.00000032,0.000007
 90,0.00000227,-0.00000131,0.00000776,-0.00000164,-0.00000132,-0.000009
 17,0.00001042,-0.00000056,-0.00034449,0.00000665,-0.00000234,0.0003484
 8,0.00002161,-0.00001325,-0.00047915,0.00025454,-0.00003357,0.00054210
 ,-0.00010814,0.00023606,0.00002129,0.00008210,-0.00005155,-0.00132794,
 -0.00061667,0.00042417,-0.00005098,-0.00001939,-0.00004637,-0.00070060
 ,0.00063212,0.00038056,-0.00006443,0.00002366,0.00001455,0.00627907,-0
 .00044171,-0.00059186,0.00008789,0.00015003,-0.00018351,0.00031995,0.0
 0037156,0.00008269,-0.00010134,0.00000584,0.00000041,-0.00980289,-0.02
 854192,-0.02186181,0.02499062,-0.11816118,-0.10763561,0.00275124,-0.00
 440437,-0.00980248,-0.02047274,0.13884492,0.00002297,0.00000399,-0.000
 00073,-0.00003337,-0.00000780,0.00000137,0.00009044,-0.00001042,-0.000
 00060,-0.00003622,0.00000635,0.00000018,0.00002391,-0.00000779,0.00000
 190,-0.00000156,-0.00000216,-0.00000054,0.00000114,0.00000052,-0.00000
 127,0.00000079,0.00000162,-0.00000266,-0.00000304,0.00000354,-0.000000
 81,-0.00011234,0.00000994,-0.00000549,0.00015228,0.00005206,0.00003278
 ,-0.00015130,0.00001604,-0.00005213,0.00022953,0.00003311,-0.00001852,
 0.00016419,0.00050200,-0.00005030,-0.00057944,-0.00004620,-0.00022246,
 -0.00001970,0.00000406,0.00000883,-0.00046734,-0.00109734,-0.00003681,
 -0.00003774,-0.00000493,0.00000621,0.00192786,-0.00041176,0.00056051,0
 .00005842,0.00008384,-0.00000518,-0.00021801,0.00075885,-0.00016405,-0
 .00003074,0.00000499,0.00000141,-0.00583502,-0.00224919,0.00759833,0.0
 3839611,-0.11013378,-0.23006777,0.00014632,0.00172682,0.00186138,-0.03
 976799,0.12492186,0.24134757,-0.00000594,-0.00000185,-0.00000512,0.000
 01061,-0.00000183,0.00000657,-0.00002290,-0.00000050,-0.00001943,0.000
 01102,-0.00000024,-0.00000477,-0.00000814,0.00000201,0.00000664,0.0000
 0129,0.00000117,-0.00000009,-0.00000114,-0.00000037,0.00000007,-0.0000
 0148,0.00000095,-0.00000077,0.00000110,-0.00000114,-0.00000040,0.00001
 162,-0.00001187,0.00001684,0.00000227,0.00003881,0.00011022,0.00003388
 ,0.00089399,-0.00003240,0.00089004,-0.00047503,-0.00022433,-0.00083644
 ,-0.00030267,-0.00053743,-0.00129283,-0.00062369,-0.00059752,-0.000002
 16,-0.00000442,0.00005255,0.00011768,0.00087235,0.00015729,-0.00000477
 ,-0.00000576,0.00004446,0.00469363,-0.00140017,0.00215986,0.00005013,0
 .00011800,0.00013377,-0.00182400,0.00018867,0.00150519,0.00001113,0.00
 000096,0.00000024,-0.00198218,-0.01988040,0.01886145,-0.06217880,0.028
 12972,-0.04177197,-0.00232806,0.01513789,-0.02572387,0.00187742,-0.002
 18812,0.00607985,0.06277699,0.00007359,0.00000858,-0.00000291,-0.00011
 465,-0.00001706,0.00000521,0.00027859,-0.00001283,-0.00000304,-0.00011
 493,0.00002336,-0.00000666,0.00007197,-0.00001520,0.00000228,-0.000008
 99,-0.00000908,0.00000032,0.00000790,0.00000227,0.00000131,0.00000776,
 -0.00000164,0.00000132,-0.00000917,0.00001042,0.00000056,-0.00034450,0
 .00000666,0.00000235,0.00034850,0.00002161,0.00001318,-0.00047916,0.00
 025454,0.00003361,0.00054210,-0.00010812,-0.00023608,0.00002130,0.0000
 8212,0.00005160,-0.00132799,-0.00061665,-0.00042410,-0.00005098,-0.000
 01939,0.00004637,-0.00070067,0.00063208,-0.00038046,-0.00006443,0.0000
 2366,-0.00001454,0.00627923,-0.00044171,0.00059127,0.00008791,0.000150
 02,0.00018351,0.00031990,0.00037160,-0.00008269,-0.00010135,0.00000584
 ,-0.00000042,-0.00980119,-0.02854327,0.02186055,0.02500267,-0.11817413
 ,0.10764006,0.00275211,-0.00440482,0.00980182,-0.00218907,0.01191151,-
 0.01415825,-0.02048645,0.13885963,-0.00002296,-0.00000399,-0.00000073,
 0.00003336,0.00000780,0.00000138,-0.00009042,0.00001041,-0.00000060,0.
 00003621,-0.00000635,0.00000019,-0.00002391,0.00000779,0.00000189,0.00
 000156,0.00000216,-0.00000054,-0.00000114,-0.00000052,-0.00000127,-0.0
 0000079,-0.00000162,-0.00000266,0.00000304,-0.00000354,-0.00000081,0.0
 0011232,-0.00000993,-0.00000552,-0.00015226,-0.00005206,0.00003282,0.0
 0015127,-0.00001610,-0.00005213,-0.00022959,-0.00003308,-0.00001851,-0
 .00016410,-0.00050194,-0.00005026,0.00057947,0.00004624,-0.00022248,0.
 00001970,-0.00000406,0.00000883,0.00046727,0.00109726,-0.00003680,0.00
 003774,0.00000493,0.00000620,-0.00192785,0.00041181,0.00056056,-0.0000
 5842,-0.00008384,-0.00000518,0.00021818,-0.00075881,-0.00016430,0.0000
 3074,-0.00000499,0.00000141,0.00583526,0.00224884,0.00759746,-0.038409
 98,0.11013797,-0.23004772,-0.00014576,-0.00172859,0.00186423,-0.006082
 05,0.01416038,-0.02079116,0.03978311,-0.12492615,0.24132572\\0.0000501
 5,-0.00002216,-0.00000015,-0.00002836,0.00001376,-0.00000013,-0.000001
 23,-0.00000200,0.00000225,-0.00003206,-0.00000929,0.00000006,0.0000555
 3,0.00002109,-0.00000061,-0.00000601,0.00000780,-0.00000005,0.00000066
 ,-0.00000658,0.00000007,0.00000166,0.00000644,0.00000007,-0.00000652,-
 0.00000722,0.00000013,0.00001520,0.00000026,0.00000072,0.00000056,-0.0
 0000805,-0.00000653,-0.00002915,-0.00002650,0.00000333,-0.00001352,0.0
 0003163,0.00000066,0.00003773,0.00000897,0.00000062,0.00004334,0.00002
 255,-0.00000039,-0.00000539,-0.00000360,0.00000008,-0.00002636,0.00000
 750,-0.00000048,0.00000055,-0.00000033,0.00000010,-0.00005351,-0.00002
 376,0.00000030,-0.00000200,-0.00000496,-0.00000010,0.00001426,-0.00000
 441,-0.00000012,-0.00002327,-0.00000094,0.00000021,0.00003347,0.000042
 67,-0.00000021,-0.00000428,-0.00006292,0.00000027,-0.00000113,0.000003
 23,-0.00000002,-0.00001011,0.00000843,-0.00000218,-0.00001021,0.000008
 36,0.00000212\\\@


 Time has a wonderful way of weeding out the trivial.
                                -- Richard Ben Sapir
 Job cpu time:       0 days  2 hours  0 minutes 43.9 seconds.
 Elapsed time:       0 days  0 hours  4 minutes  1.5 seconds.
 File lengths (MBytes):  RWF=    297 Int=      0 D2E=      0 Chk=     10 Scr=      1
 Normal termination of Gaussian 16 at Mon Sep 18 04:45:41 2023.
