 Entering Gaussian System, Link 0=/home/ubuntu/g16/g16
 Input=/home/ubuntu/ML products/molecule_94.gjf
 Output=/home/ubuntu/ML products/molecule_94.log
 Initial command:
 /home/ubuntu/g16/l1.exe "/home/ubuntu/Scratch/Gau-63133.inp" -scrdir="/home/ubuntu/Scratch/"
 Entering Link 1 = /home/ubuntu/g16/l1.exe PID=     63135.
  
 Copyright (c) 1988-2017, Gaussian, Inc.  All Rights Reserved.
  
 This is part of the Gaussian(R) 16 program.  It is based on
 the Gaussian(R) 09 system (copyright 2009, Gaussian, Inc.),
 the Gaussian(R) 03 system (copyright 2003, Gaussian, Inc.),
 the Gaussian(R) 98 system (copyright 1998, Gaussian, Inc.),
 the Gaussian(R) 94 system (copyright 1995, Gaussian, Inc.),
 the Gaussian 92(TM) system (copyright 1992, Gaussian, Inc.),
 the Gaussian 90(TM) system (copyright 1990, Gaussian, Inc.),
 the Gaussian 88(TM) system (copyright 1988, Gaussian, Inc.),
 the Gaussian 86(TM) system (copyright 1986, Carnegie Mellon
 University), and the Gaussian 82(TM) system (copyright 1983,
 Carnegie Mellon University). Gaussian is a federally registered
 trademark of Gaussian, Inc.
  
 This software contains proprietary and confidential information,
 including trade secrets, belonging to Gaussian, Inc.
  
 This software is provided under written license and may be
 used, copied, transmitted, or stored only in accord with that
 written license.
  
 The following legend is applicable only to US Government
 contracts under FAR:
  
                    RESTRICTED RIGHTS LEGEND
  
 Use, reproduction and disclosure by the US Government is
 subject to restrictions as set forth in subparagraphs (a)
 and (c) of the Commercial Computer Software - Restricted
 Rights clause in FAR 52.227-19.
  
 Gaussian, Inc.
 340 Quinnipiac St., Bldg. 40, Wallingford CT 06492
  
  
 ---------------------------------------------------------------
 Warning -- This program may not be used in any manner that
 competes with the business of Gaussian, Inc. or will provide
 assistance to any competitor of Gaussian, Inc.  The licensee
 of this program is prohibited from giving any competitor of
 Gaussian, Inc. access to this program.  By using this program,
 the user acknowledges that Gaussian, Inc. is engaged in the
 business of creating and licensing software in the field of
 computational chemistry and represents and warrants to the
 licensee that it is not a competitor of Gaussian, Inc. and that
 it will not use this program in any manner prohibited above.
 ---------------------------------------------------------------
  

 Cite this work as:
 Gaussian 16, Revision B.01,
 M. J. Frisch, G. W. Trucks, H. B. Schlegel, G. E. Scuseria, 
 M. A. Robb, J. R. Cheeseman, G. Scalmani, V. Barone, 
 G. A. Petersson, H. Nakatsuji, X. Li, M. Caricato, A. V. Marenich, 
 J. Bloino, B. G. Janesko, R. Gomperts, B. Mennucci, H. P. Hratchian, 
 J. V. Ortiz, A. F. Izmaylov, J. L. Sonnenberg, D. Williams-Young, 
 F. Ding, F. Lipparini, F. Egidi, J. Goings, B. Peng, A. Petrone, 
 T. Henderson, D. Ranasinghe, V. G. Zakrzewski, J. Gao, N. Rega, 
 G. Zheng, W. Liang, M. Hada, M. Ehara, K. Toyota, R. Fukuda, 
 J. Hasegawa, M. Ishida, T. Nakajima, Y. Honda, O. Kitao, H. Nakai, 
 T. Vreven, K. Throssell, J. A. Montgomery, Jr., J. E. Peralta, 
 F. Ogliaro, M. J. Bearpark, J. J. Heyd, E. N. Brothers, K. N. Kudin, 
 V. N. Staroverov, T. A. Keith, R. Kobayashi, J. Normand, 
 K. Raghavachari, A. P. Rendell, J. C. Burant, S. S. Iyengar, 
 J. Tomasi, M. Cossi, J. M. Millam, M. Klene, C. Adamo, R. Cammi, 
 J. W. Ochterski, R. L. Martin, K. Morokuma, O. Farkas, 
 J. B. Foresman, and D. J. Fox, Gaussian, Inc., Wallingford CT, 2016.
 
 ******************************************
 Gaussian 16:  EM64L-G16RevB.01 20-Dec-2017
                15-Sep-2023 
 ******************************************
 %nprocshared=30
 Will use up to   30 processors via shared memory.
 %mem=30GB
 %chk=molecule_94.chk
 ----------------------------------------------------------------------
 # opt freq b3lyp/6-31+g(d) geom=connectivity empiricaldispersion=gd3 v
 olume
 ----------------------------------------------------------------------
 1/18=20,19=15,26=3,38=1,57=2/1,3;
 2/9=110,12=2,17=6,18=5,40=1/2;
 3/5=1,6=6,7=11,11=2,25=1,30=1,71=1,74=-5,124=31/1,2,3;
 4//1;
 5/5=2,38=5/2;
 6/7=2,8=2,9=2,10=2,28=1,44=1/1,4;
 7//1,2,3,16;
 1/18=20,19=15,26=3/3(2);
 2/9=110/2;
 99//99;
 2/9=110/2;
 3/5=1,6=6,7=11,11=2,25=1,30=1,71=1,74=-5,124=31/1,2,3;
 4/5=5,16=3,69=1/1;
 5/5=2,38=5/2;
 7//1,2,3,16;
 1/18=20,19=15,26=3/3(-5);
 2/9=110/2;
 6/7=2,8=2,9=2,10=2,19=2,28=1,44=1/1,4;
 99/9=1/99;
 -------------
 ML molecule94
 -------------
 Symbolic Z-matrix:
 Charge =  0 Multiplicity = 1
 C                    -4.74942  -0.23058  -0.40002 
 C                    -4.8202    0.23854  -1.71867 
 C                    -4.55025   1.58484  -1.99888 
 C                    -4.20951   2.46203  -0.96044 
 C                    -4.13873   1.99291   0.35822 
 C                    -4.40868   0.64661   0.63842 
 H                    -5.08036  -0.43121  -2.51155 
 H                    -3.87857   2.66266   1.15109 
 H                    -4.35464   0.28843   1.64524 
 O                    -3.91049   3.9533   -1.27081 
 C                    -3.81752   4.69985  -2.77936 
 C                    -4.13168   3.88761  -3.87731 
 C                    -3.30395   5.98751  -2.98454 
 C                    -3.93225   4.36302  -5.18043 
 C                    -3.10452   6.46292  -4.28767 
 H                    -3.06408   6.60768  -2.14623 
 C                    -3.41867   5.65068  -5.38561 
 H                    -4.17211   3.74285  -6.01874 
 H                    -2.7124    7.44608  -4.44432 
 H                    -4.60429   1.94302  -3.0057 
 H                    -4.5238    2.90445  -3.72065 
 H                    -4.95553  -1.25851  -0.18608 
 C                    -3.19953   6.17311  -6.81762 
 H                    -2.296     5.75905  -7.21397 
 H                    -4.02504   5.88287  -7.4334 
 H                    -3.12528   7.24039  -6.80045 
 

 GradGradGradGradGradGradGradGradGradGradGradGradGradGradGradGradGradGrad
 Berny optimization.
 Initialization pass.
                           ----------------------------
                           !    Initial Parameters    !
                           ! (Angstroms and Degrees)  !
 --------------------------                            --------------------------
 ! Name  Definition              Value          Derivative Info.                !
 --------------------------------------------------------------------------------
 ! R1    R(1,2)                  1.4014         estimate D2E/DX2                !
 ! R2    R(1,6)                  1.4014         estimate D2E/DX2                !
 ! R3    R(1,22)                 1.07           estimate D2E/DX2                !
 ! R4    R(2,3)                  1.4014         estimate D2E/DX2                !
 ! R5    R(2,7)                  1.07           estimate D2E/DX2                !
 ! R6    R(3,4)                  1.4014         estimate D2E/DX2                !
 ! R7    R(3,20)                 1.07           estimate D2E/DX2                !
 ! R8    R(4,5)                  1.4014         estimate D2E/DX2                !
 ! R9    R(4,10)                 1.5523         estimate D2E/DX2                !
 ! R10   R(5,6)                  1.4014         estimate D2E/DX2                !
 ! R11   R(5,8)                  1.07           estimate D2E/DX2                !
 ! R12   R(6,9)                  1.07           estimate D2E/DX2                !
 ! R13   R(10,11)                1.6857         estimate D2E/DX2                !
 ! R14   R(11,12)                1.4014         estimate D2E/DX2                !
 ! R15   R(11,13)                1.4014         estimate D2E/DX2                !
 ! R16   R(12,14)                1.4014         estimate D2E/DX2                !
 ! R17   R(12,21)                1.07           estimate D2E/DX2                !
 ! R18   R(13,15)                1.4014         estimate D2E/DX2                !
 ! R19   R(13,16)                1.07           estimate D2E/DX2                !
 ! R20   R(14,17)                1.4014         estimate D2E/DX2                !
 ! R21   R(14,18)                1.07           estimate D2E/DX2                !
 ! R22   R(15,17)                1.4014         estimate D2E/DX2                !
 ! R23   R(15,19)                1.07           estimate D2E/DX2                !
 ! R24   R(17,23)                1.54           estimate D2E/DX2                !
 ! R25   R(23,24)                1.07           estimate D2E/DX2                !
 ! R26   R(23,25)                1.07           estimate D2E/DX2                !
 ! R27   R(23,26)                1.07           estimate D2E/DX2                !
 ! A1    A(2,1,6)              120.0            estimate D2E/DX2                !
 ! A2    A(2,1,22)             120.0            estimate D2E/DX2                !
 ! A3    A(6,1,22)             120.0            estimate D2E/DX2                !
 ! A4    A(1,2,3)              120.0            estimate D2E/DX2                !
 ! A5    A(1,2,7)              120.0            estimate D2E/DX2                !
 ! A6    A(3,2,7)              120.0            estimate D2E/DX2                !
 ! A7    A(2,3,4)              120.0            estimate D2E/DX2                !
 ! A8    A(2,3,20)             120.0            estimate D2E/DX2                !
 ! A9    A(4,3,20)             120.0            estimate D2E/DX2                !
 ! A10   A(3,4,5)              120.0            estimate D2E/DX2                !
 ! A11   A(3,4,10)             120.0            estimate D2E/DX2                !
 ! A12   A(5,4,10)             120.0            estimate D2E/DX2                !
 ! A13   A(4,5,6)              120.0            estimate D2E/DX2                !
 ! A14   A(4,5,8)              120.0            estimate D2E/DX2                !
 ! A15   A(6,5,8)              120.0            estimate D2E/DX2                !
 ! A16   A(1,6,5)              120.0            estimate D2E/DX2                !
 ! A17   A(1,6,9)              120.0            estimate D2E/DX2                !
 ! A18   A(5,6,9)              120.0            estimate D2E/DX2                !
 ! A19   A(4,10,11)            127.9526         estimate D2E/DX2                !
 ! A20   A(10,11,12)           115.5989         estimate D2E/DX2                !
 ! A21   A(10,11,13)           123.9281         estimate D2E/DX2                !
 ! A22   A(12,11,13)           120.0            estimate D2E/DX2                !
 ! A23   A(11,12,14)           120.0            estimate D2E/DX2                !
 ! A24   A(11,12,21)           120.0            estimate D2E/DX2                !
 ! A25   A(14,12,21)           120.0            estimate D2E/DX2                !
 ! A26   A(11,13,15)           120.0            estimate D2E/DX2                !
 ! A27   A(11,13,16)           120.0            estimate D2E/DX2                !
 ! A28   A(15,13,16)           120.0            estimate D2E/DX2                !
 ! A29   A(12,14,17)           120.0            estimate D2E/DX2                !
 ! A30   A(12,14,18)           120.0            estimate D2E/DX2                !
 ! A31   A(17,14,18)           120.0            estimate D2E/DX2                !
 ! A32   A(13,15,17)           120.0            estimate D2E/DX2                !
 ! A33   A(13,15,19)           120.0            estimate D2E/DX2                !
 ! A34   A(17,15,19)           120.0            estimate D2E/DX2                !
 ! A35   A(14,17,15)           120.0            estimate D2E/DX2                !
 ! A36   A(14,17,23)           120.0            estimate D2E/DX2                !
 ! A37   A(15,17,23)           120.0            estimate D2E/DX2                !
 ! A38   A(17,23,24)           109.4712         estimate D2E/DX2                !
 ! A39   A(17,23,25)           109.4712         estimate D2E/DX2                !
 ! A40   A(17,23,26)           109.4712         estimate D2E/DX2                !
 ! A41   A(24,23,25)           109.4713         estimate D2E/DX2                !
 ! A42   A(24,23,26)           109.4712         estimate D2E/DX2                !
 ! A43   A(25,23,26)           109.4712         estimate D2E/DX2                !
 ! D1    D(6,1,2,3)              0.0001         estimate D2E/DX2                !
 ! D2    D(6,1,2,7)           -179.9998         estimate D2E/DX2                !
 ! D3    D(22,1,2,3)          -179.9999         estimate D2E/DX2                !
 ! D4    D(22,1,2,7)             0.0002         estimate D2E/DX2                !
 ! D5    D(2,1,6,5)             -0.0001         estimate D2E/DX2                !
 ! D6    D(2,1,6,9)            179.9998         estimate D2E/DX2                !
 ! D7    D(22,1,6,5)           179.9999         estimate D2E/DX2                !
 ! D8    D(22,1,6,9)            -0.0002         estimate D2E/DX2                !
 ! D9    D(1,2,3,4)              0.0001         estimate D2E/DX2                !
 ! D10   D(1,2,3,20)          -179.9999         estimate D2E/DX2                !
 ! D11   D(7,2,3,4)            179.9999         estimate D2E/DX2                !
 ! D12   D(7,2,3,20)            -0.0001         estimate D2E/DX2                !
 ! D13   D(2,3,4,5)             -0.0002         estimate D2E/DX2                !
 ! D14   D(2,3,4,10)           179.9998         estimate D2E/DX2                !
 ! D15   D(20,3,4,5)           179.9998         estimate D2E/DX2                !
 ! D16   D(20,3,4,10)           -0.0002         estimate D2E/DX2                !
 ! D17   D(3,4,5,6)              0.0001         estimate D2E/DX2                !
 ! D18   D(3,4,5,8)           -180.0            estimate D2E/DX2                !
 ! D19   D(10,4,5,6)          -179.9999         estimate D2E/DX2                !
 ! D20   D(10,4,5,8)             0.0            estimate D2E/DX2                !
 ! D21   D(3,4,10,11)           -5.2547         estimate D2E/DX2                !
 ! D22   D(5,4,10,11)          174.7453         estimate D2E/DX2                !
 ! D23   D(4,5,6,1)              0.0            estimate D2E/DX2                !
 ! D24   D(4,5,6,9)           -179.9999         estimate D2E/DX2                !
 ! D25   D(8,5,6,1)           -179.9999         estimate D2E/DX2                !
 ! D26   D(8,5,6,9)              0.0002         estimate D2E/DX2                !
 ! D27   D(4,10,11,12)           4.3564         estimate D2E/DX2                !
 ! D28   D(4,10,11,13)        -167.7268         estimate D2E/DX2                !
 ! D29   D(10,11,12,14)       -172.4167         estimate D2E/DX2                !
 ! D30   D(10,11,12,21)          7.5833         estimate D2E/DX2                !
 ! D31   D(13,11,12,14)          0.0002         estimate D2E/DX2                !
 ! D32   D(13,11,12,21)       -179.9998         estimate D2E/DX2                !
 ! D33   D(10,11,13,15)        171.7535         estimate D2E/DX2                !
 ! D34   D(10,11,13,16)         -8.2466         estimate D2E/DX2                !
 ! D35   D(12,11,13,15)          0.0            estimate D2E/DX2                !
 ! D36   D(12,11,13,16)        179.9999         estimate D2E/DX2                !
 ! D37   D(11,12,14,17)         -0.0002         estimate D2E/DX2                !
 ! D38   D(11,12,14,18)        179.9998         estimate D2E/DX2                !
 ! D39   D(21,12,14,17)        179.9998         estimate D2E/DX2                !
 ! D40   D(21,12,14,18)         -0.0002         estimate D2E/DX2                !
 ! D41   D(11,13,15,17)         -0.0001         estimate D2E/DX2                !
 ! D42   D(11,13,15,19)        179.9999         estimate D2E/DX2                !
 ! D43   D(16,13,15,17)        179.9999         estimate D2E/DX2                !
 ! D44   D(16,13,15,19)          0.0            estimate D2E/DX2                !
 ! D45   D(12,14,17,15)          0.0001         estimate D2E/DX2                !
 ! D46   D(12,14,17,23)       -179.9999         estimate D2E/DX2                !
 ! D47   D(18,14,17,15)       -179.9999         estimate D2E/DX2                !
 ! D48   D(18,14,17,23)          0.0001         estimate D2E/DX2                !
 ! D49   D(13,15,17,14)          0.0001         estimate D2E/DX2                !
 ! D50   D(13,15,17,23)       -179.9999         estimate D2E/DX2                !
 ! D51   D(19,15,17,14)       -180.0            estimate D2E/DX2                !
 ! D52   D(19,15,17,23)          0.0            estimate D2E/DX2                !
 ! D53   D(14,17,23,24)        -78.804          estimate D2E/DX2                !
 ! D54   D(14,17,23,25)         41.196          estimate D2E/DX2                !
 ! D55   D(14,17,23,26)        161.196          estimate D2E/DX2                !
 ! D56   D(15,17,23,24)        101.196          estimate D2E/DX2                !
 ! D57   D(15,17,23,25)       -138.804          estimate D2E/DX2                !
 ! D58   D(15,17,23,26)        -18.804          estimate D2E/DX2                !
 --------------------------------------------------------------------------------
 Trust Radius=3.00D-01 FncErr=1.00D-07 GrdErr=1.00D-06 EigMax=2.50D+02 EigMin=1.00D-04
 Number of steps in this run=    138 maximum allowed number of steps=    156.
 GradGradGradGradGradGradGradGradGradGradGradGradGradGradGradGradGradGrad

                          Input orientation:                          
 ---------------------------------------------------------------------
 Center     Atomic      Atomic             Coordinates (Angstroms)
 Number     Number       Type             X           Y           Z
 ---------------------------------------------------------------------
      1          6           0       -4.749416   -0.230579   -0.400021
      2          6           0       -4.820199    0.238538   -1.718672
      3          6           0       -4.550247    1.584841   -1.998879
      4          6           0       -4.209510    2.462026   -0.960435
      5          6           0       -4.138728    1.992910    0.358216
      6          6           0       -4.408682    0.646607    0.638423
      7          1           0       -5.080361   -0.431212   -2.511547
      8          1           0       -3.878568    2.662660    1.151091
      9          1           0       -4.354640    0.288426    1.645243
     10          8           0       -3.910486    3.953296   -1.270814
     11          6           0       -3.817523    4.699853   -2.779363
     12          6           0       -4.131676    3.887607   -3.877310
     13          6           0       -3.303947    5.987511   -2.984541
     14          6           0       -3.932249    4.363019   -5.180435
     15          6           0       -3.104523    6.462923   -4.287666
     16          1           0       -3.064085    6.607679   -2.146234
     17          6           0       -3.418674    5.650677   -5.385613
     18          1           0       -4.172109    3.742850   -6.018741
     19          1           0       -2.712397    7.446079   -4.444324
     20          1           0       -4.604292    1.943023   -3.005698
     21          1           0       -4.523805    2.904453   -3.720651
     22          1           0       -4.955530   -1.258512   -0.186077
     23          6           0       -3.199525    6.173108   -6.817619
     24          1           0       -2.295995    5.759053   -7.213968
     25          1           0       -4.025037    5.882867   -7.433403
     26          1           0       -3.125278    7.240390   -6.800450
 ---------------------------------------------------------------------
                    Distance matrix (angstroms):
                    1          2          3          4          5
     1  C    0.000000
     2  C    1.401400   0.000000
     3  C    2.427296   1.401400   0.000000
     4  C    2.802800   2.427296   1.401400   0.000000
     5  C    2.427296   2.802800   2.427296   1.401400   0.000000
     6  C    1.401400   2.427296   2.802800   2.427296   1.401400
     7  H    2.146700   1.070000   2.146700   3.396345   3.872800
     8  H    3.396345   3.872800   3.396345   2.146700   1.070000
     9  H    2.146700   3.396345   3.872800   3.396345   2.146700
    10  O    4.355100   3.850660   2.559092   1.552300   2.559092
    11  C    5.553274   4.694012   3.293833   2.910330   4.156335
    12  C    5.425182   4.295286   3.001072   3.247537   4.640001
    13  C    6.887218   6.078827   4.680630   4.164864   5.275199
    14  C    6.679914   5.457435   4.268781   4.636706   6.027993
    15  C    7.913434   6.948831   5.578920   5.319647   6.529535
    16  H    7.256127   6.620627   5.240161   4.461452   5.359405
    17  C    7.824077   6.685954   5.411233   5.511362   6.847577
    18  H    6.905899   5.584874   4.578131   5.218081   6.612790
    19  H    8.912739   7.988783   6.611506   6.262556   7.405125
    20  H    3.396345   2.146700   1.070000   2.146700   3.396345
    21  H    4.572298   3.347069   2.169464   2.813062   4.197184
    22  H    1.070000   2.146700   3.396345   3.872800   3.396345
    23  C    9.197550   7.990304   6.789469   7.007053   8.357557
    24  H    9.398129   8.188160   7.050024   7.323837   8.655488
    25  H    9.347053   8.071485   6.948591   7.323626   8.709421
    26  H    9.970893   8.816074   7.554526   7.623260   8.933624
                    6          7          8          9         10
     6  C    0.000000
     7  H    3.396345   0.000000
     8  H    2.146700   4.942800   0.000000
     9  H    1.070000   4.280590   2.471400   0.000000
    10  O    3.850660   4.704459   2.744520   4.704459   0.000000
    11  C    5.334748   5.290965   4.427454   6.271070   1.685736
    12  C    5.565309   4.627906   5.181638   6.595635   2.616688
    13  C    6.547638   6.676779   5.337441   7.417441   2.728146
    14  C    6.920825   5.605869   6.556091   7.960565   3.931091
    15  C    7.732834   7.388345   6.679913   8.653706   4.006145
    16  H    6.715403   7.331085   5.205662   7.481563   2.920360
    17  C    7.893659   6.928985   7.201962   8.891721   4.478231
    18  H    7.345783   5.527036   7.256685   8.408509   4.759784
    19  H    8.657051   8.449532   7.453169   9.540010   4.868893
    20  H    3.872800   2.471400   4.280590   4.942800   2.744520
    21  H    4.910464   3.591427   4.920231   5.972021   2.734581
    22  H    2.146700   2.471400   4.280590   2.471400   5.425100
    23  C    9.359318   8.105358   8.734110  10.372261   6.016649
    24  H    9.605238   8.257411   9.059051  10.613736   6.417820
    25  H    9.629121   8.075021   9.169772  10.669031   6.458627
    26  H   10.023071   9.003917   9.205980  11.007764   6.480618
                   11         12         13         14         15
    11  C    0.000000
    12  C    1.401400   0.000000
    13  C    1.401400   2.427296   0.000000
    14  C    2.427296   1.401400   2.802800   0.000000
    15  C    2.427296   2.802800   1.401400   2.427296   0.000000
    16  H    2.146700   3.396345   1.070000   3.872800   2.146700
    17  C    2.802800   2.427296   2.427296   1.401400   1.401400
    18  H    3.396345   2.146700   3.872800   1.070000   3.396345
    19  H    3.396345   3.872800   2.146700   3.396345   1.070000
    20  H    2.875821   2.182769   4.248439   3.322273   4.931759
    21  H    2.146700   1.070000   3.396345   2.146700   3.872800
    22  H    6.597143   6.386429   7.941283   7.588960   8.936992
    23  C    4.342800   3.838989   3.838989   2.548270   2.548270
    24  H    4.806524   4.243267   4.353873   2.959982   3.116471
    25  H    4.806524   4.078999   4.508136   2.719267   3.328584
    26  H    4.806525   4.560564   4.020297   3.399253   2.630393
                   16         17         18         19         20
    16  H    0.000000
    17  C    3.396345   0.000000
    18  H    4.942800   2.146700   0.000000
    19  H    2.471400   2.146700   4.280590   0.000000
    20  H    4.986976   4.562498   3.536183   5.994376   0.000000
    21  H    4.280590   3.396345   2.471400   4.942800   1.200826
    22  H    8.324466   8.782596   7.723169   9.946568   4.280590
    23  C    4.693509   1.540000   2.736837   2.736837   5.864957
    24  H    5.195387   2.148263   3.002240   3.269613   6.131872
    25  H    5.422447   2.148263   2.569547   3.619565   5.955038
    26  H    4.697424   2.148263   3.733592   2.400855   6.682045
                   21         22         23         24         25
    21  H    0.000000
    22  H    5.478127   0.000000
    23  C    4.693509  10.113845   0.000000
    24  H    5.031415  10.281565   1.070000   0.000000
    25  H    4.785838  10.217085   1.070000   1.747303   0.000000
    26  H    5.499218  10.923877   1.070000   1.747303   1.747303
                   26
    26  H    0.000000
 Stoichiometry    C13H12O
 Framework group  C1[X(C13H12O)]
 Deg. of freedom    72
 Full point group                 C1      NOp   1
 Largest Abelian subgroup         C1      NOp   1
 Largest concise Abelian subgroup C1      NOp   1
                         Standard orientation:                         
 ---------------------------------------------------------------------
 Center     Atomic      Atomic             Coordinates (Angstroms)
 Number     Number       Type             X           Y           Z
 ---------------------------------------------------------------------
      1          6           0       -4.292295   -0.965466    0.121673
      2          6           0       -3.058343   -1.616075   -0.012466
      3          6           0       -1.876906   -0.867132   -0.097405
      4          6           0       -1.929421    0.532419   -0.048202
      5          6           0       -3.163372    1.183028    0.085936
      6          6           0       -4.344809    0.434086    0.170873
      7          1           0       -3.018247   -2.684663   -0.050035
      8          1           0       -3.203468    2.251616    0.123503
      9          1           0       -5.286959    0.930840    0.273289
     10          8           0       -0.620769    1.362005   -0.142283
     11          6           0        0.965929    0.794234   -0.183932
     12          6           0        1.109584   -0.599260   -0.222127
     13          6           0        2.093354    1.610697   -0.022001
     14          6           0        2.380664   -1.176291   -0.098387
     15          6           0        3.364435    1.033666    0.101736
     16          1           0        1.983670    2.674661    0.007161
     17          6           0        3.508090   -0.359828    0.063543
     18          1           0        2.490348   -2.240255   -0.127547
     19          1           0        4.225249    1.657054    0.225373
     20          1           0       -0.934757   -1.363887   -0.199825
     21          1           0        0.248770   -1.222647   -0.345768
     22          1           0       -5.194348   -1.537300    0.186527
     23          6           0        4.904882   -0.993928    0.199519
     24          1           0        5.035844   -1.357713    1.197221
     25          1           0        4.996697   -1.805997   -0.491144
     26          1           0        5.652602   -0.258652   -0.013044
 ---------------------------------------------------------------------
 Rotational constants (GHZ):           2.1641810           0.3002069           0.2649881
 Standard basis: 6-31+G(d) (6D, 7F)
 There are   290 symmetry adapted cartesian basis functions of A   symmetry.
 There are   290 symmetry adapted basis functions of A   symmetry.
   290 basis functions,   496 primitive gaussians,   290 cartesian basis functions
    49 alpha electrons       49 beta electrons
       nuclear repulsion energy       766.9607430129 Hartrees.
 NAtoms=   26 NActive=   26 NUniq=   26 SFac= 1.00D+00 NAtFMM=   60 NAOKFM=F Big=F
 Integral buffers will be    131072 words long.
 Raffenetti 2 integral format.
 Two-electron integral symmetry is turned on.
 Nuclear repulsion after empirical dispersion term =      766.9422952421 Hartrees.
 One-electron integrals computed using PRISM.
 NBasis=   290 RedAO= T EigKep=  1.43D-06  NBF=   290
 NBsUse=   289 1.00D-06 EigRej=  4.44D-07 NBFU=   289
 ExpMin= 4.38D-02 ExpMax= 5.48D+03 ExpMxC= 8.25D+02 IAcc=3 IRadAn=         5 AccDes= 0.00D+00
 Harris functional with IExCor=  402 and IRadAn=       5 diagonalized for initial guess.
 HarFok:  IExCor=  402 AccDes= 0.00D+00 IRadAn=         5 IDoV= 1 UseB2=F ITyADJ=14
 ICtDFT=  3500011 ScaDFX=  1.000000  1.000000  1.000000  1.000000
 FoFCou: FMM=F IPFlag=           0 FMFlag=      100000 FMFlg1=           0
         NFxFlg=           0 DoJE=T BraDBF=F KetDBF=T FulRan=T
         wScrn=  0.000000 ICntrl=       500 IOpCl=  0 I1Cent=   200000004 NGrid=           0
         NMat0=    1 NMatS0=      1 NMatT0=    0 NMatD0=    1 NMtDS0=    0 NMtDT0=    0
 Petite list used in FoFCou.
 Requested convergence on RMS density matrix=1.00D-08 within 128 cycles.
 Requested convergence on MAX density matrix=1.00D-06.
 Requested convergence on             energy=1.00D-06.
 No special actions if energy rises.
 SCF Done:  E(RB3LYP) =  -577.776664447     A.U. after   15 cycles
            NFock= 15  Conv=0.59D-08     -V/T= 2.0104

 **********************************************************************

            Population analysis using the SCF Density.

 **********************************************************************

 Orbital symmetries:
       Occupied  (A) (A) (A) (A) (A) (A) (A) (A) (A) (A) (A) (A)
                 (A) (A) (A) (A) (A) (A) (A) (A) (A) (A) (A) (A)
                 (A) (A) (A) (A) (A) (A) (A) (A) (A) (A) (A) (A)
                 (A) (A) (A) (A) (A) (A) (A) (A) (A) (A) (A) (A)
                 (A)
       Virtual   (A) (A) (A) (A) (A) (A) (A) (A) (A) (A) (A) (A)
                 (A) (A) (A) (A) (A) (A) (A) (A) (A) (A) (A) (A)
                 (A) (A) (A) (A) (A) (A) (A) (A) (A) (A) (A) (A)
                 (A) (A) (A) (A) (A) (A) (A) (A) (A) (A) (A) (A)
                 (A) (A) (A) (A) (A) (A) (A) (A) (A) (A) (A) (A)
                 (A) (A) (A) (A) (A) (A) (A) (A) (A) (A) (A) (A)
                 (A) (A) (A) (A) (A) (A) (A) (A) (A) (A) (A) (A)
                 (A) (A) (A) (A) (A) (A) (A) (A) (A) (A) (A) (A)
                 (A) (A) (A) (A) (A) (A) (A) (A) (A) (A) (A) (A)
                 (A) (A) (A) (A) (A) (A) (A) (A) (A) (A) (A) (A)
                 (A) (A) (A) (A) (A) (A) (A) (A) (A) (A) (A) (A)
                 (A) (A) (A) (A) (A) (A) (A) (A) (A) (A) (A) (A)
                 (A) (A) (A) (A) (A) (A) (A) (A) (A) (A) (A) (A)
                 (A) (A) (A) (A) (A) (A) (A) (A) (A) (A) (A) (A)
                 (A) (A) (A) (A) (A) (A) (A) (A) (A) (A) (A) (A)
                 (A) (A) (A) (A) (A) (A) (A) (A) (A) (A) (A) (A)
                 (A) (A) (A) (A) (A) (A) (A) (A) (A) (A) (A) (A)
                 (A) (A) (A) (A) (A) (A) (A) (A) (A) (A) (A) (A)
                 (A) (A) (A) (A) (A) (A) (A) (A) (A) (A) (A) (A)
                 (A) (A) (A) (A) (A) (A) (A) (A) (A) (A) (A) (A)
 The electronic state is 1-A.
 Alpha  occ. eigenvalues --  -19.17956 -10.27492 -10.26585 -10.21420 -10.21340
 Alpha  occ. eigenvalues --  -10.20844 -10.20562 -10.20508 -10.20327 -10.20187
 Alpha  occ. eigenvalues --  -10.20171 -10.19696 -10.19543 -10.18894  -0.96527
 Alpha  occ. eigenvalues --   -0.87169  -0.85564  -0.78280  -0.76790  -0.75602
 Alpha  occ. eigenvalues --   -0.74409  -0.69554  -0.63855  -0.61472  -0.60466
 Alpha  occ. eigenvalues --   -0.59634  -0.53305  -0.52027  -0.48122  -0.47985
 Alpha  occ. eigenvalues --   -0.46553  -0.45979  -0.44832  -0.43716  -0.43453
 Alpha  occ. eigenvalues --   -0.41999  -0.40611  -0.39252  -0.38243  -0.37417
 Alpha  occ. eigenvalues --   -0.37268  -0.36093  -0.33906  -0.32263  -0.31221
 Alpha  occ. eigenvalues --   -0.26904  -0.26206  -0.25950  -0.22694
 Alpha virt. eigenvalues --   -0.03026  -0.02934  -0.01571  -0.01505  -0.00490
 Alpha virt. eigenvalues --    0.00614   0.00979   0.01894   0.02336   0.03057
 Alpha virt. eigenvalues --    0.04392   0.04742   0.04988   0.05751   0.06239
 Alpha virt. eigenvalues --    0.06343   0.06925   0.07379   0.07972   0.08189
 Alpha virt. eigenvalues --    0.08846   0.09479   0.10385   0.10558   0.11498
 Alpha virt. eigenvalues --    0.12373   0.12726   0.12968   0.13098   0.13635
 Alpha virt. eigenvalues --    0.13984   0.14119   0.14588   0.14764   0.15712
 Alpha virt. eigenvalues --    0.15846   0.16256   0.17522   0.17694   0.17883
 Alpha virt. eigenvalues --    0.18110   0.18952   0.20110   0.20188   0.20622
 Alpha virt. eigenvalues --    0.20796   0.21329   0.21550   0.22033   0.22706
 Alpha virt. eigenvalues --    0.22873   0.22942   0.24038   0.24748   0.25056
 Alpha virt. eigenvalues --    0.25686   0.25745   0.26555   0.26698   0.27135
 Alpha virt. eigenvalues --    0.27861   0.28365   0.28900   0.29105   0.29683
 Alpha virt. eigenvalues --    0.30175   0.30912   0.31409   0.32409   0.32741
 Alpha virt. eigenvalues --    0.32843   0.34352   0.34721   0.35354   0.35450
 Alpha virt. eigenvalues --    0.37197   0.37719   0.39207   0.40322   0.40917
 Alpha virt. eigenvalues --    0.42255   0.42879   0.45258   0.50828   0.55450
 Alpha virt. eigenvalues --    0.57518   0.59516   0.61334   0.62445   0.65661
 Alpha virt. eigenvalues --    0.66020   0.66737   0.67721   0.67948   0.69463
 Alpha virt. eigenvalues --    0.70123   0.71019   0.71641   0.72569   0.73525
 Alpha virt. eigenvalues --    0.73618   0.74007   0.74407   0.76382   0.76700
 Alpha virt. eigenvalues --    0.76858   0.77374   0.78234   0.78890   0.79763
 Alpha virt. eigenvalues --    0.80420   0.82113   0.82801   0.84172   0.87355
 Alpha virt. eigenvalues --    0.89984   0.90914   0.93728   0.94021   0.94649
 Alpha virt. eigenvalues --    0.95375   0.96891   0.98581   0.99287   1.02410
 Alpha virt. eigenvalues --    1.02546   1.04270   1.08141   1.09738   1.11486
 Alpha virt. eigenvalues --    1.12043   1.13306   1.13675   1.14096   1.15526
 Alpha virt. eigenvalues --    1.16971   1.19098   1.19857   1.21132   1.21884
 Alpha virt. eigenvalues --    1.22421   1.24007   1.24696   1.25714   1.28519
 Alpha virt. eigenvalues --    1.29560   1.31689   1.33795   1.35219   1.37606
 Alpha virt. eigenvalues --    1.39260   1.41169   1.43824   1.43991   1.44607
 Alpha virt. eigenvalues --    1.46283   1.46739   1.47462   1.48419   1.48900
 Alpha virt. eigenvalues --    1.49691   1.51244   1.51416   1.56429   1.63509
 Alpha virt. eigenvalues --    1.72217   1.77354   1.78671   1.81349   1.82271
 Alpha virt. eigenvalues --    1.83626   1.85534   1.85871   1.87723   1.91527
 Alpha virt. eigenvalues --    1.92134   1.96264   1.96590   1.97913   1.98413
 Alpha virt. eigenvalues --    1.98629   2.00887   2.03524   2.07837   2.10778
 Alpha virt. eigenvalues --    2.12399   2.12846   2.13939   2.14206   2.16129
 Alpha virt. eigenvalues --    2.17006   2.18730   2.22003   2.22445   2.25268
 Alpha virt. eigenvalues --    2.27188   2.28877   2.29250   2.29585   2.30342
 Alpha virt. eigenvalues --    2.34573   2.38425   2.39278   2.40157   2.48056
 Alpha virt. eigenvalues --    2.49522   2.60806   2.62668   2.62921   2.63280
 Alpha virt. eigenvalues --    2.63576   2.66760   2.72572   2.73048   2.73290
 Alpha virt. eigenvalues --    2.78054   2.78944   2.79504   2.80742   2.87472
 Alpha virt. eigenvalues --    2.93975   3.01449   3.07122   3.07655   3.39541
 Alpha virt. eigenvalues --    3.41306   4.21507   4.23489   4.26078   4.27997
 Alpha virt. eigenvalues --    4.29105   4.32024   4.36060   4.38107   4.39473
 Alpha virt. eigenvalues --    4.41758   4.45721   4.48402   4.71952   4.73682
          Condensed to atoms (all electrons):
               1          2          3          4          5          6
     1  C    5.325644   0.185371   0.125827  -0.649857   0.307599   0.407764
     2  C    0.185371   9.200262  -3.619626   0.501914  -0.198784   0.370271
     3  C    0.125827  -3.619626  11.213538  -0.579785  -1.150083  -0.639085
     4  C   -0.649857   0.501914  -0.579785   9.404038  -2.855777   0.084150
     5  C    0.307599  -0.198784  -1.150083  -2.855777  10.249645   0.242527
     6  C    0.407764   0.370271  -0.639085   0.084150   0.242527   5.407242
     7  H   -0.041964   0.351718  -0.027591   0.039306  -0.038892   0.011464
     8  H    0.019780  -0.036663   0.077372   0.012946   0.286435  -0.066436
     9  H   -0.011197   0.020222  -0.021623   0.026646  -0.038299   0.319661
    10  O   -0.019248   0.025659  -0.144436   0.335692  -0.187490   0.027793
    11  C    0.022009  -0.266291   0.056787  -0.367970   0.548242  -0.050526
    12  C   -0.012200   0.259840  -0.031833   0.357112  -0.292705   0.052559
    13  C    0.010720  -0.441626  -0.299827   0.224443   0.181217  -0.046037
    14  C   -0.021940   0.076056   0.343244  -0.366345  -0.548546   0.022963
    15  C    0.000761   0.048152   0.114795   0.006911  -0.049505  -0.002312
    16  H    0.000031  -0.000074   0.003322  -0.004432  -0.002443  -0.000204
    17  C    0.002454  -0.011899  -0.030930  -0.055052   0.008558  -0.001278
    18  H    0.000143   0.004400  -0.001609  -0.003834  -0.000628   0.000029
    19  H   -0.000003   0.000049   0.000175   0.000144  -0.000081   0.000007
    20  H    0.008708  -0.000744   0.101083   0.054765   0.060640   0.004412
    21  H   -0.007577  -0.014032  -0.031015   0.056416   0.007845   0.004085
    22  H    0.297567  -0.028403   0.053147  -0.010146   0.015145  -0.035173
    23  C   -0.000128  -0.003658   0.000652  -0.042295  -0.005457   0.000000
    24  H    0.000000  -0.000006  -0.000057   0.000083   0.000023   0.000000
    25  H    0.000000   0.000015   0.000134  -0.000165  -0.000016   0.000000
    26  H    0.000000   0.000002   0.000044  -0.000070  -0.000003   0.000000
               7          8          9         10         11         12
     1  C   -0.041964   0.019780  -0.011197  -0.019248   0.022009  -0.012200
     2  C    0.351718  -0.036663   0.020222   0.025659  -0.266291   0.259840
     3  C   -0.027591   0.077372  -0.021623  -0.144436   0.056787  -0.031833
     4  C    0.039306   0.012946   0.026646   0.335692  -0.367970   0.357112
     5  C   -0.038892   0.286435  -0.038299  -0.187490   0.548242  -0.292705
     6  C    0.011464  -0.066436   0.319661   0.027793  -0.050526   0.052559
     7  H    0.541197   0.000016  -0.000180  -0.000294  -0.003854  -0.002396
     8  H    0.000016   0.520263  -0.005359  -0.004427  -0.003001   0.001795
     9  H   -0.000180  -0.005359   0.530451  -0.000156   0.000353   0.000139
    10  O   -0.000294  -0.004427  -0.000156   8.392472   0.271063   0.047725
    11  C   -0.003854  -0.003001   0.000353   0.271063  10.340367  -0.128588
    12  C   -0.002396   0.001795   0.000139   0.047725  -0.128588  12.844238
    13  C   -0.000529   0.000339  -0.000096  -0.252023  -3.236446  -1.759047
    14  C    0.004371  -0.000028   0.000059  -0.050581  -0.127023  -6.066894
    15  C    0.000042  -0.000146   0.000004   0.043010   0.721767   0.513816
    16  H    0.000000  -0.000001   0.000000  -0.002209   0.023598   0.047389
    17  C    0.000094   0.000059  -0.000001  -0.021438  -1.332093   0.774714
    18  H    0.000000   0.000000   0.000000  -0.000197   0.022641  -0.028015
    19  H    0.000000   0.000000   0.000000  -0.000129   0.032667  -0.021674
    20  H   -0.009011  -0.000196   0.000015  -0.011865   0.026090   0.007312
    21  H    0.000301   0.000005   0.000000  -0.011320   0.058717   0.060304
    22  H   -0.004658  -0.000153  -0.004836   0.000066   0.000676  -0.000503
    23  C    0.000000   0.000001   0.000000  -0.004458  -0.378525  -0.978094
    24  H    0.000000   0.000000   0.000000  -0.000006  -0.003767   0.016763
    25  H    0.000000   0.000000   0.000000   0.000001   0.006061  -0.022945
    26  H    0.000000   0.000000   0.000000   0.000000  -0.002284  -0.015991
              13         14         15         16         17         18
     1  C    0.010720  -0.021940   0.000761   0.000031   0.002454   0.000143
     2  C   -0.441626   0.076056   0.048152  -0.000074  -0.011899   0.004400
     3  C   -0.299827   0.343244   0.114795   0.003322  -0.030930  -0.001609
     4  C    0.224443  -0.366345   0.006911  -0.004432  -0.055052  -0.003834
     5  C    0.181217  -0.548546  -0.049505  -0.002443   0.008558  -0.000628
     6  C   -0.046037   0.022963  -0.002312  -0.000204  -0.001278   0.000029
     7  H   -0.000529   0.004371   0.000042   0.000000   0.000094   0.000000
     8  H    0.000339  -0.000028  -0.000146  -0.000001   0.000059   0.000000
     9  H   -0.000096   0.000059   0.000004   0.000000  -0.000001   0.000000
    10  O   -0.252023  -0.050581   0.043010  -0.002209  -0.021438  -0.000197
    11  C   -3.236446  -0.127023   0.721767   0.023598  -1.332093   0.022641
    12  C   -1.759047  -6.066894   0.513816   0.047389   0.774714  -0.028015
    13  C   11.414505   0.394577  -1.315080   0.313686   0.843495  -0.048725
    14  C    0.394577  14.012062  -1.599919  -0.024758  -1.273675   0.253467
    15  C   -1.315080  -1.599919   8.070828  -0.082282   0.144958   0.070043
    16  H    0.313686  -0.024758  -0.082282   0.512969   0.012885   0.000018
    17  C    0.843495  -1.273675   0.144958   0.012885   7.741916   0.019621
    18  H   -0.048725   0.253467   0.070043   0.000018   0.019621   0.543666
    19  H   -0.044234   0.050250   0.281533  -0.004967   0.002430  -0.000170
    20  H    0.003294  -0.056074   0.006089   0.000004   0.006759   0.000314
    21  H    0.031106   0.073063   0.006958  -0.000206  -0.026632  -0.008403
    22  H    0.000067  -0.000141  -0.000002   0.000000  -0.000003   0.000000
    23  C    0.422788   1.000823  -0.443664   0.004237  -1.108694  -0.005917
    24  H    0.009279  -0.052941   0.011334   0.000003  -0.072366   0.000604
    25  H   -0.007928   0.023857   0.024122   0.000002  -0.115394   0.001746
    26  H   -0.000392   0.037214  -0.020832  -0.000005  -0.136605   0.000066
              19         20         21         22         23         24
     1  C   -0.000003   0.008708  -0.007577   0.297567  -0.000128   0.000000
     2  C    0.000049  -0.000744  -0.014032  -0.028403  -0.003658  -0.000006
     3  C    0.000175   0.101083  -0.031015   0.053147   0.000652  -0.000057
     4  C    0.000144   0.054765   0.056416  -0.010146  -0.042295   0.000083
     5  C   -0.000081   0.060640   0.007845   0.015145  -0.005457   0.000023
     6  C    0.000007   0.004412   0.004085  -0.035173   0.000000   0.000000
     7  H    0.000000  -0.009011   0.000301  -0.004658   0.000000   0.000000
     8  H    0.000000  -0.000196   0.000005  -0.000153   0.000001   0.000000
     9  H    0.000000   0.000015   0.000000  -0.004836   0.000000   0.000000
    10  O   -0.000129  -0.011865  -0.011320   0.000066  -0.004458  -0.000006
    11  C    0.032667   0.026090   0.058717   0.000676  -0.378525  -0.003767
    12  C   -0.021674   0.007312   0.060304  -0.000503  -0.978094   0.016763
    13  C   -0.044234   0.003294   0.031106   0.000067   0.422788   0.009279
    14  C    0.050250  -0.056074   0.073063  -0.000141   1.000823  -0.052941
    15  C    0.281533   0.006089   0.006958  -0.000002  -0.443664   0.011334
    16  H   -0.004967   0.000004  -0.000206   0.000000   0.004237   0.000003
    17  C    0.002430   0.006759  -0.026632  -0.000003  -1.108694  -0.072366
    18  H   -0.000170   0.000314  -0.008403   0.000000  -0.005917   0.000604
    19  H    0.532253   0.000000   0.000016   0.000000  -0.017483   0.000307
    20  H    0.000000   0.669262  -0.004594  -0.000200  -0.000991   0.000000
    21  H    0.000016  -0.004594   0.651868   0.000001   0.002945   0.000001
    22  H    0.000000  -0.000200   0.000001   0.541563   0.000000   0.000000
    23  C   -0.017483  -0.000991   0.002945   0.000000   7.048458   0.425588
    24  H    0.000307   0.000000   0.000001   0.000000   0.425588   0.490802
    25  H    0.000073   0.000000   0.000003   0.000000   0.432885  -0.030178
    26  H    0.003719   0.000000   0.000003   0.000000   0.481099  -0.026879
              25         26
     1  C    0.000000   0.000000
     2  C    0.000015   0.000002
     3  C    0.000134   0.000044
     4  C   -0.000165  -0.000070
     5  C   -0.000016  -0.000003
     6  C    0.000000   0.000000
     7  H    0.000000   0.000000
     8  H    0.000000   0.000000
     9  H    0.000000   0.000000
    10  O    0.000001   0.000000
    11  C    0.006061  -0.002284
    12  C   -0.022945  -0.015991
    13  C   -0.007928  -0.000392
    14  C    0.023857   0.037214
    15  C    0.024122  -0.020832
    16  H    0.000002  -0.000005
    17  C   -0.115394  -0.136605
    18  H    0.001746   0.000066
    19  H    0.000073   0.003719
    20  H    0.000000   0.000000
    21  H    0.000003   0.000003
    22  H    0.000000   0.000000
    23  C    0.432885   0.481099
    24  H   -0.030178  -0.026879
    25  H    0.497413  -0.025844
    26  H   -0.025844   0.499507
 Mulliken charges:
               1
     1  C    0.049737
     2  C   -0.422125
     3  C    0.487381
     4  C   -0.168840
     5  C   -0.539167
     6  C   -0.113875
     7  H    0.180860
     8  H    0.197397
     9  H    0.184198
    10  O   -0.433202
    11  C   -0.230673
    12  C    0.377178
    13  C   -0.397525
    14  C   -0.103139
    15  C   -0.551380
    16  H    0.203436
    17  C    0.628118
    18  H    0.180739
    19  H    0.185119
    20  H    0.134928
    21  H    0.150142
    22  H    0.175986
    23  C   -0.830112
    24  H    0.231413
    25  H    0.216157
    26  H    0.207250
 Sum of Mulliken charges =   0.00000
 Mulliken charges with hydrogens summed into heavy atoms:
               1
     1  C    0.225723
     2  C   -0.241265
     3  C    0.622308
     4  C   -0.168840
     5  C   -0.341770
     6  C    0.070322
    10  O   -0.433202
    11  C   -0.230673
    12  C    0.527320
    13  C   -0.194088
    14  C    0.077600
    15  C   -0.366261
    17  C    0.628118
    23  C   -0.175292
 Electronic spatial extent (au):  <R**2>=           3988.7866
 Charge=              0.0000 electrons
 Dipole moment (field-independent basis, Debye):
    X=              1.4158    Y=             -1.6291    Z=              0.2740  Tot=              2.1756
 Quadrupole moment (field-independent basis, Debye-Ang):
   XX=            -66.1001   YY=            -76.5594   ZZ=            -89.7131
   XY=              0.9078   XZ=              0.0550   YZ=              1.0066
 Traceless Quadrupole moment (field-independent basis, Debye-Ang):
   XX=             11.3574   YY=              0.8981   ZZ=            -12.2556
   XY=              0.9078   XZ=              0.0550   YZ=              1.0066
 Octapole moment (field-independent basis, Debye-Ang**2):
  XXX=             -0.4363  YYY=             -0.8907  ZZZ=              0.7053  XYY=              2.4145
  XXY=              8.3163  XXZ=              9.2639  XZZ=              7.0132  YZZ=              0.5672
  YYZ=              0.3345  XYZ=             -0.3412
 Hexadecapole moment (field-independent basis, Debye-Ang**3):
 XXXX=          -4315.7357 YYYY=           -684.9160 ZZZZ=           -125.3383 XXXY=             -1.0219
 XXXZ=            -11.3742 YYYX=             13.0107 YYYZ=              5.7907 ZZZX=              7.6337
 ZZZY=             -1.7324 XXYY=           -832.0824 XXZZ=           -883.8684 YYZZ=           -155.5661
 XXYZ=              5.3828 YYXZ=             -1.7673 ZZXY=            -11.8639
 N-N= 7.669422952421D+02 E-N=-2.873126110988D+03  KE= 5.718349716079D+02
 Evaluate density.
 Using the total density.
 Monte-Carlo method of calculating molar volume:
 based on  0.001 e/bohr**3 density envelope.
 Number of points per bohr**3 =   20 CutOff= 1.00D-04
 Using the SCF density.
 There are       401 points.  Will hold       401 in memory.
 LenV=  4026329556 MDV=  4026531840.
 Box volume = 8063.261 fraction occupied=0.229
 Integrated density= 8.3821716401097078D+01 error=-1.4178283598902922D+01
 Molar volume = 1849.925 bohr**3/mol (165.085 cm**3/mol)
 Recommended a0 for SCRF calculation =  4.94 angstrom (  9.33 bohr)
 Calling FoFJK, ICntrl=      2127 FMM=F ISym2X=0 I1Cent= 0 IOpClX= 0 NMat=1 NMatS=1 NMatT=0.
 ***** Axes restored to original set *****
 -------------------------------------------------------------------
 Center     Atomic                   Forces (Hartrees/Bohr)
 Number     Number              X              Y              Z
 -------------------------------------------------------------------
      1        6           0.002009191    0.010366774   -0.003313092
      2        6           0.004654860    0.010425148    0.016825969
      3        6          -0.001264505   -0.011501770    0.014470442
      4        6           0.007263829    0.048093877   -0.040675666
      5        6           0.000822717    0.008371185   -0.007136225
      6        6          -0.001776588    0.005782038   -0.021170924
      7        1          -0.002885801   -0.006752550   -0.009599408
      8        1           0.003091047    0.008702826    0.007457501
      9        1           0.001056414   -0.002223002    0.011460534
     10        8          -0.002953453   -0.005760198   -0.023931242
     11        6          -0.002930140   -0.058452023    0.029882857
     12        6           0.002963901    0.016970742   -0.005418608
     13        6          -0.004036608   -0.012521664    0.018273092
     14        6           0.003621740    0.014154363    0.019592283
     15        6          -0.011883166   -0.024197038    0.003085468
     16        1           0.003625364    0.005887858    0.010069073
     17        6           0.002491343    0.007276476   -0.017887158
     18        1          -0.003334671   -0.007581549   -0.009106346
     19        1           0.003875035    0.011025461    0.000333909
     20        1          -0.002245519   -0.021243977    0.012722998
     21        1           0.000674728    0.018210597   -0.016392460
     22        1          -0.002321535   -0.011628743    0.002524631
     23        6          -0.005611343   -0.011123305    0.033675911
     24        1           0.015024572   -0.005690605   -0.009709392
     25        1          -0.011800380   -0.003512594   -0.012726817
     26        1           0.001868966    0.016921674   -0.003307328
 -------------------------------------------------------------------
 Cartesian Forces:  Max     0.058452023 RMS     0.014965098

 GradGradGradGradGradGradGradGradGradGradGradGradGradGradGradGradGradGrad
 Berny optimization.
 FormGI is forming the generalized inverse of G from B-inverse, IUseBI=4.
 Internal  Forces:  Max     0.167457972 RMS     0.024579269
 Search for a local minimum.
 Step number   1 out of a maximum of  138
 All quantities printed in internal units (Hartrees-Bohrs-Radians)
 Mixed Optimization -- RFO/linear search
 Second derivative matrix not updated -- first step.
 ITU=  0
     Eigenvalues ---    0.00230   0.00230   0.00237   0.01335   0.01736
     Eigenvalues ---    0.01791   0.02070   0.02070   0.02070   0.02070
     Eigenvalues ---    0.02070   0.02070   0.02070   0.02070   0.02070
     Eigenvalues ---    0.02070   0.02070   0.02070   0.02070   0.02070
     Eigenvalues ---    0.02070   0.07243   0.07243   0.16000   0.16000
     Eigenvalues ---    0.16000   0.16000   0.16000   0.16000   0.16000
     Eigenvalues ---    0.16000   0.16000   0.16000   0.16000   0.16000
     Eigenvalues ---    0.18708   0.22000   0.22000   0.22000   0.22966
     Eigenvalues ---    0.23485   0.23969   0.24759   0.25000   0.25000
     Eigenvalues ---    0.25000   0.27457   0.28519   0.37230   0.37230
     Eigenvalues ---    0.37230   0.37230   0.37230   0.37230   0.37230
     Eigenvalues ---    0.37230   0.37230   0.37230   0.37230   0.37230
     Eigenvalues ---    0.41268   0.41268   0.41459   0.41631   0.45389
     Eigenvalues ---    0.45389   0.45389   0.45389   0.45389   0.45389
     Eigenvalues ---    0.45389   0.45389
 RFO step:  Lambda=-1.80453238D-01 EMin= 2.30000000D-03
 Linear search not attempted -- first point.
 Maximum step size (   0.300) exceeded in Quadratic search.
    -- Step size scaled by   0.465
 Iteration  1 RMS(Cart)=  0.24233478 RMS(Int)=  0.01338992
 Iteration  2 RMS(Cart)=  0.14527353 RMS(Int)=  0.00333777
 Iteration  3 RMS(Cart)=  0.00789494 RMS(Int)=  0.00013654
 Iteration  4 RMS(Cart)=  0.00000453 RMS(Int)=  0.00013654
 Iteration  5 RMS(Cart)=  0.00000000 RMS(Int)=  0.00013654
 Variable       Old X    -DE/DX   Delta X   Delta X   Delta X     New X
                                 (Linear)    (Quad)   (Total)
    R1        2.64826  -0.00966   0.00000  -0.00712  -0.00712   2.64114
    R2        2.64826  -0.00949   0.00000  -0.00715  -0.00715   2.64111
    R3        2.02201   0.01212   0.00000   0.01020   0.01020   2.03220
    R4        2.64826  -0.00115   0.00000  -0.00068  -0.00069   2.64758
    R5        2.02201   0.01204   0.00000   0.01013   0.01013   2.03214
    R6        2.64826   0.00406   0.00000   0.00317   0.00317   2.65143
    R7        2.02201  -0.01897   0.00000  -0.01596  -0.01596   2.00605
    R8        2.64826  -0.00625   0.00000  -0.00455  -0.00454   2.64372
    R9        2.93342  -0.04179   0.00000  -0.04270  -0.04270   2.89073
   R10        2.64826  -0.00539   0.00000  -0.00411  -0.00410   2.64416
   R11        2.02201   0.01172   0.00000   0.00986   0.00986   2.03187
   R12        2.02201   0.01158   0.00000   0.00974   0.00974   2.03175
   R13        3.18558  -0.05087   0.00000  -0.06435  -0.06435   3.12123
   R14        2.64826  -0.00359   0.00000  -0.00261  -0.00261   2.64565
   R15        2.64826  -0.01344   0.00000  -0.00996  -0.00996   2.63830
   R16        2.64826  -0.00161   0.00000  -0.00106  -0.00106   2.64720
   R17        2.02201  -0.01938   0.00000  -0.01630  -0.01630   2.00571
   R18        2.64826  -0.00380   0.00000  -0.00291  -0.00291   2.64535
   R19        2.02201   0.01211   0.00000   0.01019   0.01019   2.03220
   R20        2.64826  -0.00675   0.00000  -0.00484  -0.00484   2.64342
   R21        2.02201   0.01228   0.00000   0.01033   0.01033   2.03233
   R22        2.64826  -0.00751   0.00000  -0.00552  -0.00552   2.64275
   R23        2.02201   0.01150   0.00000   0.00967   0.00967   2.03168
   R24        2.91018  -0.00860   0.00000  -0.00859  -0.00859   2.90159
   R25        2.02201   0.01849   0.00000   0.01555   0.01555   2.03756
   R26        2.02201   0.01738   0.00000   0.01462   0.01462   2.03663
   R27        2.02201   0.01696   0.00000   0.01426   0.01426   2.03627
    A1        2.09440  -0.00721   0.00000  -0.00892  -0.00893   2.08546
    A2        2.09440   0.00371   0.00000   0.00460   0.00461   2.09900
    A3        2.09440   0.00350   0.00000   0.00432   0.00432   2.09872
    A4        2.09440   0.00588   0.00000   0.00684   0.00682   2.10122
    A5        2.09440  -0.00189   0.00000  -0.00199  -0.00198   2.09241
    A6        2.09440  -0.00399   0.00000  -0.00485  -0.00484   2.08955
    A7        2.09440   0.00275   0.00000   0.00357   0.00357   2.09797
    A8        2.09440  -0.01760   0.00000  -0.02395  -0.02395   2.07045
    A9        2.09440   0.01485   0.00000   0.02037   0.02037   2.11477
   A10        2.09440  -0.01411   0.00000  -0.01508  -0.01507   2.07933
   A11        2.09440   0.10317   0.00000   0.11135   0.11134   2.20574
   A12        2.09440  -0.08906   0.00000  -0.09627  -0.09628   1.99812
   A13        2.09440   0.00927   0.00000   0.01037   0.01038   2.10478
   A14        2.09440  -0.00650   0.00000  -0.00774  -0.00775   2.08665
   A15        2.09440  -0.00276   0.00000  -0.00263  -0.00264   2.09176
   A16        2.09440   0.00342   0.00000   0.00322   0.00322   2.09762
   A17        2.09440   0.00012   0.00000   0.00089   0.00089   2.09528
   A18        2.09440  -0.00354   0.00000  -0.00411  -0.00411   2.09029
   A19        2.23319   0.16746   0.00000   0.18087   0.18087   2.41406
   A20        2.01758   0.10582   0.00000   0.11541   0.11549   2.13307
   A21        2.16295  -0.09676   0.00000  -0.10462  -0.10473   2.05822
   A22        2.09440  -0.00845   0.00000  -0.00920  -0.00920   2.08519
   A23        2.09440   0.00146   0.00000   0.00158   0.00156   2.09596
   A24        2.09440   0.01308   0.00000   0.01807   0.01807   2.11246
   A25        2.09440  -0.01454   0.00000  -0.01964  -0.01964   2.07475
   A26        2.09440   0.00588   0.00000   0.00610   0.00609   2.10049
   A27        2.09440  -0.00387   0.00000  -0.00431  -0.00431   2.09008
   A28        2.09440  -0.00202   0.00000  -0.00178  -0.00178   2.09261
   A29        2.09440   0.00738   0.00000   0.00859   0.00859   2.10298
   A30        2.09440  -0.00453   0.00000  -0.00544  -0.00544   2.08896
   A31        2.09440  -0.00285   0.00000  -0.00315  -0.00315   2.09124
   A32        2.09440   0.00622   0.00000   0.00663   0.00664   2.10103
   A33        2.09440  -0.00518   0.00000  -0.00614  -0.00614   2.08825
   A34        2.09440  -0.00105   0.00000  -0.00049  -0.00050   2.09390
   A35        2.09440  -0.01249   0.00000  -0.01370  -0.01369   2.08071
   A36        2.09440   0.00554   0.00000   0.00608   0.00608   2.10047
   A37        2.09440   0.00696   0.00000   0.00761   0.00761   2.10201
   A38        1.91063   0.00306   0.00000   0.00412   0.00411   1.91474
   A39        1.91063   0.00336   0.00000   0.00459   0.00457   1.91521
   A40        1.91063   0.00395   0.00000   0.00546   0.00545   1.91608
   A41        1.91063  -0.00356   0.00000  -0.00500  -0.00501   1.90562
   A42        1.91063  -0.00350   0.00000  -0.00477  -0.00478   1.90585
   A43        1.91063  -0.00331   0.00000  -0.00440  -0.00441   1.90622
    D1        0.00000  -0.00006   0.00000  -0.00014  -0.00014  -0.00014
    D2       -3.14159  -0.00009   0.00000  -0.00022  -0.00021   3.14138
    D3       -3.14159  -0.00001   0.00000  -0.00003  -0.00003   3.14157
    D4        0.00000  -0.00005   0.00000  -0.00011  -0.00011  -0.00010
    D5        0.00000   0.00000   0.00000   0.00000   0.00000   0.00000
    D6        3.14159   0.00005   0.00000   0.00010   0.00011  -3.14149
    D7        3.14159  -0.00005   0.00000  -0.00011  -0.00011   3.14148
    D8        0.00000   0.00000   0.00000  -0.00001   0.00000  -0.00001
    D9        0.00000   0.00002   0.00000   0.00005   0.00005   0.00006
   D10       -3.14159  -0.00031   0.00000  -0.00072  -0.00071   3.14088
   D11        3.14159   0.00006   0.00000   0.00014   0.00013  -3.14146
   D12        0.00000  -0.00028   0.00000  -0.00064  -0.00063  -0.00064
   D13        0.00000   0.00007   0.00000   0.00017   0.00017   0.00016
   D14        3.14159   0.00017   0.00000   0.00040   0.00041  -3.14119
   D15        3.14159   0.00041   0.00000   0.00095   0.00095  -3.14064
   D16        0.00000   0.00051   0.00000   0.00118   0.00120   0.00119
   D17        0.00000  -0.00013   0.00000  -0.00031  -0.00031  -0.00030
   D18       -3.14159  -0.00004   0.00000  -0.00010  -0.00011   3.14149
   D19       -3.14159  -0.00023   0.00000  -0.00054  -0.00052   3.14107
   D20        0.00000  -0.00014   0.00000  -0.00033  -0.00032  -0.00032
   D21       -0.09171   0.00114   0.00000   0.00292   0.00292  -0.08880
   D22        3.04988   0.00124   0.00000   0.00315   0.00315   3.05303
   D23        0.00000   0.00010   0.00000   0.00022   0.00023   0.00023
   D24       -3.14159   0.00005   0.00000   0.00012   0.00012  -3.14147
   D25       -3.14159   0.00001   0.00000   0.00002   0.00003  -3.14157
   D26        0.00000  -0.00004   0.00000  -0.00009  -0.00008  -0.00008
   D27        0.07603   0.01124   0.00000   0.02826   0.02795   0.10398
   D28       -2.92738   0.00550   0.00000   0.01432   0.01463  -2.91276
   D29       -3.00924   0.00352   0.00000  -0.00123  -0.00206  -3.01130
   D30        0.13235   0.00551   0.00000   0.00495   0.00432   0.13668
   D31        0.00000   0.00100   0.00000   0.00345   0.00357   0.00357
   D32       -3.14159   0.00299   0.00000   0.00964   0.00995  -3.13164
   D33        2.99766   0.01150   0.00000   0.01795   0.01728   3.01494
   D34       -0.14393   0.01043   0.00000   0.01715   0.01661  -0.12732
   D35        0.00000  -0.00254   0.00000  -0.00537  -0.00534  -0.00534
   D36        3.14159  -0.00361   0.00000  -0.00617  -0.00600   3.13559
   D37        0.00000   0.00113   0.00000   0.00083   0.00067   0.00067
   D38        3.14159   0.00044   0.00000   0.00094   0.00091  -3.14068
   D39        3.14159  -0.00086   0.00000  -0.00535  -0.00558   3.13601
   D40        0.00000  -0.00154   0.00000  -0.00524  -0.00534  -0.00534
   D41        0.00000   0.00195   0.00000   0.00299   0.00288   0.00288
   D42        3.14159   0.00051   0.00000   0.00126   0.00127  -3.14032
   D43        3.14159   0.00302   0.00000   0.00379   0.00354  -3.13805
   D44        0.00000   0.00158   0.00000   0.00206   0.00194   0.00194
   D45        0.00000  -0.00172   0.00000  -0.00321  -0.00314  -0.00314
   D46       -3.14159  -0.00138   0.00000  -0.00236  -0.00228   3.13931
   D47       -3.14159  -0.00104   0.00000  -0.00332  -0.00338   3.13822
   D48        0.00000  -0.00070   0.00000  -0.00246  -0.00253  -0.00252
   D49        0.00000   0.00018   0.00000   0.00130   0.00137   0.00137
   D50       -3.14159  -0.00015   0.00000   0.00044   0.00052  -3.14107
   D51       -3.14159   0.00162   0.00000   0.00303   0.00298  -3.13861
   D52        0.00000   0.00129   0.00000   0.00218   0.00213   0.00213
   D53       -1.37539   0.00000   0.00000  -0.00011  -0.00012  -1.37551
   D54        0.71901  -0.00044   0.00000  -0.00091  -0.00092   0.71809
   D55        2.81340  -0.00002   0.00000  -0.00014  -0.00014   2.81326
   D56        1.76620   0.00033   0.00000   0.00074   0.00075   1.76695
   D57       -2.42259  -0.00010   0.00000  -0.00006  -0.00005  -2.42264
   D58       -0.32819   0.00032   0.00000   0.00071   0.00072  -0.32747
         Item               Value     Threshold  Converged?
 Maximum Force            0.167458     0.000450     NO 
 RMS     Force            0.024579     0.000300     NO 
 Maximum Displacement     1.301405     0.001800     NO 
 RMS     Displacement     0.380774     0.001200     NO 
 Predicted change in Energy=-7.268309D-02
 GradGradGradGradGradGradGradGradGradGradGradGradGradGradGradGradGradGrad

                          Input orientation:                          
 ---------------------------------------------------------------------
 Center     Atomic      Atomic             Coordinates (Angstroms)
 Number     Number       Type             X           Y           Z
 ---------------------------------------------------------------------
      1          6           0       -4.739297   -0.275084    0.030007
      2          6           0       -4.887589   -0.099595   -1.348609
      3          6           0       -4.656225    1.152716   -1.932640
      4          6           0       -4.273001    2.242803   -1.136729
      5          6           0       -4.125966    2.060790    0.242562
      6          6           0       -4.357536    0.809546    0.824465
      7          1           0       -5.180885   -0.929804   -1.965965
      8          1           0       -3.832454    2.891529    0.858857
      9          1           0       -4.240693    0.684694    1.885934
     10          8           0       -3.986151    3.664615   -1.622703
     11          6           0       -3.881215    4.481134   -3.054603
     12          6           0       -4.201859    3.883921   -4.279580
     13          6           0       -3.313666    5.756613   -3.039934
     14          6           0       -3.949675    4.562293   -5.478984
     15          6           0       -3.060514    6.431975   -4.239686
     16          1           0       -3.070712    6.221869   -2.101329
     17          6           0       -3.376364    5.838181   -5.465816
     18          1           0       -4.199320    4.097813   -6.416299
     19          1           0       -2.622032    7.413311   -4.215290
     20          1           0       -4.776453    1.254349   -2.982459
     21          1           0       -4.642382    2.919101   -4.319290
     22          1           0       -4.917432   -1.237216    0.476154
     23          6           0       -3.098614    6.577520   -6.782574
     24          1           0       -2.197728    6.192398   -7.232753
     25          1           0       -3.923179    6.433824   -7.461512
     26          1           0       -2.976541    7.630798   -6.590712
 ---------------------------------------------------------------------
                    Distance matrix (angstroms):
                    1          2          3          4          5
     1  C    0.000000
     2  C    1.397630   0.000000
     3  C    2.428476   1.401037   0.000000
     4  C    2.813976   2.430934   1.403077   0.000000
     5  C    2.424389   2.789114   2.416046   1.398998   0.000000
     6  C    1.397615   2.414486   2.794389   2.430567   1.399230
     7  H    2.146523   1.075360   2.147852   3.402547   3.864466
     8  H    3.396585   3.864329   3.390358   2.144130   1.075219
     9  H    2.148080   3.390554   3.869525   3.400771   2.146502
    10  O    4.338191   3.880334   2.618147   1.529706   2.463944
    11  C    5.733475   4.990619   3.596916   2.973526   4.097471
    12  C    6.013211   4.992917   3.629609   3.546243   4.876407
    13  C    6.916526   6.295473   4.921832   4.109668   5.009363
    14  C    7.373784   6.298641   4.970008   4.933533   6.246974
    15  C    8.126083   7.372783   5.978238   5.352348   6.350827
    16  H    7.038265   6.620312   5.314002   4.267190   4.891009
    17  C    8.332687   7.381895   6.006243   5.698394   6.885940
    18  H    7.808243   6.616149   5.383823   5.596458   6.963855
    19  H    9.034200   8.354302   6.967315   6.239983   7.126272
    20  H    3.378682   2.124848   1.061557   2.153421   3.387365
    21  H    5.397091   4.242358   2.969243   3.274525   4.670533
    22  H    1.075396   2.150542   3.403277   3.889372   3.399680
    23  C    9.801086   8.792740   7.441539   7.214188   8.414799
    24  H   10.051646   9.024837   7.715815   7.554307   8.756062
    25  H   10.089517   8.999069   7.680878   7.595387   8.861000
    26  H   10.461559   9.533663   8.153804   7.775425   8.890434
                    6          7          8          9         10
     6  C    0.000000
     7  H    3.389652   0.000000
     8  H    2.147450   4.939683   0.000000
     9  H    1.075155   4.281085   2.468130   0.000000
    10  O    3.778620   4.759611   2.603733   4.610342   0.000000
    11  C    5.362332   5.670320   4.224262   6.241080   1.651682
    12  C    5.960478   5.429849   5.246413   6.946232   2.674626
    13  C    6.363702   7.024820   4.866048   7.130772   2.614811
    14  C    7.347307   6.634780   6.555412   8.328414   3.959553
    15  C    7.677213   7.991344   6.255062   8.482175   3.919654
    16  H    6.285652   7.457720   4.520412   6.922964   2.758018
    17  C    8.112799   7.830126   6.992301   9.019630   4.457101
    18  H    7.954017   6.785711   7.383604   8.976534   4.817848
    19  H    8.486508   9.011923   6.903522   9.226011   4.757631
    20  H    3.855646   2.442816   4.281028   4.930801   2.878002
    21  H    5.566828   4.543368   5.241179   6.607476   2.873675
    22  H    2.150358   2.475451   4.286043   2.477739   5.412987
    23  C    9.629197   9.159448   8.515663  10.543850   5.991411
    24  H    9.927670   9.346874   8.890570  10.847072   6.407871
    25  H   10.023901   9.273936   9.043486  10.978527   6.462521
    26  H   10.169635   9.976539   8.870702  11.031771   6.436695
                   11         12         13         14         15
    11  C    0.000000
    12  C    1.400016   0.000000
    13  C    1.396128   2.415075   0.000000
    14  C    2.426705   1.400840   2.789243   0.000000
    15  C    2.425645   2.792282   1.399859   2.412919   0.000000
    16  H    2.143783   3.389730   1.075392   3.864624   2.148679
    17  C    2.812544   2.430582   2.428063   1.398839   1.398481
    18  H    3.398400   2.147398   3.864692   1.075464   3.388633
    19  H    3.395644   3.867373   2.145802   3.389375   1.075119
    20  H    3.349447   2.987864   4.734283   4.225955   5.597578
    21  H    2.149129   1.061374   3.384334   2.127160   3.853430
    22  H    6.799964   7.025319   7.990531   8.368663   9.192594
    23  C    4.347996   3.838958   3.837641   2.546526   2.547334
    24  H    4.818661   4.250510   4.360615   2.966862   3.124139
    25  H    4.820333   4.087096   4.514475   2.726490   3.335320
    26  H    4.821088   4.569663   4.029175   3.405680   2.640370
                   16         17         18         19         20
    16  H    0.000000
    17  C    3.400061   0.000000
    18  H    4.940074   2.146987   0.000000
    19  H    2.467728   2.147991   4.280748   0.000000
    20  H    5.325617   5.398039   4.495512   6.640348   0.000000
    21  H    4.277590   3.382063   2.446039   4.928544   2.139274
    22  H    8.105044   9.367131   8.745520  10.104955   4.264947
    23  C    4.694818   1.535454   2.737638   2.741645   6.752197
    24  H    5.205236   2.153304   3.010026   3.282642   7.007079
    25  H    5.431684   2.153277   2.574039   3.631850   6.900504
    26  H    4.706221   2.153770   3.742672   2.411557   7.544421
                   21         22         23         24         25
    21  H    0.000000
    22  H    6.351922   0.000000
    23  C    4.672795  10.819766   0.000000
    24  H    5.017875  11.046411   1.078228   0.000000
    25  H    4.769076  11.083318   1.077736   1.757214   0.000000
    26  H    5.489488  11.504318   1.077547   1.757202   1.757033
                   26
    26  H    0.000000
 Stoichiometry    C13H12O
 Framework group  C1[X(C13H12O)]
 Deg. of freedom    72
 Full point group                 C1      NOp   1
 Largest Abelian subgroup         C1      NOp   1
 Largest concise Abelian subgroup C1      NOp   1
                         Standard orientation:                         
 ---------------------------------------------------------------------
 Center     Atomic      Atomic             Coordinates (Angstroms)
 Number     Number       Type             X           Y           Z
 ---------------------------------------------------------------------
      1          6           0       -4.615768   -0.601388    0.147503
      2          6           0       -3.561285   -1.514813    0.063295
      3          6           0       -2.239090   -1.063329   -0.040942
      4          6           0       -1.962395    0.312039   -0.061604
      5          6           0       -3.022134    1.221402    0.023284
      6          6           0       -4.342138    0.769028    0.127177
      7          1           0       -3.764494   -2.570688    0.078551
      8          1           0       -2.817783    2.276915    0.008160
      9          1           0       -5.146393    1.479656    0.191511
     10          8           0       -0.580033    0.957890   -0.170929
     11          6           0        1.002783    0.486800   -0.199579
     12          6           0        1.379877   -0.861101   -0.231316
     13          6           0        1.980680    1.470041   -0.037934
     14          6           0        2.728238   -1.216502   -0.097275
     15          6           0        3.327323    1.112696    0.097946
     16          1           0        1.696687    2.507074   -0.018482
     17          6           0        3.708391   -0.232572    0.069853
     18          1           0        3.010806   -2.253851   -0.123427
     19          1           0        4.070915    1.879059    0.223008
     20          1           0       -1.459773   -1.781503   -0.102548
     21          1           0        0.658175   -1.628293   -0.361998
     22          1           0       -5.629882   -0.950188    0.227425
     23          6           0        5.185023   -0.626009    0.219457
     24          1           0        5.371242   -0.963078    1.226573
     25          1           0        5.421512   -1.420471   -0.469324
     26          1           0        5.812218    0.224495    0.008800
 ---------------------------------------------------------------------
 Rotational constants (GHZ):           2.4550931           0.2721384           0.2461949
 Standard basis: 6-31+G(d) (6D, 7F)
 There are   290 symmetry adapted cartesian basis functions of A   symmetry.
 There are   290 symmetry adapted basis functions of A   symmetry.
   290 basis functions,   496 primitive gaussians,   290 cartesian basis functions
    49 alpha electrons       49 beta electrons
       nuclear repulsion energy       757.1977741605 Hartrees.
 NAtoms=   26 NActive=   26 NUniq=   26 SFac= 1.00D+00 NAtFMM=   60 NAOKFM=F Big=F
 Integral buffers will be    131072 words long.
 Raffenetti 2 integral format.
 Two-electron integral symmetry is turned on.
 Nuclear repulsion after empirical dispersion term =      757.1799972534 Hartrees.
 One-electron integrals computed using PRISM.
 NBasis=   290 RedAO= T EigKep=  1.85D-06  NBF=   290
 NBsUse=   289 1.00D-06 EigRej=  8.26D-07 NBFU=   289
 Initial guess from the checkpoint file:  "molecule_94.chk"
 B after Tr=     0.000000    0.000000    0.000000
         Rot=    0.999633    0.026882    0.000377    0.003331 Ang=   3.10 deg.
 ExpMin= 4.38D-02 ExpMax= 5.48D+03 ExpMxC= 8.25D+02 IAcc=3 IRadAn=         5 AccDes= 0.00D+00
 Harris functional with IExCor=  402 and IRadAn=       5 diagonalized for initial guess.
 HarFok:  IExCor=  402 AccDes= 0.00D+00 IRadAn=         5 IDoV= 1 UseB2=F ITyADJ=14
 ICtDFT=  3500011 ScaDFX=  1.000000  1.000000  1.000000  1.000000
 FoFCou: FMM=F IPFlag=           0 FMFlag=      100000 FMFlg1=           0
         NFxFlg=           0 DoJE=T BraDBF=F KetDBF=T FulRan=T
         wScrn=  0.000000 ICntrl=       500 IOpCl=  0 I1Cent=   200000004 NGrid=           0
         NMat0=    1 NMatS0=      1 NMatT0=    0 NMatD0=    1 NMtDS0=    0 NMtDT0=    0
 Petite list used in FoFCou.
 Requested convergence on RMS density matrix=1.00D-08 within 128 cycles.
 Requested convergence on MAX density matrix=1.00D-06.
 Requested convergence on             energy=1.00D-06.
 No special actions if energy rises.
 SCF Done:  E(RB3LYP) =  -577.804996924     A.U. after   16 cycles
            NFock= 16  Conv=0.52D-08     -V/T= 2.0106
 Calling FoFJK, ICntrl=      2127 FMM=F ISym2X=0 I1Cent= 0 IOpClX= 0 NMat=1 NMatS=1 NMatT=0.
 ***** Axes restored to original set *****
 -------------------------------------------------------------------
 Center     Atomic                   Forces (Hartrees/Bohr)
 Number     Number              X              Y              Z
 -------------------------------------------------------------------
      1        6           0.000729971    0.004962745   -0.003868975
      2        6           0.003589690    0.009143831    0.009399644
      3        6           0.002820907    0.006128619    0.009130440
      4        6           0.006403401    0.040318614   -0.035951404
      5        6           0.001011566    0.005664088   -0.002130884
      6        6          -0.001566207    0.002184910   -0.013862799
      7        1          -0.002144729   -0.005317756   -0.005808771
      8        1           0.002199787    0.007064517    0.002706202
      9        1           0.001258344    0.000512711    0.008014178
     10        8          -0.002356158    0.002051628   -0.020252540
     11        6          -0.001564847   -0.053129674    0.030439590
     12        6           0.003475597    0.007603382    0.007720294
     13        6          -0.002418310   -0.008172793    0.015765715
     14        6           0.001982263    0.006886186    0.015339750
     15        6          -0.009587955   -0.016045854    0.000756848
     16        1           0.002623425    0.001736672    0.007471748
     17        6           0.002607126    0.008731598   -0.014410923
     18        1          -0.002627623   -0.004419707   -0.006576218
     19        1           0.002957419    0.007394991    0.001792577
     20        1          -0.001246738    0.003577893   -0.016309453
     21        1          -0.006060342   -0.015377929    0.001060718
     22        1          -0.001353036   -0.007208596    0.003235084
     23        6          -0.005374960   -0.012950854    0.024439232
     24        1           0.010120031   -0.002771979   -0.007567653
     25        1          -0.007492246   -0.000253376   -0.009632150
     26        1           0.002013622    0.011686132   -0.000900250
 -------------------------------------------------------------------
 Cartesian Forces:  Max     0.053129674 RMS     0.012071998

 GradGradGradGradGradGradGradGradGradGradGradGradGradGradGradGradGradGrad
 Berny optimization.
 Using GEDIIS/GDIIS optimizer.
 FormGI is forming the generalized inverse of G from B-inverse, IUseBI=4.
 Internal  Forces:  Max     0.091702188 RMS     0.013051811
 Search for a local minimum.
 Step number   2 out of a maximum of  138
 All quantities printed in internal units (Hartrees-Bohrs-Radians)
 Mixed Optimization -- RFO/linear search
 Update second derivatives using D2CorX and points    1    2
 DE= -2.83D-02 DEPred=-7.27D-02 R= 3.90D-01
 Trust test= 3.90D-01 RLast= 3.03D-01 DXMaxT set to 3.00D-01
 ITU=  0  0
 Use linear search instead of GDIIS.
     Eigenvalues ---    0.00230   0.00232   0.00237   0.01325   0.01728
     Eigenvalues ---    0.01782   0.02070   0.02070   0.02070   0.02070
     Eigenvalues ---    0.02070   0.02070   0.02070   0.02070   0.02070
     Eigenvalues ---    0.02070   0.02070   0.02070   0.02070   0.02070
     Eigenvalues ---    0.02073   0.07183   0.07193   0.15223   0.16000
     Eigenvalues ---    0.16000   0.16000   0.16000   0.16000   0.16000
     Eigenvalues ---    0.16000   0.16000   0.16000   0.16000   0.16082
     Eigenvalues ---    0.16127   0.21988   0.22000   0.22003   0.22673
     Eigenvalues ---    0.23358   0.23855   0.24143   0.24936   0.25000
     Eigenvalues ---    0.26310   0.28511   0.36754   0.36836   0.37230
     Eigenvalues ---    0.37230   0.37230   0.37230   0.37230   0.37230
     Eigenvalues ---    0.37230   0.37230   0.37230   0.37230   0.41194
     Eigenvalues ---    0.41209   0.41337   0.41589   0.45276   0.45379
     Eigenvalues ---    0.45389   0.45389   0.45389   0.45389   0.45389
     Eigenvalues ---    0.45389   1.24228
 RFO step:  Lambda=-1.42817657D-01 EMin= 2.29997732D-03
 Quartic linear search produced a step of  0.63270.
 Maximum step size (   0.300) exceeded in Quadratic search.
    -- Step size scaled by   0.463
 Iteration  1 RMS(Cart)=  0.24438295 RMS(Int)=  0.01366521
 Iteration  2 RMS(Cart)=  0.05671870 RMS(Int)=  0.00063272
 Iteration  3 RMS(Cart)=  0.00086173 RMS(Int)=  0.00053480
 Iteration  4 RMS(Cart)=  0.00000043 RMS(Int)=  0.00053480
 Variable       Old X    -DE/DX   Delta X   Delta X   Delta X     New X
                                 (Linear)    (Quad)   (Total)
    R1        2.64114   0.00059  -0.00451  -0.00059  -0.00510   2.63604
    R2        2.64111   0.00263  -0.00453   0.00172  -0.00281   2.63830
    R3        2.03220   0.00802   0.00645   0.01331   0.01976   2.05196
    R4        2.64758  -0.00193  -0.00043  -0.00233  -0.00276   2.64481
    R5        2.03214   0.00803   0.00641   0.01330   0.01971   2.05184
    R6        2.65143  -0.00966   0.00201  -0.01064  -0.00863   2.64280
    R7        2.00605   0.01661  -0.01009   0.01798   0.00789   2.01394
    R8        2.64372  -0.00788  -0.00287  -0.01028  -0.01314   2.63058
    R9        2.89073  -0.07894  -0.02701  -0.14407  -0.17109   2.71964
   R10        2.64416  -0.00318  -0.00259  -0.00455  -0.00715   2.63701
   R11        2.03187   0.00761   0.00624   0.01268   0.01892   2.05079
   R12        2.03175   0.00799   0.00616   0.01315   0.01932   2.05106
   R13        3.12123  -0.09170  -0.04072  -0.21940  -0.26012   2.86111
   R14        2.64565  -0.01127  -0.00165  -0.01395  -0.01555   2.63010
   R15        2.63830  -0.01428  -0.00630  -0.01903  -0.02529   2.61301
   R16        2.64720  -0.00249  -0.00067  -0.00302  -0.00369   2.64352
   R17        2.00571   0.01645  -0.01031   0.01768   0.00737   2.01308
   R18        2.64535  -0.00209  -0.00184  -0.00308  -0.00493   2.64042
[...]
 00273,0.00000155,0.00000596,-0.00000604,-0.00001061,-0.00000703,0.0000
 0362,-0.00026632,-0.00034637,0.00010451,0.00382505,-0.00224820,-0.0012
 3572,0.00009445,0.00068343,-0.00034027,0.00162597,-0.00062880,-0.00086
 242,0.00013013,-0.00258323,-0.00477613,-0.20838469,-0.14031202,0.03584
 052,-0.00077212,0.00205748,0.00109376,-0.01204519,-0.01398599,0.005828
 53,-0.00073011,-0.00073238,0.00031449,0.21709477,-0.00001739,-0.000036
 22,0.00001248,0.00002367,0.00003394,0.00000068,0.00004649,-0.00013499,
 -0.00000910,-0.00006503,0.00057605,-0.00002971,-0.00004431,-0.00012744
 ,0.00002157,0.00001015,0.00001905,0.00002001,-0.00000190,-0.00001646,-
 0.00000392,-0.00000258,0.00000611,-0.00001401,-0.00000014,-0.00001225,
 0.00000999,-0.00038122,-0.00093721,0.00061292,-0.00171353,0.00488301,0
 .00303556,0.00058095,-0.00021172,-0.00019220,-0.01001247,-0.00471432,0
 .00133179,-0.00261325,0.00426402,-0.00026104,-0.14063594,-0.15446859,0
 .03832310,0.00225472,-0.00207768,-0.00083677,-0.00551900,-0.00145695,0
 .00332164,-0.00033735,-0.00007388,0.00007236,0.15544258,0.15637498,0.0
 0000218,0.00003818,-0.00000538,-0.00000426,-0.00001086,0.00000420,0.00
 000254,0.00007551,0.00001551,0.00018131,-0.00056451,-0.00027891,-0.000
 00075,0.00024115,-0.00005694,0.00001898,-0.00003517,-0.00004424,-0.000
 00304,0.00001449,0.00000197,-0.00000120,-0.00000616,0.00000826,0.00001
 281,0.00002189,-0.00000795,0.00108278,0.00182022,-0.00057094,-0.002116
 57,0.00244040,-0.00340254,-0.00023259,0.00001119,-0.00109674,0.0233281
 0,0.01866784,-0.00193542,-0.00405809,0.00038834,-0.00267939,0.03605878
 ,0.03868919,-0.06765814,0.00055943,-0.00130840,0.00029319,-0.01672330,
 -0.01382583,0.00790462,-0.00096216,-0.00082698,0.00042754,-0.03719760,
 -0.04415049,0.06907481,0.00560445,-0.00118094,0.00222367,-0.00005927,-
 0.00020152,0.00394212,-0.11764123,-0.03182502,0.13284733,-0.00162841,-
 0.00383851,0.00870973,0.00388177,0.00167207,0.00273625,-0.00037355,0.0
 0041099,-0.00058802,-0.00281099,0.00001394,-0.00229080,-0.00006542,-0.
 00022016,0.00043254,-0.00068199,0.00001201,-0.00037127,-0.00227392,0.0
 0046114,-0.00206907,-0.00032003,0.00011448,0.00077877,0.00034090,-0.00
 021676,-0.00000080,0.00031788,0.00033465,-0.00040074,0.00020240,0.0001
 3178,-0.00060633,0.00007721,-0.00016093,0.00048127,-0.00006071,-0.0000
 1538,-0.00000323,-0.00038797,-0.00015890,-0.00009594,0.00001306,0.0000
 1067,-0.00001949,-0.00001376,-0.00002955,0.00000445,0.11614036,-0.0006
 0042,-0.00529460,0.00024361,-0.01623763,-0.00141206,0.02600550,-0.0322
 7443,-0.07195217,0.04900017,0.01246644,0.01042541,-0.01957691,0.001136
 29,-0.00368384,-0.00254299,0.00018629,-0.00118925,-0.00023993,0.000229
 94,0.00081439,-0.00019972,0.00059236,0.00033182,-0.00115060,0.00000435
 ,0.00014149,0.00005421,-0.00025194,0.00144609,0.00132385,0.00029152,-0
 .00194820,-0.00046901,0.00084787,-0.00113113,0.00071297,-0.00011099,0.
 00001378,0.00012849,0.00021542,0.00007086,-0.00020987,0.00000123,-0.00
 008932,0.00010829,0.00000576,0.00005441,-0.00000397,-0.00017035,-0.000
 10341,0.00005134,-0.00003544,0.00002695,-0.00003694,0.00002784,0.00000
 644,-0.00001195,0.03454699,0.07354970,0.00235341,0.00094160,0.00317267
 ,0.00260574,0.00004974,-0.00176699,0.13377186,0.04766619,-0.24662727,0
 .01024551,0.00666386,-0.01215963,0.00260903,-0.00353623,0.00079911,-0.
 00058903,-0.00042342,0.00023615,-0.00220045,0.00036912,-0.00049786,0.0
 0048749,0.00034760,-0.00056692,-0.00036631,0.00006889,-0.00027727,-0.0
 0203951,0.00113933,-0.00041075,-0.00043461,0.00060621,0.00030339,-0.00
 010548,0.00094625,-0.00008817,-0.00024851,-0.00021031,0.00021015,-0.00
 017629,0.00000902,0.00007500,-0.00005286,-0.00000951,-0.00005132,0.000
 02158,-0.00008688,-0.00004629,0.00010744,0.00002471,-0.00000889,0.0000
 0005,-0.00000808,-0.00003356,-0.00001050,0.00001359,0.00000207,-0.1463
 1643,-0.05441849,0.25784248,-0.00022532,0.00005365,0.00023459,0.000269
 29,0.00042975,-0.00007406,0.00034306,-0.00008053,0.00027006,-0.0003498
 7,-0.00047936,-0.00059084,0.00029180,0.00042414,-0.00033069,0.00001768
 ,-0.00035138,-0.00000994,0.00000841,-0.00000580,-0.00001342,-0.0000572
 5,-0.00000002,0.00001363,-0.00000671,-0.00000496,0.00002499,-0.0001437
 5,0.00236401,0.00090760,-0.01221467,-0.01443287,0.00761969,-0.21464691
 ,-0.14256290,0.03928165,0.00009328,-0.00212618,-0.00453923,0.00207029,
 -0.00015640,-0.00057322,0.00002767,0.00079938,-0.00055084,-0.00057447,
 -0.00077706,0.00031145,0.00373016,-0.00217382,-0.00113990,-0.00069108,
 0.00217115,0.00108266,-0.00029940,0.00032021,0.00019870,-0.00043497,-0
 .00011522,0.00007054,0.22285441,-0.00000987,-0.00002433,-0.00001587,0.
 00009894,-0.00007927,-0.00003566,0.00015178,-0.00037709,0.00053636,0.0
 0061254,0.00030768,0.00061359,-0.00006023,-0.00002774,-0.00008833,0.00
 002007,0.00006580,0.00000055,-0.00001802,-0.00001775,-0.00000675,-0.00
 002393,-0.00000583,-0.00006882,0.00002360,-0.00000116,-0.00000009,0.00
 234543,-0.00233222,-0.00037369,-0.00547099,-0.00090681,0.00318754,-0.1
 4385176,-0.15181211,0.04066765,-0.00238193,0.00360739,-0.00027220,-0.0
 0880853,-0.00406484,0.00096466,0.00067731,-0.00017454,-0.00003928,-0.0
 0025124,0.00003403,0.00020040,-0.00214462,0.00439422,0.00358328,0.0022
 8551,-0.00223493,-0.00094310,0.00032944,-0.00052976,-0.00017295,0.0000
 9886,0.00007968,-0.00005194,0.15682725,0.15429569,0.00012092,-0.000064
 68,-0.00014977,-0.00018487,-0.00022386,0.00005226,-0.00061125,0.000665
 28,-0.00024726,-0.00042585,0.00058288,-0.00105557,0.00008274,-0.000043
 23,0.00006846,-0.00001744,0.00022655,-0.00005421,0.00001454,-0.0000484
 6,0.00000260,0.00000484,-0.00001110,-0.00000230,-0.00001285,-0.0000067
 4,0.00000572,0.00177140,-0.00081955,0.00165354,-0.01734657,-0.01413484
 ,0.00950443,0.04013450,0.04150866,-0.06954111,-0.00368635,0.00044189,-
 0.00295262,0.02330142,0.01795286,-0.00109894,-0.00031748,-0.00002311,-
 0.00108177,-0.00092220,-0.00080664,0.00032385,-0.00182128,0.00294622,-
 0.00412558,0.00064997,-0.00135851,0.00031216,0.00021469,-0.00018106,0.
 00003468,0.00022201,0.00000392,-0.00000895,-0.04223882,-0.04758631,0.0
 6848159,-0.05038591,-0.05062966,0.02425683,-0.00007794,-0.01615165,0.0
 0226009,0.00321461,-0.00041713,0.00543583,-0.00059988,0.00045400,0.000
 54568,0.00424892,0.00148710,0.00402168,0.00455799,0.01056341,-0.003519
 70,-0.00265395,0.00029394,-0.00204015,0.00041817,0.00053843,0.00002910
 ,-0.00262041,-0.00002844,-0.00207895,-0.00058542,-0.00002682,-0.000389
 86,-0.00014205,0.00001957,-0.00005989,0.00009123,-0.00005924,0.0000147
 1,0.00004632,0.00001720,-0.00002181,0.00000839,0.00000987,-0.00006153,
 0.00002727,-0.00001757,0.00004880,-0.00000513,0.00000833,0.00000417,-0
 .00004519,-0.00002377,-0.00001056,0.00000515,0.00000164,-0.00000550,-0
 .00000221,-0.00000633,0.00000231,0.00019852,-0.00075777,0.00026607,-0.
 00002645,0.00000208,0.00002507,0.04433282,-0.05070139,-0.31383646,0.06
 351291,0.00007352,-0.00235855,-0.00043276,-0.00071052,0.00157093,0.000
 79681,0.00046079,0.00074809,-0.00066635,0.00184707,-0.00124491,-0.0036
 5796,-0.00560211,-0.01742083,0.00787344,-0.00008586,0.00077007,0.00046
 067,-0.00031598,-0.00087745,0.00044521,0.00037990,0.00071539,-0.000295
 58,-0.00009578,-0.00024189,0.00037932,0.00001127,0.00010591,-0.0002768
 9,0.00000325,-0.00002481,0.00005341,0.00001017,-0.00003011,0.00005301,
 -0.00000471,-0.00000283,-0.00002028,0.00000283,-0.00000007,0.00000302,
 0.00000435,0.00000879,-0.00000391,-0.00000171,-0.00000712,-0.00000509,
 0.00000560,-0.00000191,0.00001343,-0.00000685,-0.00000816,0.00000838,0
 .00003575,-0.00019437,-0.00009640,-0.00002478,0.00000452,-0.00001887,0
 .05471983,0.33232683,0.02403015,0.06350790,-0.06862451,0.00368416,0.02
 653267,-0.00226928,0.00533714,-0.00025750,-0.00216285,0.00054434,-0.00
 065176,-0.00116173,0.00411066,-0.00257663,-0.00032851,-0.00459295,-0.0
 1908947,0.00816377,-0.00204927,-0.00025646,-0.00055763,-0.00002792,-0.
 00092607,0.00042385,-0.00203290,0.00040528,-0.00049488,-0.00057994,0.0
 0016928,0.00003770,-0.00008219,0.00000362,-0.00003818,0.00004912,0.000
 03246,0.00001143,-0.00001917,-0.00002301,0.00001104,-0.00000376,0.0000
 0260,0.00000964,-0.00000143,-0.00000367,0.00000500,0.00000229,-0.00000
 328,-0.00000064,-0.00000281,-0.00000300,0.00000832,-0.00000096,0.00000
 087,-0.00000897,0.00000207,0.00000060,-0.00000101,0.00034996,0.0012921
 9,-0.00006171,0.00001603,-0.00001248,0.00001144,-0.02873396,-0.0681447
 9,0.06703250,-0.00002105,-0.00000660,0.00002168,0.00002979,0.00003894,
 0.00000727,0.00002649,-0.00004256,0.00000689,0.00004505,0.00010973,-0.
 00002157,0.00002267,0.00001768,-0.00000143,0.00001436,-0.00001903,-0.0
 0001049,0.00000320,0.00000371,-0.00000395,-0.00000543,-0.00000033,-0.0
 0000593,-0.00000206,-0.00000193,0.00000324,-0.00015875,0.00031276,0.00
 033545,-0.00069335,-0.00010400,-0.00020589,-0.00205371,-0.00402468,-0.
 00078464,-0.00027570,-0.00493611,-0.00397425,0.00050229,-0.00985385,0.
 02415120,0.00587086,0.00800597,-0.02057817,0.00019887,0.00040271,-0.00
 104884,-0.08390451,-0.01242770,0.00670290,-0.00020173,0.00065290,0.001
 21886,-0.00108389,0.00288052,-0.00006292,-0.00003276,-0.00001350,-0.00
 000318,0.00007103,-0.00052724,0.00095490,-0.00000546,-0.00000289,0.000
 00039,0.56886688,0.00003092,0.00006087,-0.00004312,-0.00001338,-0.0000
 6467,0.00000490,-0.00004363,0.00019305,0.00005041,-0.00029773,-0.00061
 364,0.00013442,0.00000553,0.00007581,-0.00007128,-0.00001066,0.0000045
 7,0.00001641,-0.00001156,0.00001273,0.00000237,-0.00000711,-0.00000900
 ,0.00001428,0.00000791,0.00001120,-0.00001234,0.00098311,0.00035370,-0
 .00103434,0.00001707,-0.00062836,0.00050411,-0.00537266,0.00179045,0.0
 0012959,-0.00370700,0.00336682,0.00029033,-0.00396882,-0.00764474,0.02
 314666,0.00133322,0.00571771,-0.00304445,-0.00015403,0.00042940,-0.000
 37055,-0.01249363,-0.09642720,0.05054358,0.00243986,-0.00114408,-0.000
 43080,0.00079081,-0.00178883,-0.00211919,0.00002399,-0.00000707,-0.000
 01952,-0.00007845,-0.00010206,0.00086843,0.00000936,0.00001198,-0.0000
 0347,0.01604656,0.54851406,-0.00000485,0.00000857,0.00000736,0.0000021
 9,0.00001047,0.00000047,0.00002160,0.00000802,0.00004876,-0.00002434,-
 0.00005582,-0.00000323,0.00001203,0.00001715,-0.00003357,-0.00000146,-
 0.00001501,0.00000170,-0.00000291,-0.00000266,-0.00000224,-0.00000280,
 -0.00000129,0.00000051,-0.00000162,-0.00000106,0.00000080,0.00045540,-
 0.00017937,-0.00017557,-0.00093209,0.00012517,-0.00131942,-0.00170916,
 0.00017810,0.00392557,-0.00271739,0.00005560,0.00150484,0.00471048,0.0
 0790776,-0.00900574,-0.00027211,0.01003864,-0.02554325,0.00019265,0.00
 024917,-0.00029403,0.00611846,0.04635080,-0.18988315,-0.00002849,-0.00
 197352,0.00026588,0.00186971,-0.00045290,0.00060267,-0.00001992,0.0000
 0557,-0.00000599,-0.00009171,-0.00024787,0.00032376,0.00000041,-0.0000
 0259,0.00000179,0.01601025,0.01879026,0.49216602,-0.00000183,-0.000016
 90,-0.00000174,-0.00000572,0.00000564,-0.00000239,-0.00001135,-0.00003
 123,-0.00001500,0.00008486,0.00015709,-0.00004316,-0.00000572,-0.00002
 927,0.00001970,-0.00000222,0.00001235,-0.00000113,0.00000386,-0.000008
 10,0.00000110,0.00000256,0.00000222,-0.00000369,-0.00000118,-0.0000028
 5,0.00000295,-0.00019138,-0.00017328,0.00020948,0.00085134,0.00060754,
 0.00009233,-0.00008688,-0.00023649,-0.00082190,-0.00069240,-0.00043617
 ,0.00082846,0.00043537,-0.00091865,0.00109036,-0.00070629,0.00050230,-
 0.00147449,0.00002586,-0.00006039,-0.00001962,0.00015319,-0.00006987,0
 .00158882,-0.00039476,0.00014344,0.00011440,0.00008558,-0.00015843,-0.
 00012094,0.00000837,0.00001509,0.00000653,-0.00002901,-0.00000365,0.00
 002462,0.00000040,-0.00000363,0.00000236,-0.09280876,0.07205119,0.0665
 3624,0.09661210,-0.00000228,-0.00001639,0.00000154,0.00000147,0.000003
 70,-0.00000488,-0.00001996,-0.00003742,-0.00000546,0.00011267,0.000140
 94,-0.00002437,-0.00000539,-0.00002849,0.00001805,-0.00000090,0.000009
 84,-0.00000246,0.00000180,-0.00000674,0.00000200,0.00000333,0.00000215
 ,-0.00000163,-0.00000061,-0.00000250,0.00000135,-0.00020041,-0.0001964
 1,0.00023727,0.00059025,0.00036086,0.00025972,0.00024489,-0.00012836,-
 0.00086960,-0.00005322,-0.00069649,0.00020735,-0.00026381,-0.00023386,
 0.00090304,-0.00041243,0.00017431,-0.00030241,0.00001985,-0.00003636,0
 .00001236,-0.00679219,0.01143435,0.00979959,-0.00020003,-0.00006579,-0
 .00013303,0.00021058,0.00006382,-0.00000788,0.00000444,0.00000645,0.00
 000981,-0.00002727,0.00000502,-0.00001637,-0.00000035,-0.00000098,-0.0
 0000025,0.07109360,-0.16062407,-0.10437837,-0.07962763,0.17329474,0.00
 002297,0.00005980,-0.00002769,-0.00001939,-0.00005466,0.00000847,0.000
 00125,0.00017918,-0.00000181,-0.00029399,-0.00066489,0.00016479,0.0000
 1757,0.00010304,-0.00004639,-0.00001238,-0.00001308,0.00000395,-0.0000
 0497,0.00002788,0.00000129,-0.00000599,-0.00000986,0.00001802,0.000008
 54,0.00001165,-0.00000978,0.00054688,0.00059528,-0.00107833,0.00016062
 ,-0.00021984,0.00091573,-0.00096838,0.00101368,-0.00095290,-0.00081224
 ,0.00149303,-0.00002865,-0.00164002,-0.00086551,0.00076170,0.00131187,
 0.00126908,-0.00048201,-0.00003632,0.00008182,-0.00014380,0.01199980,-
 0.01680883,-0.02254616,0.00069473,-0.00035843,-0.00004567,0.00027541,-
 0.00074923,-0.00029577,0.00003673,-0.00003234,-0.00002197,0.00003160,0
 .00005040,-0.00004577,0.00000785,0.00001287,-0.00000252,0.06779795,-0.
 10762355,-0.14307347,-0.07419362,0.11437146,0.15877288,0.00001217,0.00
 001214,-0.00001425,-0.00000725,-0.00002536,0.00000227,-0.00000869,0.00
 004492,-0.00000080,-0.00005174,-0.00013546,-0.00000381,0.00000009,0.00
 002255,-0.00000856,0.00000138,0.00000435,0.00000257,-0.00000429,0.0000
 0329,0.00000170,-0.00000132,-0.00000258,0.00000138,0.00000291,0.000003
 60,-0.00000513,-0.00000723,0.00030345,-0.00012776,0.00058636,0.0000234
 3,0.00050428,0.00033059,0.00001504,-0.00098664,-0.00011398,-0.00016611
 ,0.00044734,0.00029155,-0.00115066,0.00138893,0.00005043,0.00033501,0.
 00010068,-0.00002809,0.00002973,0.00001490,0.00542459,-0.00207316,0.00
 156340,-0.00005541,0.00055553,0.00008849,0.00019909,0.00014203,0.00025
 266,0.00001165,-0.00000727,-0.00000336,-0.00003066,0.00006552,-0.00003
 812,0.00000204,0.00000534,-0.00000253,-0.25991215,0.05593157,-0.087316
 26,-0.01251892,0.00280051,-0.00451652,0.28132343,-0.00000682,-0.000021
 13,0.00000935,0.00000034,0.00001626,-0.00000484,-0.00000676,-0.0000591
 5,-0.00001808,0.00011698,0.00020709,-0.00007251,-0.00001184,-0.0000311
 6,0.00001945,-0.00000093,0.00000542,-0.00000089,0.00000508,-0.00000920
 ,0.00000049,0.00000391,0.00000445,-0.00000433,-0.00000210,-0.00000384,
 0.00000420,-0.00021641,-0.00016961,0.00040769,0.00001633,-0.00021013,-
 0.00031697,0.00009979,0.00006350,0.00001829,0.00015963,0.00054285,-0.0
 0008066,0.00058858,0.00090005,0.00069208,-0.00085168,-0.00100377,0.001
 10145,-0.00003267,-0.00002565,0.00010610,0.01039141,-0.00281656,0.0035
 1738,-0.00060930,-0.00049374,0.00005028,0.00026005,0.00013789,0.000102
 20,-0.00000470,0.00001712,0.00000671,-0.00001359,0.00000909,-0.0000123
 3,-0.00000199,-0.00000497,0.00000231,0.05581940,-0.06445159,0.02471032
 ,0.02114869,-0.00546962,0.00860482,-0.06184385,0.06424260,0.00000490,0
 .00002464,-0.00001268,0.00000058,-0.00002060,0.00000767,0.00000248,0.0
 0007185,0.00000635,-0.00011762,-0.00027040,0.00006866,0.00001237,0.000
 05386,-0.00002077,0.00000512,-0.00000866,-0.00000093,-0.00000226,0.000
 01025,0.00000078,-0.00000562,-0.00000548,0.00000239,0.00000378,0.00000
 691,-0.00000646,0.00018925,0.00042601,-0.00041199,-0.00018704,-0.00012
 384,0.00051443,0.00024415,-0.00046452,-0.00054489,-0.00017059,-0.00104
 026,-0.00111622,-0.00095614,-0.00163242,0.00105271,0.00132995,0.003423
 54,-0.00341825,0.00008298,0.00009057,-0.00039051,-0.02804109,0.0067352
 4,-0.01423442,0.00044941,0.00090276,0.00044485,-0.00015155,0.00034125,
 0.00020908,0.00000900,-0.00002334,-0.00000675,0.00001746,0.00001199,0.
 00001932,0.00000229,0.00000639,-0.00000269,-0.08593819,0.02428561,-0.0
 8118839,0.01899417,-0.00405809,0.00831182,0.09424743,-0.02820785,0.091
 47280,-0.00000470,-0.00000535,0.00000675,0.00000362,0.00001603,-0.0000
 0097,0.00001101,-0.00002226,0.00000794,0.00002372,0.00007594,-0.000011
 07,0.00000247,-0.00001897,0.00000056,-0.00000113,-0.00000057,0.0000006
 9,-0.00000055,-0.00000188,-0.00000212,-0.00000113,0.00000149,-0.000001
 30,-0.00000289,-0.00000274,0.00000315,0.00006782,-0.00014328,0.0000645
 4,-0.00011530,0.00014023,-0.00019906,0.00001997,-0.00026571,0.00012925
 ,-0.00009457,0.00034684,0.00044911,0.00087384,-0.00070890,0.00054409,0
 .00035213,0.00094669,-0.00133516,0.00000818,-0.00002345,0.00003502,-0.
 00287515,-0.00157831,0.00077683,0.00030303,0.00031621,-0.00001307,0.00
 047587,-0.00016289,-0.00022162,-0.00001160,0.00000759,0.00000128,-0.00
 004657,0.00001370,0.00010146,-0.00000183,-0.00000348,0.00000114,-0.134
 49217,-0.12351245,-0.00280434,0.00919293,0.01252310,-0.00040993,-0.015
 49655,-0.02500752,-0.00002519,0.14180955,-0.00000323,-0.00002067,0.000
 00615,0.00000629,0.00001984,0.00000016,-0.00000001,-0.00005233,-0.0000
 0401,0.00012761,0.00023019,-0.00007818,-0.00000896,-0.00004217,0.00002
 148,0.00000145,0.00001297,0.00000137,-0.00000166,-0.00000742,-0.000004
 52,-0.00000011,0.00000473,-0.00000518,-0.00000525,-0.00000490,0.000005
 79,-0.00010077,-0.00024057,0.00038948,0.00050280,0.00035648,-0.0002080
 8,-0.00076228,0.00023385,-0.00059483,-0.00009205,-0.00005570,0.0005408
 8,0.00057528,-0.00033670,0.00272205,-0.00077216,0.00067408,-0.00169019
 ,0.00002734,-0.00004628,0.00001237,-0.00642529,-0.00882791,-0.00101559
 ,0.00017751,-0.00005298,-0.00017199,0.00087254,0.00022916,0.00052136,-
 0.00001938,0.00002085,-0.00000185,0.00002106,-0.00011269,0.00015898,-0
 .00000403,-0.00000708,0.00000204,-0.12342407,-0.22703702,-0.00114513,-
 0.01286903,-0.01795271,-0.00047375,0.00510644,0.00862382,-0.00053542,0
 .13706994,0.24439118,0.00000200,0.00001026,-0.00000171,-0.00000157,-0.
 00001048,0.00000053,0.00000582,0.00002061,-0.00000224,-0.00006136,-0.0
 0011025,0.00005570,0.00000072,0.00001443,-0.00000366,-0.00000142,-0.00
 000649,-0.00000014,-0.00000065,0.00000601,0.00000026,0.00000015,-0.000
 00166,0.00000257,0.00000144,0.00000219,-0.00000201,-0.00000267,0.00004
 389,-0.00025433,-0.00009587,0.00004449,0.00029280,0.00146960,0.0004054
 5,-0.00000254,0.00014891,-0.00001356,0.00003055,-0.00112954,0.00199855
 ,-0.00543702,0.00160436,0.00045245,0.00110618,0.00000051,-0.00005078,0
 .00003365,0.01905474,0.02630405,-0.00009323,-0.00000194,0.00015597,0.0
 0005863,-0.00099885,-0.00023711,-0.00054525,0.00000821,-0.00001406,-0.
 00000074,0.00007204,0.00009891,-0.00042999,0.00000104,0.00000263,-0.00
 000137,-0.00457155,-0.00400875,-0.04832207,-0.01281385,-0.01601873,-0.
 00015596,-0.00559228,-0.01063465,-0.00075594,0.00290203,0.00154660,0.0
 5442733\\0.00000902,-0.00000019,-0.00001501,-0.00000152,-0.00001585,0.
 00000517,-0.00000203,0.00002729,0.00000684,-0.00000219,-0.00003739,-0.
 00000624,0.00000215,-0.00000400,0.00000067,-0.00000473,0.00001369,0.00
 000790,-0.00000003,0.00000310,-0.00000112,-0.00000170,0.00000216,-0.00
 000094,0.00000066,-0.00000542,-0.00000088,0.00002167,0.00002094,0.0000
 1155,0.00001870,0.00002077,-0.00001068,-0.00001181,0.00000382,-0.00005
 198,-0.00003144,-0.00004091,0.00005183,-0.00002980,-0.00003880,0.00004
 071,-0.00002093,0.00000255,-0.00005405,0.00000651,0.00000828,-0.000006
 14,0.00005109,0.00003755,0.00001585,0.00000306,0.00000240,-0.00000395,
 0.00000316,-0.00000138,0.00000702,-0.00000305,-0.00000157,0.00000101,0
 .00000216,0.00000684,0.00000102,-0.00000294,0.00000127,0.00000640,-0.0
 0000476,-0.00000261,-0.00000897,-0.00000072,-0.00000129,0.00000049,-0.
 00000061,-0.00000045,0.00000169,0.00000010,-0.00000079,0.00000180\\\@


 TOWERING GENIUS DISDAINS A BEATEN PATH.  IT SEEKS 
 REGIONS HITHERTO UNEXPLORED.

                                -- ABRAHAM LINCOLN
 Job cpu time:       0 days  1 hours 51 minutes 57.3 seconds.
 Elapsed time:       0 days  0 hours  3 minutes 44.6 seconds.
 File lengths (MBytes):  RWF=    232 Int=      0 D2E=      0 Chk=     10 Scr=      1
 Normal termination of Gaussian 16 at Fri Sep 15 06:25:14 2023.
