 Entering Gaussian System, Link 0=/home/ubuntu/g16/g16
 Input=/home/ubuntu/ML products/molecule_103.gjf
 Output=/home/ubuntu/ML products/molecule_103.log
 Initial command:
 /home/ubuntu/g16/l1.exe "/home/ubuntu/Scratch/Gau-293921.inp" -scrdir="/home/ubuntu/Scratch/"
 Entering Link 1 = /home/ubuntu/g16/l1.exe PID=    293923.
  
 Copyright (c) 1988-2017, Gaussian, Inc.  All Rights Reserved.
  
 This is part of the Gaussian(R) 16 program.  It is based on
 the Gaussian(R) 09 system (copyright 2009, Gaussian, Inc.),
 the Gaussian(R) 03 system (copyright 2003, Gaussian, Inc.),
 the Gaussian(R) 98 system (copyright 1998, Gaussian, Inc.),
 the Gaussian(R) 94 system (copyright 1995, Gaussian, Inc.),
 the Gaussian 92(TM) system (copyright 1992, Gaussian, Inc.),
 the Gaussian 90(TM) system (copyright 1990, Gaussian, Inc.),
 the Gaussian 88(TM) system (copyright 1988, Gaussian, Inc.),
 the Gaussian 86(TM) system (copyright 1986, Carnegie Mellon
 University), and the Gaussian 82(TM) system (copyright 1983,
 Carnegie Mellon University). Gaussian is a federally registered
 trademark of Gaussian, Inc.
  
 This software contains proprietary and confidential information,
 including trade secrets, belonging to Gaussian, Inc.
  
 This software is provided under written license and may be
 used, copied, transmitted, or stored only in accord with that
 written license.
  
 The following legend is applicable only to US Government
 contracts under FAR:
  
                    RESTRICTED RIGHTS LEGEND
  
 Use, reproduction and disclosure by the US Government is
 subject to restrictions as set forth in subparagraphs (a)
 and (c) of the Commercial Computer Software - Restricted
 Rights clause in FAR 52.227-19.
  
 Gaussian, Inc.
 340 Quinnipiac St., Bldg. 40, Wallingford CT 06492
  
  
 ---------------------------------------------------------------
 Warning -- This program may not be used in any manner that
 competes with the business of Gaussian, Inc. or will provide
 assistance to any competitor of Gaussian, Inc.  The licensee
 of this program is prohibited from giving any competitor of
 Gaussian, Inc. access to this program.  By using this program,
 the user acknowledges that Gaussian, Inc. is engaged in the
 business of creating and licensing software in the field of
 computational chemistry and represents and warrants to the
 licensee that it is not a competitor of Gaussian, Inc. and that
 it will not use this program in any manner prohibited above.
 ---------------------------------------------------------------
  

 Cite this work as:
 Gaussian 16, Revision B.01,
 M. J. Frisch, G. W. Trucks, H. B. Schlegel, G. E. Scuseria, 
 M. A. Robb, J. R. Cheeseman, G. Scalmani, V. Barone, 
 G. A. Petersson, H. Nakatsuji, X. Li, M. Caricato, A. V. Marenich, 
 J. Bloino, B. G. Janesko, R. Gomperts, B. Mennucci, H. P. Hratchian, 
 J. V. Ortiz, A. F. Izmaylov, J. L. Sonnenberg, D. Williams-Young, 
 F. Ding, F. Lipparini, F. Egidi, J. Goings, B. Peng, A. Petrone, 
 T. Henderson, D. Ranasinghe, V. G. Zakrzewski, J. Gao, N. Rega, 
 G. Zheng, W. Liang, M. Hada, M. Ehara, K. Toyota, R. Fukuda, 
 J. Hasegawa, M. Ishida, T. Nakajima, Y. Honda, O. Kitao, H. Nakai, 
 T. Vreven, K. Throssell, J. A. Montgomery, Jr., J. E. Peralta, 
 F. Ogliaro, M. J. Bearpark, J. J. Heyd, E. N. Brothers, K. N. Kudin, 
 V. N. Staroverov, T. A. Keith, R. Kobayashi, J. Normand, 
 K. Raghavachari, A. P. Rendell, J. C. Burant, S. S. Iyengar, 
 J. Tomasi, M. Cossi, J. M. Millam, M. Klene, C. Adamo, R. Cammi, 
 J. W. Ochterski, R. L. Martin, K. Morokuma, O. Farkas, 
 J. B. Foresman, and D. J. Fox, Gaussian, Inc., Wallingford CT, 2016.
 
 ******************************************
 Gaussian 16:  EM64L-G16RevB.01 20-Dec-2017
                15-Sep-2023 
 ******************************************
 %nprocshared=30
 Will use up to   30 processors via shared memory.
 %mem=30GB
 %chk=molecule_103.chk
 ----------------------------------------------------------------------
 # opt freq b3lyp/6-31+g(d) geom=connectivity empiricaldispersion=gd3 v
 olume
 ----------------------------------------------------------------------
 1/18=20,19=15,26=3,38=1,57=2/1,3;
 2/9=110,12=2,17=6,18=5,40=1/2;
 3/5=1,6=6,7=11,11=2,25=1,30=1,71=1,74=-5,124=31/1,2,3;
 4//1;
 5/5=2,38=5/2;
 6/7=2,8=2,9=2,10=2,28=1,44=1/1,4;
 7//1,2,3,16;
 1/18=20,19=15,26=3/3(2);
 2/9=110/2;
 99//99;
 2/9=110/2;
 3/5=1,6=6,7=11,11=2,25=1,30=1,71=1,74=-5,124=31/1,2,3;
 4/5=5,16=3,69=1/1;
 5/5=2,38=5/2;
 7//1,2,3,16;
 1/18=20,19=15,26=3/3(-5);
 2/9=110/2;
 6/7=2,8=2,9=2,10=2,19=2,28=1,44=1/1,4;
 99/9=1/99;
 --------------
 ML molecule103
 --------------
 Symbolic Z-matrix:
 Charge =  0 Multiplicity = 1
 C                    -4.74942  -0.23058  -0.40002 
 C                    -4.8202    0.23854  -1.71867 
 C                    -4.55025   1.58484  -1.99888 
 C                    -4.20951   2.46203  -0.96044 
 C                    -4.13873   1.99291   0.35822 
 H                    -5.08036  -0.43121  -2.51155 
 H                    -3.87857   2.66266   1.15109 
 O                    -3.91049   3.9533   -1.27081 
 C                    -3.81752   4.69985  -2.77936 
 C                    -4.13168   3.88761  -3.87731 
 C                    -3.30395   5.98751  -2.98454 
 C                    -3.93225   4.36302  -5.18043 
 C                    -3.10452   6.46292  -4.28767 
 H                    -3.06408   6.60768  -2.14623 
 C                    -3.41867   5.65068  -5.38561 
 H                    -4.17211   3.74285  -6.01874 
 H                    -2.7124    7.44608  -4.44432 
 H                    -4.60429   1.94302  -3.0057 
 H                    -4.5238    2.90445  -3.72065 
 H                    -4.95553  -1.25851  -0.18608 
 H                    -3.26641   6.01366  -6.38058 
 N                    -4.40868   0.64661   0.63842 
 

 GradGradGradGradGradGradGradGradGradGradGradGradGradGradGradGradGradGrad
 Berny optimization.
 Initialization pass.
                           ----------------------------
                           !    Initial Parameters    !
                           ! (Angstroms and Degrees)  !
 --------------------------                            --------------------------
 ! Name  Definition              Value          Derivative Info.                !
 --------------------------------------------------------------------------------
 ! R1    R(1,2)                  1.4014         estimate D2E/DX2                !
 ! R2    R(1,20)                 1.07           estimate D2E/DX2                !
 ! R3    R(1,22)                 1.4014         estimate D2E/DX2                !
 ! R4    R(2,3)                  1.4014         estimate D2E/DX2                !
 ! R5    R(2,6)                  1.07           estimate D2E/DX2                !
 ! R6    R(3,4)                  1.4014         estimate D2E/DX2                !
 ! R7    R(3,18)                 1.07           estimate D2E/DX2                !
 ! R8    R(4,5)                  1.4014         estimate D2E/DX2                !
 ! R9    R(4,8)                  1.5523         estimate D2E/DX2                !
 ! R10   R(5,7)                  1.07           estimate D2E/DX2                !
 ! R11   R(5,22)                 1.4014         estimate D2E/DX2                !
 ! R12   R(8,9)                  1.6857         estimate D2E/DX2                !
 ! R13   R(9,10)                 1.4014         estimate D2E/DX2                !
 ! R14   R(9,11)                 1.4014         estimate D2E/DX2                !
 ! R15   R(10,12)                1.4014         estimate D2E/DX2                !
 ! R16   R(10,19)                1.07           estimate D2E/DX2                !
 ! R17   R(11,13)                1.4014         estimate D2E/DX2                !
 ! R18   R(11,14)                1.07           estimate D2E/DX2                !
 ! R19   R(12,15)                1.4014         estimate D2E/DX2                !
 ! R20   R(12,16)                1.07           estimate D2E/DX2                !
 ! R21   R(13,15)                1.4014         estimate D2E/DX2                !
 ! R22   R(13,17)                1.07           estimate D2E/DX2                !
 ! R23   R(15,21)                1.07           estimate D2E/DX2                !
 ! A1    A(2,1,20)             120.0            estimate D2E/DX2                !
 ! A2    A(2,1,22)             120.0            estimate D2E/DX2                !
 ! A3    A(20,1,22)            120.0            estimate D2E/DX2                !
 ! A4    A(1,2,3)              120.0            estimate D2E/DX2                !
 ! A5    A(1,2,6)              120.0            estimate D2E/DX2                !
 ! A6    A(3,2,6)              120.0            estimate D2E/DX2                !
 ! A7    A(2,3,4)              120.0            estimate D2E/DX2                !
 ! A8    A(2,3,18)             120.0            estimate D2E/DX2                !
 ! A9    A(4,3,18)             120.0            estimate D2E/DX2                !
 ! A10   A(3,4,5)              120.0            estimate D2E/DX2                !
 ! A11   A(3,4,8)              120.0            estimate D2E/DX2                !
 ! A12   A(5,4,8)              120.0            estimate D2E/DX2                !
 ! A13   A(4,5,7)              120.0            estimate D2E/DX2                !
 ! A14   A(4,5,22)             120.0            estimate D2E/DX2                !
 ! A15   A(7,5,22)             120.0            estimate D2E/DX2                !
 ! A16   A(4,8,9)              127.9526         estimate D2E/DX2                !
 ! A17   A(8,9,10)             115.5989         estimate D2E/DX2                !
 ! A18   A(8,9,11)             123.9281         estimate D2E/DX2                !
 ! A19   A(10,9,11)            120.0            estimate D2E/DX2                !
 ! A20   A(9,10,12)            120.0            estimate D2E/DX2                !
 ! A21   A(9,10,19)            120.0            estimate D2E/DX2                !
 ! A22   A(12,10,19)           120.0            estimate D2E/DX2                !
 ! A23   A(9,11,13)            120.0            estimate D2E/DX2                !
 ! A24   A(9,11,14)            120.0            estimate D2E/DX2                !
 ! A25   A(13,11,14)           120.0            estimate D2E/DX2                !
 ! A26   A(10,12,15)           120.0            estimate D2E/DX2                !
 ! A27   A(10,12,16)           120.0            estimate D2E/DX2                !
 ! A28   A(15,12,16)           120.0            estimate D2E/DX2                !
 ! A29   A(11,13,15)           120.0            estimate D2E/DX2                !
 ! A30   A(11,13,17)           120.0            estimate D2E/DX2                !
 ! A31   A(15,13,17)           120.0            estimate D2E/DX2                !
 ! A32   A(12,15,13)           120.0            estimate D2E/DX2                !
 ! A33   A(12,15,21)           120.0            estimate D2E/DX2                !
 ! A34   A(13,15,21)           120.0            estimate D2E/DX2                !
 ! A35   A(1,22,5)             120.0            estimate D2E/DX2                !
 ! D1    D(20,1,2,3)          -179.9999         estimate D2E/DX2                !
 ! D2    D(20,1,2,6)             0.0002         estimate D2E/DX2                !
 ! D3    D(22,1,2,3)             0.0001         estimate D2E/DX2                !
 ! D4    D(22,1,2,6)          -179.9998         estimate D2E/DX2                !
 ! D5    D(2,1,22,5)            -0.0001         estimate D2E/DX2                !
 ! D6    D(20,1,22,5)          179.9999         estimate D2E/DX2                !
 ! D7    D(1,2,3,4)              0.0001         estimate D2E/DX2                !
 ! D8    D(1,2,3,18)          -179.9999         estimate D2E/DX2                !
 ! D9    D(6,2,3,4)            179.9999         estimate D2E/DX2                !
 ! D10   D(6,2,3,18)            -0.0001         estimate D2E/DX2                !
 ! D11   D(2,3,4,5)             -0.0002         estimate D2E/DX2                !
 ! D12   D(2,3,4,8)            179.9998         estimate D2E/DX2                !
 ! D13   D(18,3,4,5)           179.9998         estimate D2E/DX2                !
 ! D14   D(18,3,4,8)            -0.0002         estimate D2E/DX2                !
 ! D15   D(3,4,5,7)           -180.0            estimate D2E/DX2                !
 ! D16   D(3,4,5,22)             0.0001         estimate D2E/DX2                !
 ! D17   D(8,4,5,7)              0.0            estimate D2E/DX2                !
 ! D18   D(8,4,5,22)          -179.9999         estimate D2E/DX2                !
 ! D19   D(3,4,8,9)             -5.2547         estimate D2E/DX2                !
 ! D20   D(5,4,8,9)            174.7453         estimate D2E/DX2                !
 ! D21   D(4,5,22,1)             0.0            estimate D2E/DX2                !
 ! D22   D(7,5,22,1)          -179.9999         estimate D2E/DX2                !
 ! D23   D(4,8,9,10)             4.3564         estimate D2E/DX2                !
 ! D24   D(4,8,9,11)          -167.7268         estimate D2E/DX2                !
 ! D25   D(8,9,10,12)         -172.4167         estimate D2E/DX2                !
 ! D26   D(8,9,10,19)            7.5833         estimate D2E/DX2                !
 ! D27   D(11,9,10,12)           0.0002         estimate D2E/DX2                !
 ! D28   D(11,9,10,19)        -179.9998         estimate D2E/DX2                !
 ! D29   D(8,9,11,13)          171.7535         estimate D2E/DX2                !
 ! D30   D(8,9,11,14)           -8.2466         estimate D2E/DX2                !
 ! D31   D(10,9,11,13)           0.0            estimate D2E/DX2                !
 ! D32   D(10,9,11,14)         179.9999         estimate D2E/DX2                !
 ! D33   D(9,10,12,15)          -0.0002         estimate D2E/DX2                !
 ! D34   D(9,10,12,16)         179.9998         estimate D2E/DX2                !
 ! D35   D(19,10,12,15)        179.9998         estimate D2E/DX2                !
 ! D36   D(19,10,12,16)         -0.0002         estimate D2E/DX2                !
 ! D37   D(9,11,13,15)          -0.0001         estimate D2E/DX2                !
 ! D38   D(9,11,13,17)         179.9999         estimate D2E/DX2                !
 ! D39   D(14,11,13,15)        179.9999         estimate D2E/DX2                !
 ! D40   D(14,11,13,17)          0.0            estimate D2E/DX2                !
 ! D41   D(10,12,15,13)          0.0001         estimate D2E/DX2                !
 ! D42   D(10,12,15,21)       -179.9999         estimate D2E/DX2                !
 ! D43   D(16,12,15,13)       -179.9999         estimate D2E/DX2                !
 ! D44   D(16,12,15,21)          0.0001         estimate D2E/DX2                !
 ! D45   D(11,13,15,12)          0.0001         estimate D2E/DX2                !
 ! D46   D(11,13,15,21)       -179.9999         estimate D2E/DX2                !
 ! D47   D(17,13,15,12)       -180.0            estimate D2E/DX2                !
 ! D48   D(17,13,15,21)          0.0            estimate D2E/DX2                !
 --------------------------------------------------------------------------------
 Trust Radius=3.00D-01 FncErr=1.00D-07 GrdErr=1.00D-06 EigMax=2.50D+02 EigMin=1.00D-04
 Number of steps in this run=    116 maximum allowed number of steps=    132.
 GradGradGradGradGradGradGradGradGradGradGradGradGradGradGradGradGradGrad

                          Input orientation:                          
 ---------------------------------------------------------------------
 Center     Atomic      Atomic             Coordinates (Angstroms)
 Number     Number       Type             X           Y           Z
 ---------------------------------------------------------------------
      1          6           0       -4.749416   -0.230579   -0.400021
      2          6           0       -4.820199    0.238538   -1.718672
      3          6           0       -4.550247    1.584841   -1.998879
      4          6           0       -4.209510    2.462026   -0.960435
      5          6           0       -4.138728    1.992910    0.358216
      6          1           0       -5.080361   -0.431212   -2.511547
      7          1           0       -3.878568    2.662660    1.151091
      8          8           0       -3.910486    3.953296   -1.270814
      9          6           0       -3.817523    4.699853   -2.779363
     10          6           0       -4.131676    3.887607   -3.877310
     11          6           0       -3.303947    5.987511   -2.984541
     12          6           0       -3.932249    4.363019   -5.180435
     13          6           0       -3.104523    6.462923   -4.287666
     14          1           0       -3.064085    6.607679   -2.146234
     15          6           0       -3.418674    5.650677   -5.385613
     16          1           0       -4.172109    3.742850   -6.018741
     17          1           0       -2.712397    7.446079   -4.444324
     18          1           0       -4.604292    1.943023   -3.005698
     19          1           0       -4.523805    2.904453   -3.720651
     20          1           0       -4.955530   -1.258512   -0.186077
     21          1           0       -3.266408    6.013665   -6.380578
     22          7           0       -4.408682    0.646607    0.638423
 ---------------------------------------------------------------------
                    Distance matrix (angstroms):
                    1          2          3          4          5
     1  C    0.000000
     2  C    1.401400   0.000000
     3  C    2.427296   1.401400   0.000000
     4  C    2.802800   2.427296   1.401400   0.000000
     5  C    2.427296   2.802800   2.427296   1.401400   0.000000
     6  H    2.146700   1.070000   2.146700   3.396345   3.872800
     7  H    3.396345   3.872800   3.396345   2.146700   1.070000
     8  O    4.355100   3.850660   2.559092   1.552300   2.559092
     9  C    5.553274   4.694012   3.293833   2.910330   4.156335
    10  C    5.425182   4.295286   3.001072   3.247537   4.640001
    11  C    6.887218   6.078827   4.680630   4.164864   5.275199
    12  C    6.679914   5.457435   4.268781   4.636706   6.027993
    13  C    7.913434   6.948831   5.578920   5.319647   6.529535
    14  H    7.256127   6.620627   5.240161   4.461452   5.359405
    15  C    7.824077   6.685954   5.411233   5.511362   6.847577
    16  H    6.905899   5.584874   4.578131   5.218081   6.612790
    17  H    8.912739   7.988783   6.611506   6.262556   7.405125
    18  H    3.396345   2.146700   1.070000   2.146700   3.396345
    19  H    4.572298   3.347069   2.169464   2.813062   4.197184
    20  H    1.070000   2.146700   3.396345   3.872800   3.396345
    21  H    8.772511   7.582857   6.360975   6.548399   7.895490
    22  N    1.401400   2.427296   2.802800   2.427296   1.401400
                    6          7          8          9         10
     6  H    0.000000
     7  H    4.942800   0.000000
     8  O    4.704459   2.744520   0.000000
     9  C    5.290965   4.427454   1.685736   0.000000
    10  C    4.627906   5.181638   2.616688   1.401400   0.000000
    11  C    6.676779   5.337441   2.728146   1.401400   2.427296
    12  C    5.605869   6.556091   3.931091   2.427296   1.401400
    13  C    7.388345   6.679913   4.006145   2.427296   2.802800
    14  H    7.331085   5.205662   2.920360   2.146700   3.396345
    15  C    6.928985   7.201962   4.478231   2.802800   2.427296
    16  H    5.527036   7.256685   4.759784   3.396345   2.146700
    17  H    8.449532   7.453169   4.868893   3.396345   3.872800
    18  H    2.471400   4.280590   2.744520   2.875821   2.182769
    19  H    3.591427   4.920231   2.734581   2.146700   1.070000
    20  H    2.471400   4.280590   5.425100   6.597143   6.386429
    21  H    7.732804   8.266197   5.547039   3.872800   3.396345
    22  N    3.396345   2.146700   3.850660   5.334748   5.565309
                   11         12         13         14         15
    11  C    0.000000
    12  C    2.802800   0.000000
    13  C    1.401400   2.427296   0.000000
    14  H    1.070000   3.872800   2.146700   0.000000
    15  C    2.427296   1.401400   1.401400   3.396345   0.000000
    16  H    3.872800   1.070000   3.396345   4.942800   2.146700
    17  H    2.146700   3.396345   1.070000   2.471400   2.146700
    18  H    4.248439   3.322273   4.931759   4.986976   4.562498
    19  H    3.396345   2.146700   3.872800   4.280590   3.396345
    20  H    7.941283   7.588960   8.936992   8.324466   8.782596
    21  H    3.396345   2.146700   2.146700   4.280590   1.070000
    22  N    6.547638   6.920825   7.732834   6.715403   7.893659
                   16         17         18         19         20
    16  H    0.000000
    17  H    4.280590   0.000000
    18  H    3.536183   5.994376   0.000000
    19  H    2.471400   4.942800   1.200826   0.000000
    20  H    7.723169   9.946568   4.280590   5.478127   0.000000
    21  H    2.471400   2.471400   5.454344   4.280590   9.701006
    22  N    7.345783   8.657051   3.872800   4.910464   2.146700
                   21         22
    21  H    0.000000
    22  N    8.909348   0.000000
 Stoichiometry    C11H9NO
 Framework group  C1[X(C11H9NO)]
 Deg. of freedom    60
 Full point group                 C1      NOp   1
 Largest Abelian subgroup         C1      NOp   1
 Largest concise Abelian subgroup C1      NOp   1
                         Standard orientation:                         
 ---------------------------------------------------------------------
 Center     Atomic      Atomic             Coordinates (Angstroms)
 Number     Number       Type             X           Y           Z
 ---------------------------------------------------------------------
      1          6           0        3.928498    0.721780    0.109626
      2          6           0        2.752793    1.477393    0.006242
      3          6           0        1.510995    0.833304   -0.077481
      4          6           0        1.444902   -0.566399   -0.057818
      5          6           0        2.620607   -1.322012    0.045565
      6          1           0        2.803256    2.546097   -0.008772
      7          1           0        2.570144   -2.390716    0.060578
      8          8           0        0.069390   -1.279842   -0.150552
      9          6           0       -1.463668   -0.578856   -0.158223
     10          6           0       -1.488759    0.822299   -0.165726
     11          6           0       -2.654372   -1.300139    0.002700
     12          6           0       -2.704554    1.502171   -0.012303
     13          6           0       -3.870168   -0.620267    0.156120
     14          1           0       -2.635215   -2.369952    0.008428
     15          6           0       -3.895259    0.780888    0.148619
     16          1           0       -2.723712    2.571984   -0.018029
     17          1           0       -4.779297   -1.170983    0.278987
     18          1           0        0.613318    1.410231   -0.156418
     19          1           0       -0.579631    1.373015   -0.288597
     20          1           0        4.876638    1.213556    0.173551
     21          1           0       -4.823545    1.299986    0.265760
     22          7           0        3.862405   -0.677923    0.129286
 ---------------------------------------------------------------------
 Rotational constants (GHZ):           2.4655414           0.3861162           0.3348783
 Standard basis: 6-31+G(d) (6D, 7F)
 There are   265 symmetry adapted cartesian basis functions of A   symmetry.
 There are   265 symmetry adapted basis functions of A   symmetry.
   265 basis functions,   452 primitive gaussians,   265 cartesian basis functions
    45 alpha electrons       45 beta electrons
       nuclear repulsion energy       676.1589796657 Hartrees.
 NAtoms=   22 NActive=   22 NUniq=   22 SFac= 1.00D+00 NAtFMM=   60 NAOKFM=F Big=F
 Integral buffers will be    131072 words long.
 Raffenetti 2 integral format.
 Two-electron integral symmetry is turned on.
 Nuclear repulsion after empirical dispersion term =      676.1438663278 Hartrees.
 One-electron integrals computed using PRISM.
 NBasis=   265 RedAO= T EigKep=  2.40D-06  NBF=   265
 NBsUse=   264 1.00D-06 EigRej=  7.38D-07 NBFU=   264
 ExpMin= 4.38D-02 ExpMax= 5.48D+03 ExpMxC= 8.25D+02 IAcc=3 IRadAn=         5 AccDes= 0.00D+00
 Harris functional with IExCor=  402 and IRadAn=       5 diagonalized for initial guess.
 HarFok:  IExCor=  402 AccDes= 0.00D+00 IRadAn=         5 IDoV= 1 UseB2=F ITyADJ=14
 ICtDFT=  3500011 ScaDFX=  1.000000  1.000000  1.000000  1.000000
 FoFCou: FMM=F IPFlag=           0 FMFlag=      100000 FMFlg1=           0
         NFxFlg=           0 DoJE=T BraDBF=F KetDBF=T FulRan=T
         wScrn=  0.000000 ICntrl=       500 IOpCl=  0 I1Cent=   200000004 NGrid=           0
         NMat0=    1 NMatS0=      1 NMatT0=    0 NMatD0=    1 NMtDS0=    0 NMtDT0=    0
 Petite list used in FoFCou.
 Requested convergence on RMS density matrix=1.00D-08 within 128 cycles.
 Requested convergence on MAX density matrix=1.00D-06.
 Requested convergence on             energy=1.00D-06.
 No special actions if energy rises.
 SCF Done:  E(RB3LYP) =  -554.483582289     A.U. after   15 cycles
            NFock= 15  Conv=0.40D-08     -V/T= 2.0110

 **********************************************************************

            Population analysis using the SCF Density.

 **********************************************************************

 Orbital symmetries:
       Occupied  (A) (A) (A) (A) (A) (A) (A) (A) (A) (A) (A) (A)
                 (A) (A) (A) (A) (A) (A) (A) (A) (A) (A) (A) (A)
                 (A) (A) (A) (A) (A) (A) (A) (A) (A) (A) (A) (A)
                 (A) (A) (A) (A) (A) (A) (A) (A) (A)
       Virtual   (A) (A) (A) (A) (A) (A) (A) (A) (A) (A) (A) (A)
                 (A) (A) (A) (A) (A) (A) (A) (A) (A) (A) (A) (A)
                 (A) (A) (A) (A) (A) (A) (A) (A) (A) (A) (A) (A)
                 (A) (A) (A) (A) (A) (A) (A) (A) (A) (A) (A) (A)
                 (A) (A) (A) (A) (A) (A) (A) (A) (A) (A) (A) (A)
                 (A) (A) (A) (A) (A) (A) (A) (A) (A) (A) (A) (A)
                 (A) (A) (A) (A) (A) (A) (A) (A) (A) (A) (A) (A)
                 (A) (A) (A) (A) (A) (A) (A) (A) (A) (A) (A) (A)
                 (A) (A) (A) (A) (A) (A) (A) (A) (A) (A) (A) (A)
                 (A) (A) (A) (A) (A) (A) (A) (A) (A) (A) (A) (A)
                 (A) (A) (A) (A) (A) (A) (A) (A) (A) (A) (A) (A)
                 (A) (A) (A) (A) (A) (A) (A) (A) (A) (A) (A) (A)
                 (A) (A) (A) (A) (A) (A) (A) (A) (A) (A) (A) (A)
                 (A) (A) (A) (A) (A) (A) (A) (A) (A) (A) (A) (A)
                 (A) (A) (A) (A) (A) (A) (A) (A) (A) (A) (A) (A)
                 (A) (A) (A) (A) (A) (A) (A) (A) (A) (A) (A) (A)
                 (A) (A) (A) (A) (A) (A) (A) (A) (A) (A) (A) (A)
                 (A) (A) (A) (A) (A) (A) (A) (A) (A) (A) (A) (A)
                 (A) (A) (A)
 The electronic state is 1-A.
 Alpha  occ. eigenvalues --  -19.19226 -14.35941 -10.28749 -10.27986 -10.24473
 Alpha  occ. eigenvalues --  -10.23913 -10.22347 -10.22039 -10.21958 -10.21788
 Alpha  occ. eigenvalues --  -10.21664 -10.21584 -10.21322  -0.97911  -0.92512
 Alpha  occ. eigenvalues --   -0.87695  -0.80854  -0.77550  -0.77474  -0.75821
 Alpha  occ. eigenvalues --   -0.65955  -0.63303  -0.62967  -0.61619  -0.55759
 Alpha  occ. eigenvalues --   -0.53594  -0.49607  -0.49008  -0.47903  -0.47225
 Alpha  occ. eigenvalues --   -0.45838  -0.45353  -0.41746  -0.41156  -0.41002
 Alpha  occ. eigenvalues --   -0.39317  -0.38477  -0.36330  -0.34269  -0.32660
 Alpha  occ. eigenvalues --   -0.29052  -0.27984  -0.27715  -0.26810  -0.24358
 Alpha virt. eigenvalues --   -0.05171  -0.04120  -0.03324  -0.02808  -0.01844
 Alpha virt. eigenvalues --   -0.00002   0.00697   0.01880   0.02788   0.03475
 Alpha virt. eigenvalues --    0.04490   0.04855   0.05257   0.05603   0.06187
 Alpha virt. eigenvalues --    0.06816   0.07440   0.07746   0.08218   0.08994
 Alpha virt. eigenvalues --    0.09074   0.10467   0.11413   0.11551   0.11915
 Alpha virt. eigenvalues --    0.12108   0.12582   0.12940   0.13426   0.14283
 Alpha virt. eigenvalues --    0.14576   0.14866   0.15369   0.15418   0.16338
 Alpha virt. eigenvalues --    0.17034   0.18057   0.18639   0.19110   0.19618
 Alpha virt. eigenvalues --    0.20000   0.20132   0.20684   0.21378   0.21800
 Alpha virt. eigenvalues --    0.22387   0.22448   0.23104   0.23946   0.24566
 Alpha virt. eigenvalues --    0.25166   0.25405   0.25699   0.25968   0.26469
 Alpha virt. eigenvalues --    0.26793   0.27464   0.28382   0.29037   0.29539
 Alpha virt. eigenvalues --    0.30076   0.31011   0.31159   0.32137   0.32792
 Alpha virt. eigenvalues --    0.33413   0.34127   0.35499   0.35705   0.37145
 Alpha virt. eigenvalues --    0.38367   0.39218   0.39881   0.40405   0.44108
 Alpha virt. eigenvalues --    0.48234   0.53539   0.55488   0.56626   0.58962
 Alpha virt. eigenvalues --    0.60534   0.63726   0.65723   0.66566   0.67459
 Alpha virt. eigenvalues --    0.68671   0.69992   0.70939   0.71284   0.72015
 Alpha virt. eigenvalues --    0.72379   0.72582   0.74093   0.75502   0.76197
 Alpha virt. eigenvalues --    0.76696   0.77310   0.78060   0.78643   0.81413
 Alpha virt. eigenvalues --    0.82680   0.87234   0.89753   0.90579   0.91825
 Alpha virt. eigenvalues --    0.93178   0.94181   0.94477   0.95432   0.96154
 Alpha virt. eigenvalues --    0.99710   1.00574   1.00753   1.03737   1.06272
 Alpha virt. eigenvalues --    1.07708   1.09580   1.10526   1.11436   1.11999
 Alpha virt. eigenvalues --    1.14489   1.16190   1.16894   1.18246   1.19095
 Alpha virt. eigenvalues --    1.20849   1.21204   1.22380   1.23155   1.23932
 Alpha virt. eigenvalues --    1.27046   1.28149   1.29992   1.32527   1.35312
 Alpha virt. eigenvalues --    1.35655   1.40586   1.41841   1.42701   1.43958
 Alpha virt. eigenvalues --    1.44910   1.45412   1.46390   1.46719   1.47169
 Alpha virt. eigenvalues --    1.47380   1.50249   1.51519   1.55257   1.62856
 Alpha virt. eigenvalues --    1.68045   1.75140   1.77028   1.78246   1.80272
 Alpha virt. eigenvalues --    1.81494   1.83347   1.86211   1.89193   1.93200
 Alpha virt. eigenvalues --    1.94312   1.94912   1.95823   1.96801   1.98636
 Alpha virt. eigenvalues --    2.01010   2.07790   2.09124   2.10829   2.12457
 Alpha virt. eigenvalues --    2.13479   2.13795   2.14706   2.14978   2.15661
 Alpha virt. eigenvalues --    2.19581   2.21737   2.24509   2.27697   2.27743
 Alpha virt. eigenvalues --    2.28232   2.28905   2.30628   2.37663   2.42998
 Alpha virt. eigenvalues --    2.47464   2.58475   2.60170   2.61581   2.62069
 Alpha virt. eigenvalues --    2.62587   2.65226   2.67787   2.69672   2.71040
 Alpha virt. eigenvalues --    2.73270   2.75692   2.76957   2.78237   2.80468
 Alpha virt. eigenvalues --    2.90948   2.97817   3.03952   3.06075   3.36210
 Alpha virt. eigenvalues --    3.38484   4.13985   4.21150   4.23582   4.25442
 Alpha virt. eigenvalues --    4.28602   4.31669   4.34106   4.38604   4.39603
 Alpha virt. eigenvalues --    4.40621   4.44022   4.67722   4.69478
          Condensed to atoms (all electrons):
               1          2          3          4          5          6
     1  C    5.862102   0.054777  -0.014355  -0.509191   0.252648   0.011946
     2  C    0.054777   7.487665  -1.338842   0.406723  -0.716352   0.352109
     3  C   -0.014355  -1.338842   8.167630  -0.555298  -0.561006  -0.065645
     4  C   -0.509191   0.406723  -0.555298   8.377841  -2.237218   0.010810
     5  C    0.252648  -0.716352  -0.561006  -2.237218   9.491912  -0.016443
     6  H    0.011946   0.352109  -0.065645   0.010810  -0.016443   0.530751
     7  H    0.028005  -0.030306   0.055644  -0.221950   0.520624   0.000021
     8  O    0.005019  -0.005653  -0.084566   0.227174  -0.119837  -0.000181
     9  C   -0.035005   0.094595  -0.130927  -0.134325   0.298251  -0.003785
    10  C    0.044132  -0.049469   0.000076   0.054095  -0.114996  -0.001966
    11  C   -0.008880  -0.172340  -0.280000   0.296297   0.039047  -0.000565
    12  C   -0.015576   0.015773   0.318529  -0.222895  -0.295334   0.001809
    13  C   -0.001015   0.012689   0.046004  -0.039713  -0.015095   0.000000
    14  H    0.000015  -0.000050   0.001841  -0.002639  -0.000811   0.000000
    15  C    0.001353  -0.011989   0.010962  -0.010744  -0.003664   0.000149
    16  H    0.000055   0.002158  -0.002014  -0.001419   0.000028   0.000000
    17  H    0.000001   0.000024   0.000147   0.000134  -0.000033   0.000000
    18  H    0.007879  -0.009242   0.173433   0.017404   0.023535  -0.008732
    19  H   -0.000319  -0.012451   0.014406   0.011446  -0.011152   0.000310
    20  H    0.417004  -0.154514   0.067429  -0.029424   0.044021  -0.000945
    21  H   -0.000001  -0.000048  -0.000474   0.000530   0.000026   0.000000
    22  N    0.231840  -0.010577  -0.006862   0.312303  -0.061461   0.004939
               7          8          9         10         11         12
     1  C    0.028005   0.005019  -0.035005   0.044132  -0.008880  -0.015576
     2  C   -0.030306  -0.005653   0.094595  -0.049469  -0.172340   0.015773
     3  C    0.055644  -0.084566  -0.130927   0.000076  -0.280000   0.318529
     4  C   -0.221950   0.227174  -0.134325   0.054095   0.296297  -0.222895
     5  C    0.520624  -0.119837   0.298251  -0.114996   0.039047  -0.295334
     6  H    0.000021  -0.000181  -0.003785  -0.001966  -0.000565   0.001809
     7  H    0.520743  -0.000010  -0.003658  -0.000157  -0.001686  -0.001006
     8  O   -0.000010   8.381617   0.290546  -0.080936  -0.145499  -0.011940
     9  C   -0.003658   0.290546   8.561420  -0.028558  -2.029215  -0.273691
    10  C   -0.000157  -0.080936  -0.028558   9.186765  -0.505750  -2.250272
    11  C   -0.001686  -0.145499  -2.029215  -0.505750   8.043708   0.333699
    12  C   -0.001006  -0.011940  -0.273691  -2.250272   0.333699   7.629050
    13  C   -0.000147   0.016008   0.110533  -0.548597   0.335272   0.204547
    14  H    0.000000  -0.002009   0.005635   0.056289   0.294055  -0.023876
    15  C    0.000062  -0.011823  -0.469299  -0.126890   0.090561   0.465029
    16  H    0.000000  -0.000210   0.027118   0.010358  -0.028365   0.307118
    17  H    0.000000  -0.000131   0.017089  -0.011939  -0.024556   0.011074
    18  H   -0.000160  -0.010596   0.049038  -0.022312   0.008689  -0.021492
    19  H    0.000004  -0.011899   0.042565   0.048589   0.035013   0.073751
    20  H    0.000006   0.000068   0.000403  -0.000391   0.000054  -0.000198
    21  H    0.000000   0.000050  -0.003383   0.032762   0.007572  -0.006738
    22  N   -0.076058   0.005979  -0.008439   0.001090  -0.001054   0.002668
              13         14         15         16         17         18
     1  C   -0.001015   0.000015   0.001353   0.000055   0.000001   0.007879
     2  C    0.012689  -0.000050  -0.011989   0.002158   0.000024  -0.009242
     3  C    0.046004   0.001841   0.010962  -0.002014   0.000147   0.173433
     4  C   -0.039713  -0.002639  -0.010744  -0.001419   0.000134   0.017404
     5  C   -0.015095  -0.000811  -0.003664   0.000028  -0.000033   0.023535
     6  H    0.000000   0.000000   0.000149   0.000000   0.000000  -0.008732
     7  H   -0.000147   0.000000   0.000062   0.000000   0.000000  -0.000160
     8  O    0.016008  -0.002009  -0.011823  -0.000210  -0.000131  -0.010596
     9  C    0.110533   0.005635  -0.469299   0.027118   0.017089   0.049038
    10  C   -0.548597   0.056289  -0.126890   0.010358  -0.011939  -0.022312
    11  C    0.335272   0.294055   0.090561  -0.028365  -0.024556   0.008689
    12  C    0.204547  -0.023876   0.465029   0.307118   0.011074  -0.021492
    13  C    5.285878  -0.053040   0.447797   0.005824   0.312969   0.002375
    14  H   -0.053040   0.508830   0.014912   0.000015  -0.005436   0.000004
    15  C    0.447797   0.014912   5.306986  -0.026720  -0.006635  -0.003647
    16  H    0.005824   0.000015  -0.026720   0.532770  -0.000174   0.000307
    17  H    0.312969  -0.005436  -0.006635  -0.000174   0.519918   0.000000
    18  H    0.002375   0.000004  -0.003647   0.000307   0.000000   0.652365
    19  H    0.012227  -0.000200   0.007291  -0.009005   0.000013  -0.002161
    20  H   -0.000003   0.000000   0.000000   0.000000   0.000000  -0.000158
    21  H   -0.026998  -0.000145   0.290492  -0.004605  -0.004667   0.000001
    22  N    0.000116   0.000002  -0.000074   0.000001   0.000000  -0.001115
              19         20         21         22
     1  C   -0.000319   0.417004  -0.000001   0.231840
     2  C   -0.012451  -0.154514  -0.000048  -0.010577
     3  C    0.014406   0.067429  -0.000474  -0.006862
     4  C    0.011446  -0.029424   0.000530   0.312303
     5  C   -0.011152   0.044021   0.000026  -0.061461
     6  H    0.000310  -0.000945   0.000000   0.004939
     7  H    0.000004   0.000006   0.000000  -0.076058
     8  O   -0.011899   0.000068   0.000050   0.005979
     9  C    0.042565   0.000403  -0.003383  -0.008439
    10  C    0.048589  -0.000391   0.032762   0.001090
    11  C    0.035013   0.000054   0.007572  -0.001054
    12  C    0.073751  -0.000198  -0.006738   0.002668
    13  C    0.012227  -0.000003  -0.026998   0.000116
    14  H   -0.000200   0.000000  -0.000145   0.000002
    15  C    0.007291   0.000000   0.290492  -0.000074
    16  H   -0.009005   0.000000  -0.004605   0.000001
    17  H    0.000013   0.000000  -0.004667   0.000000
    18  H   -0.002161  -0.000158   0.000001  -0.001115
    19  H    0.652162   0.000000  -0.000189   0.000328
    20  H    0.000000   0.534943   0.000000  -0.070810
    21  H   -0.000189   0.000000   0.532241   0.000000
    22  N    0.000328  -0.070810   0.000000   6.890453
 Mulliken charges:
               1
     1  C   -0.332435
     2  C    0.085318
     3  C    0.183889
     4  C    0.250058
     5  C   -0.516689
     6  H    0.185418
     7  H    0.210029
     8  O   -0.441172
     9  C   -0.376906
    10  C    0.308076
    11  C   -0.286058
    12  C   -0.240029
    13  C   -0.107632
    14  H    0.206608
    15  C    0.035891
    16  H    0.186762
    17  H    0.192202
    18  H    0.144582
    19  H    0.149270
    20  H    0.192514
    21  H    0.183574
    22  N   -0.213270
 Sum of Mulliken charges =   0.00000
 Mulliken charges with hydrogens summed into heavy atoms:
               1
     1  C   -0.139921
     2  C    0.270737
     3  C    0.328471
     4  C    0.250058
     5  C   -0.306661
     8  O   -0.441172
     9  C   -0.376906
    10  C    0.457346
    11  C   -0.079449
    12  C   -0.053267
    13  C    0.084570
    15  C    0.219465
    22  N   -0.213270
 Electronic spatial extent (au):  <R**2>=           3100.1289
 Charge=              0.0000 electrons
 Dipole moment (field-independent basis, Debye):
    X=             -3.1528    Y=              2.8650    Z=              0.0837  Tot=              4.2609
 Quadrupole moment (field-independent basis, Debye-Ang):
   XX=            -73.1230   YY=            -68.4376   ZZ=            -81.8531
   XY=              7.5643   XZ=             -1.3678   YZ=             -0.3440
 Traceless Quadrupole moment (field-independent basis, Debye-Ang):
   XX=              1.3483   YY=              6.0336   ZZ=             -7.3819
   XY=              7.5643   XZ=             -1.3678   YZ=             -0.3440
 Octapole moment (field-independent basis, Debye-Ang**2):
  XXX=            -88.9409  YYY=              2.1552  ZZZ=             -0.3993  XYY=             -3.6387
  XXY=             29.3734  XXZ=              4.7490  XZZ=              4.1326  YZZ=             -2.6560
  YYZ=              0.4542  XYZ=              1.3795
 Hexadecapole moment (field-independent basis, Debye-Ang**3):
 XXXX=          -3543.0118 YYYY=           -586.3275 ZZZZ=           -104.3823 XXXY=            190.3254
 XXXZ=            -37.2605 YYYX=              4.6949 YYYZ=             -1.7545 ZZZX=              0.1215
 ZZZY=              0.4315 XXYY=           -638.9575 XXZZ=           -679.2098 YYZZ=           -136.6307
 XXYZ=              7.3812 YYXZ=             -2.1000 ZZXY=             -0.5645
 N-N= 6.761438663278D+02 E-N=-2.638375914719D+03  KE= 5.484737854263D+02
 Evaluate density.
 Using the total density.
 Monte-Carlo method of calculating molar volume:
 based on  0.001 e/bohr**3 density envelope.
 Number of points per bohr**3 =   20 CutOff= 1.00D-04
 Using the SCF density.
 There are       381 points.  Will hold       381 in memory.
 LenV=  4026358861 MDV=  4026531840.
 Box volume = 6962.245 fraction occupied=0.205
 Integrated density= 7.5331156490621638D+01 error=-1.4668843509378362D+01
 Molar volume = 1425.341 bohr**3/mol (127.196 cm**3/mol)
 Recommended a0 for SCRF calculation =  4.57 angstrom (  8.63 bohr)
 Calling FoFJK, ICntrl=      2127 FMM=F ISym2X=0 I1Cent= 0 IOpClX= 0 NMat=1 NMatS=1 NMatT=0.
 ***** Axes restored to original set *****
 -------------------------------------------------------------------
 Center     Atomic                   Forces (Hartrees/Bohr)
 Number     Number              X              Y              Z
 -------------------------------------------------------------------
      1        6           0.016365382    0.062425309    0.015041284
      2        6           0.003928616    0.008579787    0.014772219
      3        6          -0.001220924   -0.013516394    0.018172731
      4        6           0.007816062    0.052359004   -0.043382243
      5        6          -0.013153070   -0.045794371   -0.019442520
      6        1          -0.003064181   -0.007361611   -0.009904979
      7        1           0.002030768    0.001392097    0.012240837
      8        8          -0.003244510   -0.006843962   -0.024478124
      9        6          -0.002760406   -0.057929494    0.028106091
     10        6           0.002531529    0.016469114   -0.004288335
     11        6          -0.004106725   -0.011517018    0.018269867
     12        6           0.003453167    0.014713805    0.013285420
     13        6          -0.010604801   -0.020433114   -0.000854330
     14        1           0.003680828    0.005822943    0.009936620
     15        6          -0.001456660   -0.004891681    0.011328760
     16        1          -0.003125129   -0.007756098   -0.008523190
     17        1           0.004065485    0.010796563    0.000707253
     18        1          -0.002161463   -0.020849061    0.012654037
     19        1           0.000764512    0.018542550   -0.017020739
     20        1          -0.000433543   -0.008628024    0.011235463
     21        1           0.002143332    0.004042987   -0.011043218
     22        7          -0.001448266    0.010376670   -0.026812905
 -------------------------------------------------------------------
 Cartesian Forces:  Max     0.062425309 RMS     0.018410590

 GradGradGradGradGradGradGradGradGradGradGradGradGradGradGradGradGradGrad
 Berny optimization.
 FormGI is forming the generalized inverse of G from B-inverse, IUseBI=4.
 Internal  Forces:  Max     0.169019075 RMS     0.028223371
 Search for a local minimum.
 Step number   1 out of a maximum of  116
 All quantities printed in internal units (Hartrees-Bohrs-Radians)
 Mixed Optimization -- RFO/linear search
 Second derivative matrix not updated -- first step.
 ITU=  0
     Eigenvalues ---    0.00230   0.00230   0.01707   0.01768   0.01786
     Eigenvalues ---    0.01922   0.01953   0.02035   0.02070   0.02070
     Eigenvalues ---    0.02070   0.02070   0.02070   0.02070   0.02070
     Eigenvalues ---    0.02070   0.02070   0.02070   0.02070   0.16000
     Eigenvalues ---    0.16000   0.16000   0.16000   0.16000   0.16000
     Eigenvalues ---    0.16000   0.16000   0.16000   0.18708   0.22000
     Eigenvalues ---    0.22000   0.22000   0.23189   0.23439   0.23485
     Eigenvalues ---    0.24759   0.25000   0.25000   0.27457   0.37230
     Eigenvalues ---    0.37230   0.37230   0.37230   0.37230   0.37230
     Eigenvalues ---    0.37230   0.37230   0.37230   0.41268   0.41399
     Eigenvalues ---    0.41450   0.41977   0.45389   0.45389   0.45389
     Eigenvalues ---    0.45389   0.45389   0.45389   0.45389   0.45389
 RFO step:  Lambda=-1.89029811D-01 EMin= 2.30000000D-03
 Linear search not attempted -- first point.
 Maximum step size (   0.300) exceeded in Quadratic search.
    -- Step size scaled by   0.462
 Iteration  1 RMS(Cart)=  0.25202594 RMS(Int)=  0.01447929
 Iteration  2 RMS(Cart)=  0.11546853 RMS(Int)=  0.00237055
 Iteration  3 RMS(Cart)=  0.00511667 RMS(Int)=  0.00014473
 Iteration  4 RMS(Cart)=  0.00000270 RMS(Int)=  0.00014473
 Iteration  5 RMS(Cart)=  0.00000000 RMS(Int)=  0.00014473
 Variable       Old X    -DE/DX   Delta X   Delta X   Delta X     New X
                                 (Linear)    (Quad)   (Total)
    R1        2.64826  -0.01064   0.00000  -0.00771  -0.00774   2.64052
    R2        2.02201   0.01062   0.00000   0.00874   0.00874   2.03075
    R3        2.64826  -0.05839   0.00000  -0.04307  -0.04309   2.60517
    R4        2.64826  -0.00963   0.00000  -0.00587  -0.00589   2.64238
    R5        2.02201   0.01269   0.00000   0.01045   0.01045   2.03245
    R6        2.64826  -0.00372   0.00000  -0.00156  -0.00154   2.64672
    R7        2.02201  -0.01878   0.00000  -0.01545  -0.01545   2.00655
    R8        2.64826  -0.00309   0.00000  -0.00216  -0.00213   2.64614
    R9        2.93342  -0.04220   0.00000  -0.04206  -0.04206   2.89136
   R10        2.02201   0.01044   0.00000   0.00859   0.00859   2.03060
   R11        2.64826  -0.05528   0.00000  -0.04077  -0.04076   2.60750
   R12        3.18558  -0.05024   0.00000  -0.06172  -0.06172   3.12386
   R13        2.64826  -0.00264   0.00000  -0.00187  -0.00187   2.64639
   R14        2.64826  -0.01209   0.00000  -0.00879  -0.00879   2.63947
   R15        2.64826  -0.00172   0.00000  -0.00111  -0.00111   2.64715
   R16        2.02201  -0.01981   0.00000  -0.01630  -0.01630   2.00570
   R17        2.64826  -0.00482   0.00000  -0.00359  -0.00359   2.64467
   R18        2.02201   0.01199   0.00000   0.00986   0.00986   2.03187
   R19        2.64826  -0.00923   0.00000  -0.00653  -0.00653   2.64173
   R20        2.02201   0.01187   0.00000   0.00977   0.00977   2.03178
   R21        2.64826  -0.00942   0.00000  -0.00680  -0.00679   2.64147
   R22        2.02201   0.01131   0.00000   0.00931   0.00931   2.03131
   R23        2.02201   0.01195   0.00000   0.00983   0.00983   2.03184
    A1        2.09440   0.00350   0.00000   0.00678   0.00681   2.10120
    A2        2.09440   0.01198   0.00000   0.01156   0.01151   2.10590
    A3        2.09440  -0.01548   0.00000  -0.01834  -0.01832   2.07608
    A4        2.09440  -0.00188   0.00000  -0.00064  -0.00068   2.09372
    A5        2.09440   0.00172   0.00000   0.00134   0.00137   2.09576
    A6        2.09440   0.00017   0.00000  -0.00071  -0.00069   2.09371
    A7        2.09440  -0.00866   0.00000  -0.00641  -0.00641   2.08799
    A8        2.09440  -0.01153   0.00000  -0.01779  -0.01779   2.07660
    A9        2.09440   0.02019   0.00000   0.02420   0.02420   2.11859
   A10        2.09440  -0.02107   0.00000  -0.02052  -0.02046   2.07393
   A11        2.09440   0.10580   0.00000   0.11050   0.11048   2.20487
   A12        2.09440  -0.08472   0.00000  -0.08999  -0.09001   2.00438
   A13        2.09440  -0.00602   0.00000  -0.00462  -0.00464   2.08976
   A14        2.09440   0.02591   0.00000   0.02758   0.02762   2.12202
   A15        2.09440  -0.01988   0.00000  -0.02296  -0.02299   2.07141
   A16        2.23319   0.16902   0.00000   0.17786   0.17786   2.41106
   A17        2.01758   0.10550   0.00000   0.11199   0.11206   2.12964
   A18        2.16295  -0.09794   0.00000  -0.10328  -0.10338   2.05957
   A19        2.09440  -0.00694   0.00000  -0.00718  -0.00718   2.08722
   A20        2.09440   0.00073   0.00000   0.00092   0.00091   2.09530
   A21        2.09440   0.01402   0.00000   0.01858   0.01858   2.11297
   A22        2.09440  -0.01475   0.00000  -0.01950  -0.01950   2.07489
   A23        2.09440   0.00515   0.00000   0.00530   0.00530   2.09969
   A24        2.09440  -0.00345   0.00000  -0.00380  -0.00380   2.09059
   A25        2.09440  -0.00170   0.00000  -0.00149  -0.00149   2.09290
   A26        2.09440   0.00426   0.00000   0.00503   0.00503   2.09942
   A27        2.09440  -0.00340   0.00000  -0.00420  -0.00419   2.09020
   A28        2.09440  -0.00086   0.00000  -0.00084  -0.00083   2.09356
   A29        2.09440   0.00329   0.00000   0.00330   0.00331   2.09770
   A30        2.09440  -0.00406   0.00000  -0.00485  -0.00485   2.08954
   A31        2.09440   0.00077   0.00000   0.00155   0.00155   2.09594
   A32        2.09440  -0.00649   0.00000  -0.00737  -0.00737   2.08702
   A33        2.09440   0.00341   0.00000   0.00391   0.00391   2.09830
   A34        2.09440   0.00308   0.00000   0.00346   0.00346   2.09786
   A35        2.09440  -0.00627   0.00000  -0.01157  -0.01158   2.08281
    D1       -3.14159   0.00001   0.00000   0.00001   0.00002  -3.14158
    D2        0.00000  -0.00004   0.00000  -0.00008  -0.00008  -0.00007
    D3        0.00000  -0.00006   0.00000  -0.00014  -0.00014  -0.00014
    D4       -3.14159  -0.00011   0.00000  -0.00023  -0.00023   3.14137
    D5        0.00000   0.00000   0.00000   0.00000   0.00000   0.00000
    D6        3.14159  -0.00007   0.00000  -0.00015  -0.00015   3.14144
    D7        0.00000   0.00002   0.00000   0.00004   0.00004   0.00004
    D8       -3.14159  -0.00032   0.00000  -0.00071  -0.00070   3.14090
    D9        3.14159   0.00006   0.00000   0.00014   0.00013  -3.14146
   D10        0.00000  -0.00028   0.00000  -0.00061  -0.00061  -0.00061
   D11        0.00000   0.00009   0.00000   0.00019   0.00018   0.00018
   D12        3.14159   0.00015   0.00000   0.00034   0.00034  -3.14125
   D13        3.14159   0.00043   0.00000   0.00094   0.00094  -3.14066
   D14        0.00000   0.00049   0.00000   0.00109   0.00110   0.00110
   D15       -3.14159  -0.00003   0.00000  -0.00006  -0.00006   3.14154
   D16        0.00000  -0.00015   0.00000  -0.00032  -0.00032  -0.00032
   D17        0.00000  -0.00009   0.00000  -0.00021  -0.00020  -0.00020
   D18       -3.14159  -0.00021   0.00000  -0.00047  -0.00046   3.14113
   D19       -0.09171   0.00113   0.00000   0.00272   0.00272  -0.08899
   D20        3.04988   0.00119   0.00000   0.00287   0.00287   3.05275
   D21        0.00000   0.00010   0.00000   0.00023   0.00023   0.00023
   D22       -3.14159  -0.00002   0.00000  -0.00004  -0.00003   3.14156
   D23        0.07603   0.01141   0.00000   0.02717   0.02687   0.10290
   D24       -2.92738   0.00548   0.00000   0.01361   0.01392  -2.91346
   D25       -3.00924   0.00361   0.00000  -0.00087  -0.00167  -3.01090
   D26        0.13235   0.00561   0.00000   0.00503   0.00443   0.13678
   D27        0.00000   0.00106   0.00000   0.00342   0.00353   0.00353
   D28       -3.14159   0.00306   0.00000   0.00932   0.00962  -3.13197
   D29        2.99766   0.01146   0.00000   0.01715   0.01651   3.01417
   D30       -0.14393   0.01046   0.00000   0.01652   0.01602  -0.12791
   D31        0.00000  -0.00264   0.00000  -0.00536  -0.00534  -0.00534
   D32        3.14159  -0.00364   0.00000  -0.00599  -0.00583   3.13576
   D33        0.00000   0.00121   0.00000   0.00101   0.00085   0.00085
   D34        3.14159   0.00048   0.00000   0.00096   0.00093  -3.14066
   D35        3.14159  -0.00079   0.00000  -0.00489  -0.00511   3.13648
   D36        0.00000  -0.00152   0.00000  -0.00494  -0.00503  -0.00503
   D37        0.00000   0.00195   0.00000   0.00288   0.00278   0.00277
   D38        3.14159   0.00052   0.00000   0.00123   0.00125  -3.14035
   D39        3.14159   0.00295   0.00000   0.00351   0.00327  -3.13833
   D40        0.00000   0.00152   0.00000   0.00185   0.00174   0.00174
   D41        0.00000  -0.00190   0.00000  -0.00349  -0.00342  -0.00342
   D42       -3.14159  -0.00080   0.00000  -0.00097  -0.00090   3.14070
   D43       -3.14159  -0.00116   0.00000  -0.00344  -0.00350   3.13809
   D44        0.00000  -0.00006   0.00000  -0.00093  -0.00098  -0.00098
   D45        0.00000   0.00032   0.00000   0.00154   0.00162   0.00162
   D46       -3.14159  -0.00078   0.00000  -0.00097  -0.00090   3.14069
   D47       -3.14159   0.00175   0.00000   0.00320   0.00315  -3.13844
   D48        0.00000   0.00065   0.00000   0.00068   0.00063   0.00063
         Item               Value     Threshold  Converged?
 Maximum Force            0.169019     0.000450     NO 
 RMS     Force            0.028223     0.000300     NO 
 Maximum Displacement     1.131785     0.001800     NO 
 RMS     Displacement     0.360900     0.001200     NO 
 Predicted change in Energy=-7.582704D-02
 GradGradGradGradGradGradGradGradGradGradGradGradGradGradGradGradGradGrad

                          Input orientation:                          
 ---------------------------------------------------------------------
 Center     Atomic      Atomic             Coordinates (Angstroms)
 Number     Number       Type             X           Y           Z
 ---------------------------------------------------------------------
      1          6           0       -4.719409   -0.222361   -0.026506
      2          6           0       -4.862830   -0.036397   -1.403933
      3          6           0       -4.633663    1.223213   -1.966134
      4          6           0       -4.260873    2.292183   -1.141533
      5          6           0       -4.126518    2.068686    0.234246
      6          1           0       -5.149205   -0.860993   -2.032257
      7          1           0       -3.841122    2.878456    0.880364
      8          8           0       -3.974221    3.726418   -1.590792
      9          6           0       -3.860749    4.574107   -3.005435
     10          6           0       -4.169996    3.997335   -4.243516
     11          6           0       -3.298147    5.851769   -2.961074
     12          6           0       -3.911398    4.698585   -5.428276
     13          6           0       -3.038294    6.550448   -4.145525
     14          1           0       -3.064463    6.299759   -2.011972
     15          6           0       -3.343418    5.975118   -5.382357
     16          1           0       -4.151484    4.251643   -6.376218
     17          1           0       -2.604056    7.532729   -4.100535
     18          1           0       -4.746524    1.346856   -3.014676
     19          1           0       -4.606046    3.031576   -4.304169
     20          1           0       -4.893798   -1.187444    0.412838
     21          1           0       -3.144606    6.512107   -6.292400
     22          7           0       -4.352594    0.826120    0.789992
 ---------------------------------------------------------------------
                    Distance matrix (angstroms):
                    1          2          3          4          5
     1  C    0.000000
     2  C    1.397304   0.000000
     3  C    2.420577   1.398285   0.000000
     4  C    2.788632   2.419398   1.400584   0.000000
     5  C    2.380841   2.767157   2.411160   1.400275   0.000000
     6  H    2.148398   1.075528   2.148038   3.394855   3.842648
     7  H    3.347964   3.841649   3.386812   2.146619   1.074545
     8  O    4.312210   3.870829   2.615680   1.530044   2.470230
     9  C    5.711166   4.982541   3.592497   2.973451   4.104059
    10  C    5.990899   4.981390   3.619008   3.540919   4.875647
    11  C    6.893964   6.288356   4.919050   4.111962   5.020756
    12  C    7.351715   6.286542   4.958458   4.928394   6.247143
    13  C    8.103296   7.364223   5.972804   5.352709   6.360253
    14  H    7.015624   6.614432   5.313739   4.271970   4.906673
    15  C    8.305856   7.367142   5.992990   5.691250   6.886196
    16  H    7.788331   6.604310   5.371474   5.590473   6.961621
    17  H    9.011873   8.346579   6.963115   6.242120   7.138906
    18  H    3.375254   2.126360   1.061822   2.153640   3.385401
    19  H    5.375813   4.229629   2.955901   3.266208   4.664152
    20  H    1.074625   2.150936   3.396828   3.863219   3.350073
    21  H    9.332443   8.350587   6.993302   6.751685   7.956460
    22  N    1.378598   2.411967   2.798734   2.426632   1.379831
                    6          7          8          9         10
     6  H    0.000000
     7  H    4.917105   0.000000
     8  O    4.756030   2.615983   0.000000
     9  C    5.669877   4.239699   1.653078   0.000000
    10  C    5.426958   5.254921   2.673699   1.400409   0.000000
    11  C    7.024977   4.887950   2.617607   1.396750   2.417375
    12  C    6.631291   6.566334   3.959209   2.426565   1.400814
    13  C    7.990701   6.275955   3.921449   2.425317   2.794411
    14  H    7.458079   4.546880   2.761727   2.144508   3.391629
    15  C    7.824094   7.004191   4.453148   2.807174   2.427306
    16  H    6.782661   7.391884   4.817425   3.398631   2.147890
    17  H    9.011666   6.928343   4.760689   3.395874   3.869317
    18  H    2.449877   4.282159   2.878578   3.346615   2.977831
    19  H    4.539680   5.242894   2.871310   2.149787   1.061372
    20  H    2.479978   4.225902   5.385740   6.778440   7.006244
    21  H    8.748133   8.070755   5.527516   3.882376   3.401974
    22  N    3.383198   2.117039   3.771343   5.356732   5.951987
                   11         12         13         14         15
    11  C    0.000000
    12  C    2.791594   0.000000
    13  C    1.399500   2.416021   0.000000
    14  H    1.075220   3.866806   2.148390   0.000000
    15  C    2.424846   1.397944   1.397805   3.397456   0.000000
    16  H    3.866756   1.075171   3.391119   4.941968   2.147347
    17  H    2.146103   3.391816   1.074925   2.468660   2.148459
    18  H    4.732327   4.213904   5.592338   5.325974   5.384741
    19  H    3.386443   2.127221   3.855577   4.279214   3.379521
    20  H    7.967428   8.350392   9.170416   8.079875   9.342925
    21  H    3.399611   2.150242   2.149848   4.286441   1.075203
    22  N    6.359206   7.338766   7.671678   6.282596   8.101143
                   16         17         18         19         20
    16  H    0.000000
    17  H    4.282382   0.000000
    18  H    4.482391   6.635833   0.000000
    19  H    2.447157   4.930498   2.126219   0.000000
    20  H    8.730749  10.082403   4.265233   6.335068   0.000000
    21  H    2.475990   2.477526   6.323720   4.266493  10.358714
    22  N    7.945390   8.482526   3.860290   5.556865   2.118864
                   21         22
    21  H    0.000000
    22  N    9.162421   0.000000
 Stoichiometry    C11H9NO
 Framework group  C1[X(C11H9NO)]
 Deg. of freedom    60
 Full point group                 C1      NOp   1
 Largest Abelian subgroup         C1      NOp   1
 Largest concise Abelian subgroup C1      NOp   1
                         Standard orientation:                         
 ---------------------------------------------------------------------
 Center     Atomic      Atomic             Coordinates (Angstroms)
 Number     Number       Type             X           Y           Z
 ---------------------------------------------------------------------
      1          6           0        4.158119    0.417386    0.118526
      2          6           0        3.164569    1.398365    0.063763
      3          6           0        1.819925    1.026028   -0.028429
      4          6           0        1.478287   -0.331752   -0.065233
      5          6           0        2.500556   -1.286982   -0.008040
      6          1           0        3.432856    2.439497    0.092523
      7          1           0        2.254930   -2.332725   -0.035181
      8          8           0        0.064536   -0.908362   -0.164543
      9          6           0       -1.493450   -0.355785   -0.163248
     10          6           0       -1.796356    1.011464   -0.168123
     11          6           0       -2.520198   -1.289084   -0.003085
     12          6           0       -3.121435    1.436990   -0.008831
     13          6           0       -3.843348   -0.862603    0.158119
     14          1           0       -2.291840   -2.339774   -0.004264
     15          6           0       -4.147221    0.501772    0.156627
     16          1           0       -3.348794    2.487834   -0.014165
     17          1           0       -4.626072   -1.588900    0.281802
     18          1           0        1.077709    1.784304   -0.068420
     19          1           0       -1.035756    1.740466   -0.296786
     20          1           0        5.193632    0.695775    0.189450
     21          1           0       -5.163826    0.829561    0.279632
     22          7           0        3.827741   -0.920563    0.082782
 ---------------------------------------------------------------------
 Rotational constants (GHZ):           2.6545508           0.3534321           0.3128149
 Standard basis: 6-31+G(d) (6D, 7F)
 There are   265 symmetry adapted cartesian basis functions of A   symmetry.
 There are   265 symmetry adapted basis functions of A   symmetry.
   265 basis functions,   452 primitive gaussians,   265 cartesian basis functions
    45 alpha electrons       45 beta electrons
       nuclear repulsion energy       668.6850619751 Hartrees.
 NAtoms=   22 NActive=   22 NUniq=   22 SFac= 1.00D+00 NAtFMM=   60 NAOKFM=F Big=F
 Integral buffers will be    131072 words long.
 Raffenetti 2 integral format.
 Two-electron integral symmetry is turned on.
 Nuclear repulsion after empirical dispersion term =      668.6706174977 Hartrees.
 One-electron integrals computed using PRISM.
 NBasis=   265 RedAO= T EigKep=  1.29D-06  NBF=   265
 NBsUse=   265 1.00D-06 EigRej= -1.00D+00 NBFU=   265
 Initial guess from the checkpoint file:  "molecule_103.chk"
 B after Tr=     0.000000    0.000000    0.000000
         Rot=    0.999775   -0.021194   -0.000519   -0.000687 Ang=  -2.43 deg.
 ExpMin= 4.38D-02 ExpMax= 5.48D+03 ExpMxC= 8.25D+02 IAcc=3 IRadAn=         5 AccDes= 0.00D+00
 Harris functional with IExCor=  402 and IRadAn=       5 diagonalized for initial guess.
 HarFok:  IExCor=  402 AccDes= 0.00D+00 IRadAn=         5 IDoV= 1 UseB2=F ITyADJ=14
 ICtDFT=  3500011 ScaDFX=  1.000000  1.000000  1.000000  1.000000
 FoFCou: FMM=F IPFlag=           0 FMFlag=      100000 FMFlg1=           0
         NFxFlg=           0 DoJE=T BraDBF=F KetDBF=T FulRan=T
         wScrn=  0.000000 ICntrl=       500 IOpCl=  0 I1Cent=   200000004 NGrid=           0
         NMat0=    1 NMatS0=      1 NMatT0=    0 NMatD0=    1 NMtDS0=    0 NMtDT0=    0
 Petite list used in FoFCou.
 Requested convergence on RMS density matrix=1.00D-08 within 128 cycles.
 Requested convergence on MAX density matrix=1.00D-06.
 Requested convergence on             energy=1.00D-06.
 No special actions if energy rises.
 EnCoef did     1 forward-backward iterations
 SCF Done:  E(RB3LYP) =  -554.516076247     A.U. after   16 cycles
            NFock= 16  Conv=0.42D-08     -V/T= 2.0109
 Calling FoFJK, ICntrl=      2127 FMM=F ISym2X=0 I1Cent= 0 IOpClX= 0 NMat=1 NMatS=1 NMatT=0.
 ***** Axes restored to original set *****
 -------------------------------------------------------------------
 Center     Atomic                   Forces (Hartrees/Bohr)
 Number     Number              X              Y              Z
 -------------------------------------------------------------------
      1        6           0.011098335    0.044824135    0.001500782
      2        6           0.002438077    0.005452725    0.008165020
      3        6           0.002909771    0.005600905    0.011579610
      4        6           0.007367599    0.046296095   -0.038427243
      5        6          -0.008757147   -0.034592386   -0.001828986
      6        1          -0.002193564   -0.005849623   -0.005580799
      7        1           0.001858224    0.003241874    0.007496950
      8        8          -0.002589718    0.000276515   -0.019367045
      9        6          -0.001344111   -0.052790309    0.026927039
     10        6           0.002993393    0.007153122    0.009033828
     11        6          -0.002856689   -0.008271994    0.016261731
     12        6           0.001954394    0.008227830    0.010548045
     13        6          -0.008224910   -0.012412302   -0.002444142
     14        1           0.002624707    0.001580525    0.007545716
     15        6          -0.001324885   -0.004353908    0.005999579
     16        1          -0.002376760   -0.004578011   -0.006286123
     17        1           0.003088543    0.007105356    0.002233666
     18        1          -0.001120664    0.003717517   -0.015762794
     19        1          -0.005920478   -0.015249406    0.000560333
     20        1           0.000131019   -0.004557830    0.008939023
     21        1           0.001844451    0.003805956   -0.006787912
     22        7          -0.001599588    0.005373213   -0.020306281
 -------------------------------------------------------------------
 Cartesian Forces:  Max     0.052790309 RMS     0.014399607

 GradGradGradGradGradGradGradGradGradGradGradGradGradGradGradGradGradGrad
 Berny optimization.
 Using GEDIIS/GDIIS optimizer.
 FormGI is forming the generalized inverse of G from B-inverse, IUseBI=4.
 Internal  Forces:  Max     0.090859186 RMS     0.015117598
 Search for a local minimum.
 Step number   2 out of a maximum of  116
 All quantities printed in internal units (Hartrees-Bohrs-Radians)
 Mixed Optimization -- RFO/linear search
 Update second derivatives using D2CorX and points    1    2
 DE= -3.25D-02 DEPred=-7.58D-02 R= 4.29D-01
 Trust test= 4.29D-01 RLast= 3.03D-01 DXMaxT set to 3.00D-01
 ITU=  0  0
 Use linear search instead of GDIIS.
     Eigenvalues ---    0.00230   0.00232   0.01703   0.01766   0.01778
     Eigenvalues ---    0.01924   0.01955   0.02034   0.02070   0.02070
     Eigenvalues ---    0.02070   0.02070   0.02070   0.02070   0.02070
     Eigenvalues ---    0.02070   0.02070   0.02070   0.02073   0.15173
     Eigenvalues ---    0.16000   0.16000   0.16000   0.16000   0.16000
     Eigenvalues ---    0.16000   0.16000   0.16088   0.16184   0.21983
     Eigenvalues ---    0.22000   0.22003   0.22673   0.23332   0.23473
     Eigenvalues ---    0.24150   0.24936   0.26294   0.36796   0.36973
     Eigenvalues ---    0.37230   0.37230   0.37230   0.37230   0.37230
     Eigenvalues ---    0.37230   0.37230   0.41062   0.41211   0.41342
     Eigenvalues ---    0.41404   0.44392   0.45379   0.45389   0.45389
     Eigenvalues ---    0.45389   0.45389   0.45389   0.45389   1.24774
 RFO step:  Lambda=-1.76218936D-01 EMin= 2.29998428D-03
 Quartic linear search produced a step of  0.87058.
 Maximum step size (   0.300) exceeded in Quadratic search.
    -- Step size scaled by   0.442
 Iteration  1 RMS(Cart)=  0.27812741 RMS(Int)=  0.02044855
 Iteration  2 RMS(Cart)=  0.08104507 RMS(Int)=  0.00117149
 Iteration  3 RMS(Cart)=  0.00213576 RMS(Int)=  0.00069205
 Iteration  4 RMS(Cart)=  0.00000184 RMS(Int)=  0.00069205
 Iteration  5 RMS(Cart)=  0.00000000 RMS(Int)=  0.00069205
 Variable       Old X    -DE/DX   Delta X   Delta X   Delta X     New X
                                 (Linear)    (Quad)   (Total)
    R1        2.64052  -0.00026  -0.00674  -0.00111  -0.00790   2.63262
    R2        2.03075   0.00773   0.00761   0.01206   0.01967   2.05041
    R3        2.60517  -0.03259  -0.03751  -0.04539  -0.08297   2.52221
    R4        2.64238  -0.00617  -0.00512  -0.00640  -0.01152   2.63086
    R5        2.03245   0.00833   0.00909   0.01319   0.02228   2.05474
    R6        2.64672  -0.01363  -0.00134  -0.01483  -0.01611   2.63061
    R7        2.00655   0.01612  -0.01345   0.01889   0.00543   2.01198
    R8        2.64614  -0.00565  -0.00185  -0.00716  -0.00897   2.63717
    R9        2.89136  -0.08041  -0.03662  -0.14374  -0.18035   2.71101
   R10        2.03060   0.00744   0.00748   0.01165   0.01913   2.04972
   R11        2.60750  -0.03913  -0.03548  -0.05300  -0.08850   2.51901
   R12        3.12386  -0.09086  -0.05373  -0.20982  -0.26355   2.86032
   R13        2.64639  -0.01105  -0.00163  -0.01361  -0.01517   2.63122
   R14        2.63947  -0.01364  -0.00765  -0.01765  -0.02524   2.61424
   R15        2.64715  -0.00229  -0.00096  -0.00276  -0.00372   2.64344
   R16        2.00570   0.01628  -0.01419   0.01894   0.00475   2.01045
   R17        2.64467  -0.00250  -0.00313  -0.00349  -0.00662   2.63805
   R18        2.03187   0.00789   0.00859   0.01249   0.02108   2.05295
   R19        2.64173   0.00094  -0.00569   0.00069  -0.00506   2.63667
   R20        2.03178   0.00798   0.00851   0.01259   0.02110   2.05287
   R21        2.64147   0.00218  -0.00591   0.00204  -0.00394   2.63753
   R22        2.03131   0.00783   0.00810   0.01231   0.02041   2.05172
   R23        2.03184   0.00799   0.00856   0.01261   0.02117   2.05301
    A1        2.10120  -0.00001   0.00593   0.00665   0.01263   2.11383
    A2        2.10590   0.01302   0.01002   0.02662   0.03654   2.14244
    A3        2.07608  -0.01301  -0.01595  -0.03327  -0.04917   2.02691
    A4        2.09372  -0.00572  -0.00059  -0.00775  -0.00837   2.08534
    A5        2.09576   0.00377   0.00119   0.00634   0.00754   2.10330
    A6        2.09371   0.00195  -0.00060   0.00141   0.00083   2.09454
    A7        2.08799  -0.01489  -0.00558  -0.02496  -0.03046   2.05753
    A8        2.07660   0.00939  -0.01549   0.00733  -0.00820   2.06840
    A9        2.11859   0.00550   0.02107   0.01763   0.03866   2.15726
   A10        2.07393   0.00858  -0.01782   0.01058  -0.00712   2.06682
   A11        2.20487  -0.00085   0.09618   0.03133   0.12745   2.33232
   A12        2.00438  -0.00773  -0.07836  -0.04191  -0.12033   1.88405
   A13        2.08976   0.00185  -0.00404   0.00550   0.00145   2.09120
   A14        2.12202   0.00409   0.02405   0.01441   0.03850   2.16052
   A15        2.07141  -0.00594  -0.02001  -0.01992  -0.03995   2.03146
   A16        2.41106  -0.05563   0.15485  -0.04229   0.11256   2.52361
   A17        2.12964   0.00411   0.09756   0.04285   0.14046   2.27010
   A18        2.05957  -0.02339  -0.09000  -0.07176  -0.16236   1.89721
   A19        2.08722   0.01964  -0.00625   0.03160   0.02527   2.11249
   A20        2.09530  -0.00951   0.00079  -0.01770  -0.01682   2.07848
   A21        2.11297   0.00323   0.01617   0.01402   0.03011   2.14309
   A22        2.07489   0.00628  -0.01698   0.00364  -0.01345   2.06144
   A23        2.09969  -0.01083   0.00461  -0.01900  -0.01431   2.08538
   A24        2.09059   0.00404  -0.00331   0.00595   0.00260   2.09319
   A25        2.09290   0.00679  -0.00130   0.01305   0.01172   2.10462
   A26        2.09942  -0.00058   0.00438   0.00177   0.00614   2.10556
   A27        2.09020  -0.00132  -0.00365  -0.00518  -0.00882   2.08138
   A28        2.09356   0.00190  -0.00073   0.00341   0.00269   2.09625
   A29        2.09770   0.00110   0.00288   0.00393   0.00678   2.10448
   A30        2.08954  -0.00248  -0.00422  -0.00766  -0.01187   2.07767
   A31        2.09594   0.00139   0.00135   0.00373   0.00509   2.10103
   A32        2.08702   0.00018  -0.00642  -0.00062  -0.00714   2.07989
   A33        2.09830  -0.00011   0.00340   0.00036   0.00380   2.10211
   A34        2.09786  -0.00007   0.00301   0.00026   0.00331   2.10117
   A35        2.08281  -0.00507  -0.01009  -0.01891  -0.02909   2.05372
    D1       -3.14158  -0.00001   0.00001  -0.00001   0.00001  -3.14157
    D2       -0.00007   0.00000  -0.00007  -0.00005  -0.00011  -0.00019
    D3       -0.00014  -0.00002  -0.00012  -0.00019  -0.00031  -0.00045
    D4        3.14137  -0.00001  -0.00020  -0.00023  -0.00043   3.14094
    D5        0.00000  -0.00002   0.00000  -0.00006  -0.00005  -0.00005
    D6        3.14144  -0.00003  -0.00013  -0.00023  -0.00035   3.14109
    D7        0.00004   0.00002   0.00004   0.00013   0.00016   0.00020
    D8        3.14090  -0.00001  -0.00061  -0.00069  -0.00127   3.13963
    D9       -3.14146   0.00001   0.00012   0.00017   0.00027  -3.14118
   D10       -0.00061  -0.00002  -0.00053  -0.00065  -0.00115  -0.00176
   D11        0.00018   0.00000   0.00016   0.00017   0.00031   0.00049
   D12       -3.14125   0.00010   0.00030   0.00070   0.00102  -3.14024
   D13       -3.14066   0.00004   0.00082   0.00101   0.00184  -3.13882
   D14        0.00110   0.00014   0.00096   0.00154   0.00255   0.00364
   D15        3.14154   0.00001  -0.00005  -0.00002  -0.00009   3.14145
   D16       -0.00032  -0.00004  -0.00028  -0.00043  -0.00073  -0.00105
   D17       -0.00020  -0.00008  -0.00017  -0.00048  -0.00061  -0.00080
   D18        3.14113  -0.00012  -0.00040  -0.00089  -0.00124   3.13989
   D19       -0.08899   0.00034   0.00237   0.00428   0.00665  -0.08234
   D20        3.05275   0.00043   0.00250   0.00479   0.00730   3.06005
   D21        0.00023   0.00004   0.00020   0.00037   0.00058   0.00082
   D22        3.14156   0.00000  -0.00003  -0.00003  -0.00003   3.14153
   D23        0.10290   0.00202   0.02339   0.03361   0.05592   0.15882
   D24       -2.91346  -0.00260   0.01212   0.00681   0.02000  -2.89346
   D25       -3.01090  -0.00206  -0.00145  -0.01694  -0.02196  -3.03287
   D26        0.13678  -0.00164   0.00385  -0.00853  -0.00729   0.12949
   D27        0.00353  -0.00038   0.00307   0.00310   0.00643   0.00996
   D28       -3.13197   0.00003   0.00837   0.01152   0.02111  -3.11087
   D29        3.01417   0.00379   0.01437   0.02352   0.03439   3.04856
   D30       -0.12791   0.00328   0.01394   0.02250   0.03352  -0.09440
   D31       -0.00534   0.00035  -0.00465  -0.00369  -0.00794  -0.01328
   D32        3.13576  -0.00016  -0.00507  -0.00471  -0.00881   3.12695
   D33        0.00085   0.00040   0.00074   0.00072   0.00091   0.00175
   D34       -3.14066   0.00018   0.00081   0.00134   0.00215  -3.13851
   D35        3.13648  -0.00001  -0.00445  -0.00747  -0.01293   3.12355
   D36       -0.00503  -0.00023  -0.00438  -0.00686  -0.01168  -0.01671
   D37        0.00277  -0.00032   0.00242   0.00045   0.00214   0.00491
   D38       -3.14035  -0.00022   0.00109   0.00056   0.00157  -3.13878
   D39       -3.13833   0.00019   0.00284   0.00148   0.00302  -3.13530
   D40        0.00174   0.00029   0.00151   0.00158   0.00245   0.00419
   D41       -0.00342  -0.00030  -0.00298  -0.00385  -0.00643  -0.00985
   D42        3.14070  -0.00029  -0.00078  -0.00123  -0.00170   3.13899
   D43        3.13809  -0.00008  -0.00305  -0.00446  -0.00768   3.13041
   D44       -0.00098  -0.00007  -0.00085  -0.00184  -0.00296  -0.00394
   D45        0.00162   0.00025   0.00141   0.00324   0.00490   0.00652
   D46        3.14069   0.00023  -0.00079   0.00062   0.00018   3.14087
   D47       -3.13844   0.00015   0.00274   0.00315   0.00549  -3.13295
   D48        0.00063   0.00014   0.00055   0.00053   0.00077   0.00140
         Item               Value     Threshold  Converged?
 Maximum Force            0.090859     0.000450     NO 
 RMS     Force            0.015118     0.000300     NO 
 Maximum Displacement     0.974278     0.001800     NO 
 RMS     Displacement     0.341350     0.001200     NO 
 Predicted change in Energy=-1.569496D-02
 GradGradGradGradGradGradGradGradGradGradGradGradGradGradGradGradGradGrad

                          Input orientation:                          
 ---------------------------------------------------------------------
 Center     Atomic      Atomic             Coordinates (Angstroms)
 Number     Number       Type             X           Y           Z
 ---------------------------------------------------------------------
      1          6           0       -4.633068    0.014965    0.185970
      2          6           0       -4.841978   -0.117600   -1.185006
      3          6           0       -4.676365    0.988939   -2.013461
      4          6           0       -4.303972    2.193774   -1.423949
      5          6           0       -4.117153    2.226936   -0.041378
      6          1           0       -5.132000   -1.075881   -1.609097
      7          1           0       -3.826748    3.153737    0.441538
      8          8           0       -4.047761    3.509032   -1.936340
      9          6           0       -3.932158    4.341798   -3.194976
     10          6           0       -4.239567    4.019594   -4.514221
     11          6           0       -3.328916    5.545365   -2.876691
     12          6           0       -3.919062    4.928018   -5.528526
     13          6           0       -3.009055    6.444262   -3.895747
     14          1           0       -3.109403    5.784194   -1.839878
     15          6           0       -3.297945    6.140485   -5.227026
     16          1           0       -4.160304    4.680644   -6.558444
     17          1           0       -2.533364    7.385610   -3.638101
     18          1           0       -4.838223    0.869761   -3.059012
     19          1           0       -4.727680    3.114677   -4.787569
     20          1           0       -4.754665   -0.829828    0.855921
     21          1           0       -3.048280    6.842602   -6.017582
     22          7           0       -4.275747    1.168831    0.753704
 ---------------------------------------------------------------------
                    Distance matrix (angstroms):
                    1          2          3          4          5
     1  C    0.000000
     2  C    1.393123   0.000000
     3  C    2.405826   1.392191   0.000000
     4  C    2.728984   2.385162   1.392059   0.000000
     5  C    2.282689   2.707417   2.394675   1.395530   0.000000
     6  H    2.158968   1.087321   2.152811   3.377951   3.794240
     7  H    3.250747   3.791831   3.381600   2.151584   1.084667
     8  O    4.129805   3.787842   2.598453   1.434605   2.288988
     9  C    5.535662   4.975338   3.632008   2.808698   3.801584
    10  C    6.187381   5.344431   3.953411   3.589922   4.820262
    11  C    6.454923   6.100847   4.829265   3.780788   4.435345
    12  C    7.569898   6.721325   5.333435   4.946898   6.119140
    13  C    7.786764   7.332514   6.006952   5.084608   5.819783
    14  H    6.301556   6.185616   5.047768   3.806718   4.111477
    15  C    8.282818   7.608259   6.226192   5.572433   6.548123
    16  H    8.214571   7.236136   5.878084   5.706855   6.963813
    17  H    8.564968   8.224691   6.938970   5.915461   6.485115
    18  H    3.361945   2.118206   1.064696   2.170683   3.386441
    19  H    5.861164   4.841398   3.495292   3.513051   4.866945
    20  H    1.085033   2.163394   3.398146   3.813542   3.248903
    21  H    9.360141   8.661153   7.276607   6.655060   7.626394
    22  N    1.334694   2.394603   2.801796   2.406964   1.333001
                    6          7          8          9         10
     6  H    0.000000
     7  H    4.878365   0.000000
     8  O    4.722720   2.414412   0.000000
     9  C    5.771124   3.827118   1.513614   0.000000
    10  C    5.932962   5.047739   2.634944   1.392380   0.000000
    11  C    6.978453   4.120482   2.355345   1.383394   2.416354
    12  C    7.271860   6.228825   3.864439   2.406093   1.398847
    13  C    8.141757   5.505290   3.678826   2.400740   2.788491
    14  H    7.155751   3.555102   2.462962   2.143297   3.397527
    15  C    8.278231   6.429068   4.279648   2.786885   2.427534
    16  H    7.653614   7.172340   4.769611   3.388183   2.149911
    17  H    9.081112   6.018725   4.496359   3.379020   3.874116
    18  H    2.444193   4.300404   2.975059   3.590888   3.521004
    19  H    5.275123   5.306295   2.957585   2.162183   1.063884
    20  H    2.505840   4.111147   5.207892   6.620574   7.254008
    21  H    9.299409   7.478902   5.363599   3.873289   3.413010
    22  N    3.369678   2.058858   3.572793   5.077188   5.989924
                   11         12         13         14         15
    11  C    0.000000
    12  C    2.785968   0.000000
    13  C    1.395995   2.406880   0.000000
    14  H    1.086373   3.872300   2.161564   0.000000
    15  C    2.424707   1.395265   1.395723   3.411050   0.000000
[...]
 18161,0.00115719,0.00153753,-0.04797218,-0.01542040,-0.04985257,0.0325
 6421,0.11446239,-0.29716486,0.01956300,0.02301566,-0.02550072,0.122771
 60,-0.10654400,0.65966161,0.00010720,0.00002771,-0.00015863,-0.0000763
 4,-0.00019298,-0.00000326,-0.00008527,0.00023264,0.00014926,-0.0008893
 2,-0.00033583,0.00138081,0.00007416,-0.00060150,-0.00002393,-0.0000388
 0,-0.00001387,-0.00000679,-0.00001214,0.00001069,0.00001414,-0.0013423
 0,-0.00708442,-0.00157942,0.01799078,0.00118016,0.02946579,-0.00916608
 ,0.00283599,-0.02063818,-0.10828779,-0.04797099,0.02975180,-0.03554942
 ,-0.03065125,-0.00305853,0.52998185,-0.00009454,0.00002987,0.00006642,
 0.00014662,0.00015229,0.00005820,0.00022055,-0.00006947,-0.00012335,-0
 .00137485,0.00114963,0.00051512,0.00003493,-0.00026534,-0.00005298,0.0
 0001738,0.00001638,-0.00000250,-0.00002090,-0.00000426,-0.00002088,-0.
 00348005,0.00094727,0.00112638,-0.01494330,-0.01594550,0.01879999,0.00
 306877,-0.00326524,0.00500071,-0.03050403,-0.12323990,0.11243732,-0.01
 674625,0.00066121,-0.01735522,0.27080135,0.38576368,0.00041206,-0.0001
 8076,-0.00045706,-0.00034593,-0.00055650,0.00013480,-0.00024895,0.0004
 5749,-0.00039159,0.00117500,0.00136368,-0.00100088,-0.00017575,-0.0005
 9147,0.00046422,-0.00007602,-0.00003418,-0.00002357,0.00002545,0.00001
 160,-0.00002095,-0.00800078,-0.00172633,0.00437992,0.07130455,0.048137
 15,0.01069938,-0.01950585,0.00524499,-0.05684573,-0.01752450,0.0753856
 6,-0.29840800,-0.03899627,-0.04377724,0.04625045,0.07787881,-0.1247834
 6,0.62486062,-0.00000885,0.00003219,0.00000165,-0.00002344,0.00004118,
 0.00004370,0.00011657,0.00013221,-0.00010771,-0.00002163,-0.00018968,0
 .00014970,0.00004772,0.00006515,-0.00010252,0.00000074,0.00002032,-0.0
 0000326,-0.00002133,-0.00000300,0.00001158,0.00003723,0.00307080,0.000
 35350,-0.01124088,-0.00475307,-0.01975599,-0.00073668,-0.00511774,0.00
 132687,-0.16975318,-0.05035215,-0.13761202,-0.00023738,0.00008314,0.00
 094259,0.00623249,0.00128382,0.00405666,0.17388043,-0.00002545,0.00004
 219,-0.00000234,0.00001622,-0.00004536,-0.00005327,-0.00004713,0.00010
 934,0.00018390,0.00006317,-0.00086197,0.00029626,0.00004476,0.00009321
 ,-0.00007826,-0.00001372,0.00000423,-0.00000164,-0.00000569,-0.0000024
 3,0.00001002,0.00309468,-0.00102282,-0.00121980,-0.01343169,0.00101847
 ,-0.01660168,-0.00489762,0.00044656,0.00274107,-0.05023709,-0.05832941
 ,-0.03830540,0.00008279,-0.00090652,0.00056811,0.01009208,0.00641342,0
 .00968059,0.05640691,0.05199597,-0.00000567,-0.00002378,-0.00001118,0.
 00000280,-0.00002358,-0.00001921,-0.00002985,-0.00002648,0.00008380,0.
 00008518,0.00013369,0.00013499,-0.00000783,-0.00008655,0.00005648,-0.0
 0000300,-0.00001205,-0.00000198,0.00001599,0.00000283,-0.00000622,0.00
 072973,-0.00138552,0.00088938,0.00446646,0.00301820,0.00582744,0.00046
 306,0.00185182,0.00099479,-0.13958259,-0.03984773,-0.20886418,0.000729
 04,0.00032286,-0.00015058,-0.01873652,-0.00777121,-0.01480627,0.150493
 63,0.04068726,0.21886321,-0.00036406,0.00014314,0.00041592,0.00031143,
 0.00046635,-0.00006250,0.00023228,-0.00051147,0.00033325,-0.00050142,-
 0.00034624,0.00043422,0.00015830,0.00045100,-0.00046380,0.00006258,-0.
 00000764,0.00001603,-0.00000329,-0.00000539,0.00000644,0.00362432,0.00
 116141,0.00061218,-0.05105995,-0.02636063,-0.01781464,0.01646561,-0.01
 576745,0.06280396,0.03180185,0.03598139,-0.04280714,-0.22171899,-0.118
 21257,-0.00606607,-0.19405625,-0.06957286,-0.08526658,0.00316508,-0.00
 319280,0.00099955,0.48375191,-0.00016152,0.00000638,0.00020955,0.00011
 426,0.00020761,-0.00008151,0.00002743,-0.00032943,0.00013491,0.0003388
 1,0.00060517,0.00007136,0.00005919,0.00013979,-0.00012493,0.00003555,-
 0.00001956,0.00001510,-0.00000405,0.00000767,-0.00003402,0.00185603,-0
 .00122825,0.00142524,-0.02790028,-0.01986089,-0.01309491,-0.00312523,-
 0.01257344,0.04626779,0.02242884,0.02836267,-0.01188745,-0.13645904,-0
 .17199478,0.02147662,-0.05094362,-0.09989113,-0.00111676,-0.00304208,0
 .00304449,0.00437060,0.23775852,0.36319029,-0.00008651,0.00013506,0.00
 006694,0.00003329,0.00009071,0.00002581,0.00021207,0.00022162,-0.00009
 542,-0.00153308,-0.00168431,0.00087324,0.00003786,0.00025926,-0.000127
 99,0.00001208,0.00007854,-0.00000557,-0.00002508,-0.00001803,0.0000332
 8,0.00375863,0.00187164,-0.00408861,-0.01843611,-0.01220623,-0.0047535
 0,0.02844598,0.01982741,0.00877068,-0.00936985,0.01438139,-0.04693394,
 0.04190507,0.05730968,-0.13006953,-0.13280373,-0.03726605,-0.23213333,
 0.00023875,0.00399440,-0.00280483,0.08108745,-0.14742110,0.68668756,0.
 00003852,-0.00000934,-0.00005697,-0.00004243,-0.00005272,0.00002033,0.
 00004468,0.00009168,-0.00009645,-0.00002800,-0.00008803,0.00004763,-0.
 00004584,-0.00002775,0.00004342,-0.00000394,0.00001700,-0.00000368,-0.
 00000186,-0.00000126,0.00001112,0.00012892,0.00006102,0.00006356,0.003
 34722,-0.00307553,0.00041536,0.00571387,0.00033747,0.00359876,-0.00015
 194,0.00009747,0.00093769,-0.17486401,-0.05149358,-0.13621339,-0.00064
 119,-0.00576767,0.00112320,-0.00027631,0.00040460,0.00004751,-0.010569
 32,-0.00342030,-0.01851325,0.17957543,-0.00003077,-0.00001443,0.000051
 34,0.00002623,0.00003182,-0.00002949,-0.00005539,-0.00008214,0.0000697
 9,0.00002009,0.00029078,-0.00008004,0.00001306,-0.00000851,0.00000194,
 0.00000578,-0.00001734,0.00000481,0.00000730,0.00000011,-0.00000852,0.
 00063114,0.00001424,0.00098215,-0.00373064,0.00337950,0.00358958,0.009
 47736,0.00626498,0.01029173,0.00016130,-0.00080206,0.00037439,-0.05115
 037,-0.05979773,-0.03938057,-0.00540828,0.00146141,0.00300660,0.000417
 24,-0.00043487,-0.00024855,-0.01289991,-0.00033604,-0.01569993,0.05893
 961,0.05431203,-0.00001577,0.00007806,0.00003685,0.00004878,0.00001586
 ,-0.00001507,0.00001890,0.00006783,0.00007518,-0.00022814,-0.00102102,
 0.00021571,0.00005184,0.00016362,-0.00008591,-0.00001142,0.00002452,-0
 .00000493,-0.00001797,-0.00000619,0.00000448,-0.00086251,0.00046482,-0
 .00182544,0.00108210,0.00414481,-0.00187027,-0.02007502,-0.00715474,-0
 .01636724,0.00077725,0.00040818,-0.00030614,-0.13610036,-0.03917955,-0
 .20103599,0.00037177,0.00227768,0.00146468,0.00007658,-0.00025438,-0.0
 0004770,0.00512259,0.00201168,0.00834346,0.14784891,0.04002806,0.21042
 984,0.00001437,-0.00001406,-0.00001018,-0.00001236,0.00000302,0.000009
 24,-0.00001565,-0.00000386,-0.00000440,0.00007198,0.00024708,0.0000027
 7,0.00003039,-0.00006539,0.00001658,-0.00000074,-0.00000612,-0.0000024
 1,0.00000023,0.00000493,-0.00000459,-0.00027170,-0.00029134,0.00009472
 ,0.00383021,-0.00242072,-0.00118639,0.00012491,0.00071094,-0.00022099,
 0.00162762,-0.00095477,-0.00088238,0.00065279,-0.00274469,-0.00480214,
 -0.20996592,-0.14370638,0.03371140,-0.00088461,0.00206953,0.00107433,-
 0.01075731,-0.01306090,0.00609180,-0.00062749,-0.00069411,0.00031646,0
 .21738739,-0.00001093,-0.00001529,-0.00000088,0.00001404,0.00001881,0.
 00000665,0.00003762,-0.00010574,-0.00000586,-0.00007659,0.00051220,-0.
 00002109,-0.00003410,-0.00010385,-0.00000778,-0.00000194,-0.00001432,-
 0.00000130,-0.00000052,0.00000289,-0.00001034,-0.00033310,-0.00090715,
 0.00051887,-0.00193294,0.00481928,0.00307203,0.00065628,-0.00020084,-0
 .00014298,-0.01000040,-0.00462775,0.00110253,-0.00303365,0.00451881,-0
 .00015921,-0.14371525,-0.15943683,0.03693608,0.00227881,-0.00204923,-0
 .00085187,-0.00428381,-0.00072148,0.00238700,-0.00024085,-0.00010721,0
 .00017834,0.15835600,0.16097619,-0.00000531,0.00001919,0.00000402,-0.0
 0000064,0.00000117,-0.00000623,0.00000471,0.00005264,0.00001484,0.0002
 0057,-0.00051533,-0.00028919,-0.00002273,0.00021984,-0.00001527,-0.000
 00220,0.00001289,0.00000040,0.00000054,-0.00000458,0.00000511,0.001093
 44,0.00177389,-0.00054946,-0.00197196,0.00252621,-0.00343566,-0.000253
 35,0.00001600,-0.00119081,0.02298411,0.01881547,-0.00096807,-0.0039990
 5,0.00052417,-0.00271933,0.03368890,0.03677514,-0.06711530,0.00054509,
 -0.00132225,0.00036134,-0.01768205,-0.01550745,0.00893614,-0.00098605,
 -0.00079333,0.00031305,-0.03486939,-0.04159125,0.06631890,0.00659475,-
 0.00147828,0.00268446,0.00071065,-0.00037823,0.00490021,-0.12574575,-0
 .02989739,0.13446205,-0.00059600,-0.00366258,0.00943372,0.00496613,0.0
 0182675,0.00338167,-0.00275492,0.00003015,-0.00233067,-0.00058410,-0.0
 0022240,0.00012099,-0.00226916,0.00041630,-0.00210849,-0.00031877,0.00
 012839,0.00071031,0.00034174,-0.00022926,-0.00001278,0.00028722,0.0002
 7826,-0.00033388,0.00020638,0.00012145,-0.00057076,0.00005943,-0.00014
 903,0.00040274,-0.00005462,-0.00000598,-0.00000006,-0.00035000,-0.0001
 4223,-0.00004014,0.00001274,0.00000931,-0.00002067,-0.00001318,-0.0000
 2303,0.00000292,0.12246435,-0.00077784,-0.00579068,0.00038764,-0.01656
 464,0.00008107,0.02552085,-0.03032805,-0.07056840,0.04451666,0.0129616
 7,0.01078499,-0.01959296,0.00128477,-0.00397586,-0.00279504,0.00032714
 ,0.00091732,-0.00031768,0.00061621,0.00039791,-0.00110833,-0.00037509,
 0.00150039,0.00141213,0.00022546,-0.00171737,-0.00043624,0.00077011,-0
 .00098640,0.00063491,-0.00013898,0.00001853,0.00012661,0.00016248,0.00
 003348,-0.00012969,0.00001293,-0.00010010,0.00013003,0.00000636,0.0000
 4859,-0.00000418,-0.00011695,-0.00007459,-0.00003986,-0.00003245,0.000
 02584,-0.00003558,0.00002640,0.00000273,-0.00000820,0.03266763,0.07009
 715,0.00284704,0.00109517,0.00387950,0.00348353,0.00029243,-0.00154256
 ,0.13549489,0.04315739,-0.24547263,0.01087405,0.00622804,-0.01091187,0
 .00321559,-0.00385503,0.00147141,-0.00222956,0.00034224,-0.00061859,0.
 00018205,0.00039881,-0.00073017,-0.00208710,0.00113568,-0.00039570,-0.
 00047016,0.00042914,0.00028365,-0.00012760,0.00088267,-0.00011962,-0.0
 0020503,-0.00020382,0.00018349,-0.00017288,0.00000009,0.00008207,-0.00
 004165,-0.00001649,-0.00004202,0.00002035,-0.00007458,-0.00003865,0.00
 011322,0.00002989,-0.00004708,0.00000144,-0.00000641,-0.00003298,-0.00
 001294,0.00001580,0.00000370,-0.14931495,-0.04952682,0.25491597,-0.000
 18498,0.00011618,0.00017673,0.00024055,0.00037188,-0.00000572,0.000271
 03,-0.00004233,0.00017979,-0.00040806,-0.00044313,-0.00047351,0.000361
 26,0.00046934,-0.00045412,0.00000741,-0.00000727,-0.00001240,-0.000052
 88,0.00000696,0.00001361,-0.00027628,0.00237422,0.00090582,-0.01179954
 ,-0.01421765,0.00703469,-0.21268061,-0.14443735,0.03582795,0.00048842,
 -0.00213623,-0.00447797,0.00187587,-0.00032444,-0.00052912,-0.00002979
 ,0.00080146,-0.00050217,-0.00052464,-0.00076515,0.00028844,0.00360495,
 -0.00224847,-0.00080563,-0.00079634,0.00213493,0.00104525,-0.00032916,
 0.00036507,0.00020722,-0.00043262,-0.00009599,0.00007558,0.22061010,-0
 .00002789,-0.00002090,-0.00000493,0.00009456,-0.00008281,-0.00004983,0
 .00017813,-0.00034952,0.00058571,0.00063067,0.00025660,0.00060280,-0.0
 0009020,0.00001864,-0.00004954,-0.00001469,-0.00001714,-0.00000253,-0.
 00001014,-0.00001669,-0.00006094,0.00238737,-0.00228415,-0.00039679,-0
 .00556500,-0.00124209,0.00308516,-0.14543609,-0.15548966,0.03826050,-0
 .00244069,0.00374061,-0.00026441,-0.00895363,-0.00431160,0.00077202,0.
 00071450,-0.00022373,-0.00009194,-0.00026477,0.00003418,0.00020775,-0.
 00211473,0.00414334,0.00361402,0.00227893,-0.00212596,-0.00090469,0.00
 036542,-0.00055445,-0.00019907,0.00010476,0.00006220,-0.00004180,0.158
 64716,0.15855563,0.00013998,-0.00005200,-0.00020358,-0.00021339,-0.000
 25371,0.00008842,-0.00063486,0.00075745,-0.00024179,-0.00036927,0.0005
 9329,-0.00117673,0.00002851,-0.00002823,0.00006978,0.00001176,-0.00004
 688,0.00000725,0.00000487,-0.00001792,-0.00000745,0.00169503,-0.000809
 55,0.00171277,-0.01758183,-0.01472321,0.00911676,0.03658665,0.03909688
 ,-0.06796884,-0.00365584,0.00043691,-0.00309223,0.02309176,0.01820140,
 -0.00040359,-0.00025827,-0.00001400,-0.00111427,-0.00092633,-0.0008212
 1,0.00030925,-0.00158915,0.00312690,-0.00431381,0.00062107,-0.00133468
 ,0.00038284,0.00021251,-0.00020990,0.00006175,0.00020682,0.00000569,0.
 00000773,-0.03841724,-0.04510798,0.06687218,-0.06096091,-0.06461442,0.
 03080985,0.00136491,-0.01573297,0.00438975,0.00284260,-0.00030736,0.00
 560035,0.00023321,0.00073262,0.00066382,0.00672423,0.00224210,0.004989
 22,-0.00203021,0.00033257,-0.00147675,0.00046667,0.00036550,0.00010736
 ,-0.00096604,-0.00012620,-0.00067178,-0.00024719,0.00011584,-0.0001530
 7,0.00011583,-0.00002900,0.00000577,0.00003928,-0.00000346,-0.00000035
 ,0.00001042,-0.00000124,-0.00007072,0.00002637,-0.00002424,0.00002983,
 -0.00000571,0.00001507,0.00000950,-0.00004207,-0.00001650,0.00000721,0
 .00000533,0.00000178,-0.00000673,-0.00000181,-0.00000520,0.00000208,-0
 .00016703,-0.00078269,0.00007550,-0.00003377,0.00000113,0.00002840,0.0
 5287426,-0.06376770,-0.28789411,0.08206811,0.00006368,-0.00026240,-0.0
 0050605,-0.00049053,0.00110564,0.00039299,0.00024269,0.00044820,-0.000
 42799,0.00098199,-0.00055708,-0.00243177,-0.00022379,0.00035968,0.0005
 7944,-0.00022755,-0.00068248,0.00028944,-0.00010606,-0.00029810,0.0005
 5685,-0.00002723,0.00010238,-0.00029310,0.00001199,-0.00002709,0.00006
 970,0.00000398,-0.00003880,0.00007570,0.00000321,0.00000603,-0.0000331
 5,-0.00000525,-0.00000193,-0.00001109,0.00000466,0.00000873,-0.0000044
 8,-0.00000985,-0.00001213,0.00002570,0.00000514,-0.00000269,0.00001245
 ,-0.00000601,-0.00000806,0.00000866,0.00007460,-0.00007750,-0.00010751
 ,-0.00002504,0.00000207,-0.00001943,0.06358980,0.31708619,0.03046615,0
 .08332121,-0.08027566,0.00591388,0.02481956,-0.00268707,0.00551918,-0.
 00066581,-0.00224322,0.00079242,-0.00075845,-0.00056196,0.00474893,-0.
 00392297,0.00201219,-0.00151571,-0.00034966,-0.00062161,0.00007891,-0.
 00062723,0.00038232,-0.00090855,-0.00010940,-0.00003878,-0.00016148,0.
 00006651,-0.00015274,0.00007143,0.00004569,0.00001906,-0.00002248,-0.0
 0003282,0.00003089,-0.00000643,-0.00000357,0.00000384,0.00000519,-0.00
 001608,0.00000434,0.00000248,0.00000237,0.00000164,-0.00000527,-0.0000
 0414,0.00000728,0.00000185,-0.00000032,-0.00000798,0.00000095,-0.00000
 076,0.00000100,0.00015465,0.00130831,-0.00021852,0.00001038,-0.0000121
 9,0.00001432,-0.03763175,-0.07868223,0.07947724,-0.00002378,0.00000708
 ,0.00002105,0.00002115,0.00004008,0.00000432,0.00005716,-0.00002406,0.
 00001698,-0.00004308,0.00003120,-0.00001180,0.00003656,0.00003593,-0.0
 0002994,0.00000448,0.00000319,-0.00000198,-0.00000676,-0.00000029,-0.0
 0000438,-0.00014262,0.00050864,0.00021986,-0.00126847,-0.00055862,-0.0
 0046908,-0.00121102,-0.00558894,-0.00072640,-0.00034179,-0.00398431,-0
 .00383675,0.00182509,-0.00897052,0.02295492,0.00581584,0.00995179,-0.0
 1938595,0.00029468,0.00034980,-0.00100656,-0.05382261,-0.02211127,0.01
 974491,-0.00080791,0.00212285,0.00052909,-0.00082916,0.00197791,0.0010
 1742,-0.00003131,-0.00001709,0.00000144,0.00009898,-0.00056538,0.00106
 235,-0.00000491,-0.00000236,-0.00000047,0.05036728,0.00000924,0.000002
 35,-0.00001572,-0.00000504,-0.00000322,0.00000388,-0.00005288,0.000010
 18,0.00003698,0.00004220,0.00000427,-0.00000980,-0.00000490,-0.0000188
 4,-0.00001686,-0.00000390,-0.00001160,0.00000037,0.00000094,0.00000047
 ,-0.00000135,0.00069084,-0.00053077,-0.00005221,-0.00056346,-0.0003427
 6,-0.00070449,-0.00577489,0.00194894,0.00084182,-0.00375447,0.00387075
 ,0.00019874,-0.00018057,-0.00496049,0.01878140,0.00087322,0.00595078,-
 0.00804212,-0.00011920,0.00039714,-0.00031741,-0.02192609,-0.09237715,
 0.11022018,0.00188148,-0.00199450,-0.00126880,0.00217900,-0.00198099,-
 0.00081167,-0.00000893,0.00003596,-0.00000104,-0.00010536,-0.00012091,
 0.00100828,0.00000172,-0.00000436,0.00000297,0.02683363,0.09012022,0.0
 0000538,0.00001406,-0.00000069,-0.00000138,-0.00002966,-0.00001357,-0.
 00003052,0.00006108,0.00000951,-0.00002207,-0.00032421,0.00005826,-0.0
 0001144,0.00004074,-0.00000516,-0.00000247,0.00000896,0.00000180,-0.00
 000131,-0.00000297,0.00000835,0.00037544,0.00016552,-0.00023612,-0.000
 50668,-0.00068185,0.00062884,-0.00015739,0.00164567,0.00188972,-0.0044
 5926,-0.00060588,-0.00070521,-0.00102886,0.00052410,-0.00119639,0.0044
 1563,0.01025779,-0.01606388,0.00023695,0.00061063,-0.00076641,0.019892
 48,0.11017945,-0.28831274,0.00107962,-0.00079048,0.00036352,0.00044418
 ,-0.00126724,0.00034077,0.00002151,-0.00001723,-0.00001099,-0.00016098
 ,0.00004707,-0.00010353,0.00000468,0.00000864,-0.00000159,-0.02010229,
 -0.11986776,0.30414169,-0.10628560,0.05833653,0.06840460,0.00102164,0.
 01109527,0.03286036,-0.00379529,0.00753916,-0.00283247,0.01123059,-0.0
 2202245,0.00853554,-0.08979765,-0.05416124,0.03944596,0.00303625,-0.00
 090364,0.00646242,0.00054221,0.00741669,-0.00919780,0.00326444,0.00087
 986,0.00695690,-0.00014691,-0.00141921,0.00007753,-0.00032564,-0.00023
 062,-0.00002418,0.00016188,-0.00017563,0.00035587,0.00001980,0.0000408
 8,0.00006953,-0.00014752,0.00005742,-0.00009094,0.00001431,-0.00001729
 ,-0.00003314,0.00006698,0.00001686,0.00003828,-0.00001013,0.00000147,0
 .00004905,-0.00003078,0.00000658,0.00004574,-0.00232594,0.00016861,-0.
 00172280,-0.00000990,0.00008059,-0.00004354,-0.00024345,-0.00009036,-0
 .00751427,0.00001220,-0.00001258,0.00000877,0.18374851,0.04376781,-0.2
 3906923,-0.08229036,0.04579550,0.04770001,-0.06991267,0.00582359,-0.07
 237025,-0.01312754,-0.06219918,0.00084346,0.09248443,-0.03995598,-0.32
 875420,0.04143032,-0.00050647,0.00144178,0.00070299,-0.00599389,-0.032
 91108,0.00788135,0.00714104,0.00279045,-0.00247958,-0.00214924,-0.0005
 6744,-0.00041876,0.00047303,-0.00045403,0.00042510,0.00022966,0.000446
 75,-0.00019274,0.00026570,0.00019478,-0.00084519,0.00014197,-0.0001025
 1,0.00055799,-0.00000110,-0.00000391,0.00000839,-0.00063342,-0.0002885
 6,-0.00008111,0.00009507,-0.00005725,-0.00005098,0.00000603,-0.0000177
 3,0.00000790,0.00053971,-0.00071527,-0.00017386,-0.00043878,0.00002633
 ,0.00021187,0.01424514,-0.02925219,-0.02438100,-0.00003926,0.00000454,
 0.00002358,-0.00660692,0.65111556,0.06818592,-0.10590937,-0.18053416,0
 .03488918,-0.01599033,-0.03394112,-0.00345980,-0.01629541,-0.00293413,
 0.00660514,0.03341771,0.01046253,0.04101996,0.06716428,-0.12175377,0.0
 0661095,0.00112569,-0.00272233,-0.00992353,-0.01380117,0.00969942,0.00
 457232,0.00087669,-0.00537679,0.00186782,0.00034476,0.00177549,-0.0002
 0796,-0.00004071,-0.00002310,-0.00009374,0.00032442,-0.00087837,0.0000
 2666,0.00009335,0.00002293,0.00018681,0.00010746,0.00016444,0.00000775
 ,-0.00003984,-0.00000513,-0.00008009,-0.00004680,-0.00005806,0.0000083
 0,-0.00002808,-0.00002995,0.00002085,0.00005316,-0.00007169,-0.0017496
 3,-0.00003103,-0.00064614,0.00007339,0.00001162,-0.00001724,-0.0067121
 5,-0.00157088,0.00485501,0.00000325,0.00001462,-0.00002618,-0.14185141
 ,0.05021988,0.32203834\\0.00000394,0.00000179,-0.00000106,-0.00000103,
 -0.00000241,0.00000164,-0.00000006,0.00000289,-0.00000099,-0.00000391,
 -0.00000287,0.00000052,0.00000439,-0.00000183,0.00000158,-0.00000038,-
 0.00000004,-0.00000037,0.00000041,0.00000050,0.00000025,0.00000213,0.0
 0000220,0.00000134,0.00000007,0.00000050,-0.00000150,-0.00000106,-0.00
 000094,0.00000118,-0.00000075,0.00000005,-0.00000012,-0.00000086,0.000
 00014,0.00000187,-0.00000070,0.00000010,-0.00000332,0.00000023,-0.0000
 0005,-0.00000051,0.00000299,0.00000067,0.00000137,-0.00000045,0.000000
 22,-0.00000043,0.00000035,0.00000001,0.00000027,0.00000034,-0.00000079
 ,-0.00000006,-0.00000006,0.00000004,-0.00000080,0.00000030,-0.00000048
 ,0.00000074,-0.00000149,-0.00000038,-0.00000081,-0.00000440,0.00000068
 ,-0.00000079\\\@


 WE'RE IN THE POSITION OF A VISITOR FROM ANOTHER
 DIMENSION WHO COMES TO EARTH AND SEES A CHESS MATCH.
 ASSUMING HE KNOWS IT'S A GAME, HE'S GOT TWO PROBLEMS:
 FIRST, FIGURE OUT THE RULES, AND SECOND, FIGURE OUT HOW TO WIN.
 NINETY PERCENT OF SCIENCE (INCLUDING VIRTUALLY ALL OF CHEMISRY)
 IS IN THAT SECOND CATEGORY.  THEY'RE TRYING TO APPLY
 THE LAWS THAT ARE ALREADY KNOWN.

                     -- SHELDON GLASHOW, 1979
 Job cpu time:       0 days  1 hours 22 minutes 25.7 seconds.
 Elapsed time:       0 days  0 hours  2 minutes 44.9 seconds.
 File lengths (MBytes):  RWF=    166 Int=      0 D2E=      0 Chk=      8 Scr=      1
 Normal termination of Gaussian 16 at Fri Sep 15 09:54:05 2023.
