 Entering Gaussian System, Link 0=g16
 Input=/home/ubuntu/New/molecule_43.gjf
 Output=/home/ubuntu/New/molecule_43.log
 Initial command:
 /home/ubuntu/g16/l1.exe "/home/ubuntu/Scratch/Gau-40596.inp" -scrdir="/home/ubuntu/Scratch/"
 Entering Link 1 = /home/ubuntu/g16/l1.exe PID=     40600.
  
 Copyright (c) 1988-2017, Gaussian, Inc.  All Rights Reserved.
  
 This is part of the Gaussian(R) 16 program.  It is based on
 the Gaussian(R) 09 system (copyright 2009, Gaussian, Inc.),
 the Gaussian(R) 03 system (copyright 2003, Gaussian, Inc.),
 the Gaussian(R) 98 system (copyright 1998, Gaussian, Inc.),
 the Gaussian(R) 94 system (copyright 1995, Gaussian, Inc.),
 the Gaussian 92(TM) system (copyright 1992, Gaussian, Inc.),
 the Gaussian 90(TM) system (copyright 1990, Gaussian, Inc.),
 the Gaussian 88(TM) system (copyright 1988, Gaussian, Inc.),
 the Gaussian 86(TM) system (copyright 1986, Carnegie Mellon
 University), and the Gaussian 82(TM) system (copyright 1983,
 Carnegie Mellon University). Gaussian is a federally registered
 trademark of Gaussian, Inc.
  
 This software contains proprietary and confidential information,
 including trade secrets, belonging to Gaussian, Inc.
  
 This software is provided under written license and may be
 used, copied, transmitted, or stored only in accord with that
 written license.
  
 The following legend is applicable only to US Government
 contracts under FAR:
  
                    RESTRICTED RIGHTS LEGEND
  
 Use, reproduction and disclosure by the US Government is
 subject to restrictions as set forth in subparagraphs (a)
 and (c) of the Commercial Computer Software - Restricted
 Rights clause in FAR 52.227-19.
  
 Gaussian, Inc.
 340 Quinnipiac St., Bldg. 40, Wallingford CT 06492
  
  
 ---------------------------------------------------------------
 Warning -- This program may not be used in any manner that
 competes with the business of Gaussian, Inc. or will provide
 assistance to any competitor of Gaussian, Inc.  The licensee
 of this program is prohibited from giving any competitor of
 Gaussian, Inc. access to this program.  By using this program,
 the user acknowledges that Gaussian, Inc. is engaged in the
 business of creating and licensing software in the field of
 computational chemistry and represents and warrants to the
 licensee that it is not a competitor of Gaussian, Inc. and that
 it will not use this program in any manner prohibited above.
 ---------------------------------------------------------------
  

 Cite this work as:
 Gaussian 16, Revision B.01,
 M. J. Frisch, G. W. Trucks, H. B. Schlegel, G. E. Scuseria, 
 M. A. Robb, J. R. Cheeseman, G. Scalmani, V. Barone, 
 G. A. Petersson, H. Nakatsuji, X. Li, M. Caricato, A. V. Marenich, 
 J. Bloino, B. G. Janesko, R. Gomperts, B. Mennucci, H. P. Hratchian, 
 J. V. Ortiz, A. F. Izmaylov, J. L. Sonnenberg, D. Williams-Young, 
 F. Ding, F. Lipparini, F. Egidi, J. Goings, B. Peng, A. Petrone, 
 T. Henderson, D. Ranasinghe, V. G. Zakrzewski, J. Gao, N. Rega, 
 G. Zheng, W. Liang, M. Hada, M. Ehara, K. Toyota, R. Fukuda, 
 J. Hasegawa, M. Ishida, T. Nakajima, Y. Honda, O. Kitao, H. Nakai, 
 T. Vreven, K. Throssell, J. A. Montgomery, Jr., J. E. Peralta, 
 F. Ogliaro, M. J. Bearpark, J. J. Heyd, E. N. Brothers, K. N. Kudin, 
 V. N. Staroverov, T. A. Keith, R. Kobayashi, J. Normand, 
 K. Raghavachari, A. P. Rendell, J. C. Burant, S. S. Iyengar, 
 J. Tomasi, M. Cossi, J. M. Millam, M. Klene, C. Adamo, R. Cammi, 
 J. W. Ochterski, R. L. Martin, K. Morokuma, O. Farkas, 
 J. B. Foresman, and D. J. Fox, Gaussian, Inc., Wallingford CT, 2016.
 
 ******************************************
 Gaussian 16:  EM64L-G16RevB.01 20-Dec-2017
                21-Sep-2023 
 ******************************************
 %nprocshared=30
 Will use up to   30 processors via shared memory.
 %mem=30GB
 %chk=molecule_43.chk
 ----------------------------------------------------------------
 # opt freq b3lyp/6-31+g(d) nosymm empiricaldispersion=gd3 volume
 ----------------------------------------------------------------
 1/18=20,19=15,26=3,38=1/1,3;
 2/9=110,12=2,15=1,17=6,18=5,40=1/2;
 3/5=1,6=6,7=11,11=2,25=1,30=1,71=1,74=-5,124=31/1,2,3;
 4//1;
 5/5=2,38=5/2;
 6/7=2,8=2,9=2,10=2,28=1,44=1/1,4;
 7/30=1/1,2,3,16;
 1/18=20,19=15,26=3/3(2);
 2/9=110,15=1/2;
 99//99;
 2/9=110,15=1/2;
 3/5=1,6=6,7=11,11=2,25=1,30=1,71=1,74=-5,124=31/1,2,3;
 4/5=5,16=3,69=1/1;
 5/5=2,38=5/2;
 7/30=1/1,2,3,16;
 1/18=20,19=15,26=3/3(-5);
 2/9=110,15=1/2;
 6/7=2,8=2,9=2,10=2,19=2,28=1,44=1/1,4;
 99/9=1/99;
 -------------------
 Title Card Required
 -------------------
 Symbolic Z-matrix:
 Charge =  0 Multiplicity = 1
 C
 C                    1    B1
 C                    2    B2       1    A1
 C                    3    B3       2    A2       1    D1       0
 C                    4    B4       3    A3       2    D2       0
 C                    1    B5       2    A4       3    D3       0
 H                    1    B6       6    A5       5    D4       0
 H                    2    B7       1    A6       6    D5       0
 H                    4    B8       3    A7       2    D6       0
 H                    5    B9       4    A8       3    D7       0
 C                    3    B10      2    A9       1    D8       0
 C                    11   B11      3    A10      2    D9       0
 C                    12   B12      11   A11      3    D10      0
 C                    13   B13      12   A12      11   D11      0
 C                    14   B14      13   A13      12   D12      0
 C                    15   B15      14   A14      13   D13      0
 C                    15   B16      14   A15      13   D14      0
 C                    16   B17      15   A16      14   D15      0
 H                    16   B18      15   A17      14   D16      0
 C                    17   B19      15   A18      14   D17      0
 H                    17   B20      15   A19      14   D18      0
 C                    18   B21      16   A20      15   D19      0
 H                    18   B22      16   A21      15   D20      0
 H                    20   B23      17   A22      15   D21      0
 C                    22   B24      18   A23      16   D22      0
 H                    25   B25      22   A24      18   D23      0
 H                    25   B26      22   A25      18   D24      0
 H                    25   B27      22   A26      18   D25      0
 C                    6    B28      1    A27      2    D26      0
 H                    29   B29      6    A28      1    D27      0
 H                    29   B30      6    A29      1    D28      0
 H                    29   B31      6    A30      1    D29      0
       Variables:
  B1                    1.4143                   
  B2                    1.40235                  
  B3                    1.40274                  
  B4                    1.37765                  
  B5                    1.39829                  
  B6                    1.04989                  
  B7                    1.06206                  
  B8                    1.07805                  
  B9                    1.07887                  
  B10                   1.54911                  
  B11                   1.18737                  
  B12                   1.53755                  
  B13                   1.19885                  
  B14                   1.55464                  
  B15                   1.4088                   
  B16                   1.38672                  
  B17                   1.37934                  
  B18                   1.09823                  
  B19                   1.40415                  
  B20                   1.07974                  
  B21                   1.38838                  
  B22                   1.09501                  
  B23                   1.08934                  
  B24                   1.54                     
  B25                   1.07                     
  B26                   1.07                     
  B27                   1.07                     
  B28                   1.54                     
  B29                   1.07                     
  B30                   1.07                     
  B31                   1.07                     
  A1                  119.2752                   
  A2                  120.43856                  
  A3                  120.03157                  
  A4                  119.51444                  
  A5                  120.68845                  
  A6                  120.11664                  
  A7                  119.44609                  
  A8                  120.60132                  
  A9                  120.71824                  
  A10                 179.91227                  
  A11                 179.93632                  
  A12                 179.71393                  
  A13                 178.58214                  
  A14                 119.73872                  
  A15                 120.81218                  
  A16                 120.62094                  
  A17                 120.05822                  
  A18                 119.90459                  
  A19                 120.39961                  
  A20                 119.95562                  
  A21                 120.23603                  
  A22                 119.75002                  
  A23                 119.88415                  
  A24                 109.4712                   
  A25                 109.4712                   
  A26                 109.47123                  
  A27                 119.84077                  
  A28                 109.4712                   
  A29                 109.4712                   
  A30                 109.47123                  
  D1                    1.62911                  
  D2                   -2.04976                  
  D3                    0.06195                  
  D4                  178.42569                  
  D5                  179.78159                  
  D6                  178.65068                  
  D7                 -178.53025                  
  D8                 -177.69985                  
  D9                  176.84356                  
  D10                 -16.57635                  
  D11                   1.22185                  
  D12                  -7.18805                  
  D13                -175.86325                  
  D14                   7.17646                  
  D15                -177.14976                  
  D16                   2.76472                  
  D17                 177.24651                  
  D18                  -1.93542                  
  D19                   0.1877                   
  D20                -179.54388                  
  D21                -179.99174                  
  D22                 179.55972                  
  D23                 -35.70784                  
  D24                  84.29217                  
  D25                -155.70783                  
  D26                 178.65386                  
  D27                 103.57229                  
  D28                -136.42769                  
  D29                 -16.4277                   
 
     6 tetrahedral angles replaced.

 GradGradGradGradGradGradGradGradGradGradGradGradGradGradGradGradGradGrad
 Berny optimization.
 Initialization pass.
                           ----------------------------
                           !    Initial Parameters    !
                           ! (Angstroms and Degrees)  !
 --------------------------                            --------------------------
 ! Name  Definition              Value          Derivative Info.                !
 --------------------------------------------------------------------------------
 ! R1    R(1,2)                  1.4143         estimate D2E/DX2                !
 ! R2    R(1,6)                  1.3983         estimate D2E/DX2                !
 ! R3    R(1,7)                  1.0499         estimate D2E/DX2                !
 ! R4    R(2,3)                  1.4023         estimate D2E/DX2                !
 ! R5    R(2,8)                  1.0621         estimate D2E/DX2                !
 ! R6    R(3,4)                  1.4027         estimate D2E/DX2                !
 ! R7    R(3,11)                 1.5491         estimate D2E/DX2                !
 ! R8    R(4,5)                  1.3776         estimate D2E/DX2                !
 ! R9    R(4,9)                  1.0781         estimate D2E/DX2                !
 ! R10   R(5,6)                  1.4021         estimate D2E/DX2                !
 ! R11   R(5,10)                 1.0789         estimate D2E/DX2                !
 ! R12   R(6,29)                 1.54           estimate D2E/DX2                !
 ! R13   R(11,12)                1.1874         estimate D2E/DX2                !
 ! R14   R(12,13)                1.5376         estimate D2E/DX2                !
 ! R15   R(13,14)                1.1988         estimate D2E/DX2                !
 ! R16   R(14,15)                1.5546         estimate D2E/DX2                !
 ! R17   R(15,16)                1.4088         estimate D2E/DX2                !
 ! R18   R(15,17)                1.3867         estimate D2E/DX2                !
 ! R19   R(16,18)                1.3793         estimate D2E/DX2                !
 ! R20   R(16,19)                1.0982         estimate D2E/DX2                !
 ! R21   R(17,20)                1.4042         estimate D2E/DX2                !
 ! R22   R(17,21)                1.0797         estimate D2E/DX2                !
 ! R23   R(18,22)                1.3884         estimate D2E/DX2                !
 ! R24   R(18,23)                1.095          estimate D2E/DX2                !
 ! R25   R(20,22)                1.3926         estimate D2E/DX2                !
 ! R26   R(20,24)                1.0893         estimate D2E/DX2                !
 ! R27   R(22,25)                1.54           estimate D2E/DX2                !
 ! R28   R(25,26)                1.07           estimate D2E/DX2                !
 ! R29   R(25,27)                1.07           estimate D2E/DX2                !
 ! R30   R(25,28)                1.07           estimate D2E/DX2                !
 ! R31   R(29,30)                1.07           estimate D2E/DX2                !
 ! R32   R(29,31)                1.07           estimate D2E/DX2                !
 ! R33   R(29,32)                1.07           estimate D2E/DX2                !
 ! A1    A(2,1,6)              119.5144         estimate D2E/DX2                !
 ! A2    A(2,1,7)              119.7967         estimate D2E/DX2                !
 ! A3    A(6,1,7)              120.6884         estimate D2E/DX2                !
 ! A4    A(1,2,3)              119.2752         estimate D2E/DX2                !
 ! A5    A(1,2,8)              120.1166         estimate D2E/DX2                !
 ! A6    A(3,2,8)              120.6076         estimate D2E/DX2                !
 ! A7    A(2,3,4)              120.4386         estimate D2E/DX2                !
 ! A8    A(2,3,11)             120.7182         estimate D2E/DX2                !
 ! A9    A(4,3,11)             118.8399         estimate D2E/DX2                !
 ! A10   A(3,4,5)              120.0316         estimate D2E/DX2                !
 ! A11   A(3,4,9)              119.4461         estimate D2E/DX2                !
 ! A12   A(5,4,9)              120.5186         estimate D2E/DX2                !
 ! A13   A(4,5,6)              120.3845         estimate D2E/DX2                !
 ! A14   A(4,5,10)             120.6013         estimate D2E/DX2                !
 ! A15   A(6,5,10)             119.0104         estimate D2E/DX2                !
 ! A16   A(1,6,5)              120.3185         estimate D2E/DX2                !
 ! A17   A(1,6,29)             119.8408         estimate D2E/DX2                !
 ! A18   A(5,6,29)             119.8408         estimate D2E/DX2                !
 ! A19   A(14,15,16)           119.7387         estimate D2E/DX2                !
 ! A20   A(14,15,17)           120.8122         estimate D2E/DX2                !
 ! A21   A(16,15,17)           119.3801         estimate D2E/DX2                !
 ! A22   A(15,16,18)           120.6209         estimate D2E/DX2                !
 ! A23   A(15,16,19)           120.0582         estimate D2E/DX2                !
 ! A24   A(18,16,19)           119.3208         estimate D2E/DX2                !
 ! A25   A(15,17,20)           119.9046         estimate D2E/DX2                !
 ! A26   A(15,17,21)           120.3996         estimate D2E/DX2                !
 ! A27   A(20,17,21)           119.6908         estimate D2E/DX2                !
 ! A28   A(16,18,22)           119.9556         estimate D2E/DX2                !
 ! A29   A(16,18,23)           120.236          estimate D2E/DX2                !
 ! A30   A(22,18,23)           119.8078         estimate D2E/DX2                !
 ! A31   A(17,20,22)           119.9225         estimate D2E/DX2                !
 ! A32   A(17,20,24)           119.75           estimate D2E/DX2                !
 ! A33   A(22,20,24)           120.3259         estimate D2E/DX2                !
 ! A34   A(18,22,20)           120.2144         estimate D2E/DX2                !
 ! A35   A(18,22,25)           119.8842         estimate D2E/DX2                !
 ! A36   A(20,22,25)           119.9014         estimate D2E/DX2                !
 ! A37   A(22,25,26)           109.4712         estimate D2E/DX2                !
 ! A38   A(22,25,27)           109.4712         estimate D2E/DX2                !
 ! A39   A(22,25,28)           109.4712         estimate D2E/DX2                !
 ! A40   A(26,25,27)           109.4712         estimate D2E/DX2                !
 ! A41   A(26,25,28)           109.4712         estimate D2E/DX2                !
 ! A42   A(27,25,28)           109.4712         estimate D2E/DX2                !
 ! A43   A(6,29,30)            109.4712         estimate D2E/DX2                !
 ! A44   A(6,29,31)            109.4712         estimate D2E/DX2                !
 ! A45   A(6,29,32)            109.4712         estimate D2E/DX2                !
 ! A46   A(30,29,31)           109.4712         estimate D2E/DX2                !
 ! A47   A(30,29,32)           109.4712         estimate D2E/DX2                !
 ! A48   A(31,29,32)           109.4712         estimate D2E/DX2                !
 ! A49   L(3,11,12,9,-1)       179.9124         estimate D2E/DX2                !
 ! A50   L(11,12,13,9,-1)      179.9401         estimate D2E/DX2                !
 ! A51   L(12,13,14,21,-1)     179.714          estimate D2E/DX2                !
 ! A52   L(13,14,15,21,-1)     178.5906         estimate D2E/DX2                !
 ! A53   L(3,11,12,9,-2)       180.0065         estimate D2E/DX2                !
 ! A54   L(11,12,13,9,-2)      180.036          estimate D2E/DX2                !
 ! A55   L(12,13,14,21,-2)     179.9919         estimate D2E/DX2                !
 ! A56   L(13,14,15,21,-2)     180.198          estimate D2E/DX2                !
 ! D1    D(6,1,2,3)              0.0619         estimate D2E/DX2                !
 ! D2    D(6,1,2,8)            179.7816         estimate D2E/DX2                !
 ! D3    D(7,1,2,3)           -179.7119         estimate D2E/DX2                !
 ! D4    D(7,1,2,8)              0.0077         estimate D2E/DX2                !
 ! D5    D(2,1,6,5)             -1.3461         estimate D2E/DX2                !
 ! D6    D(2,1,6,29)           178.6539         estimate D2E/DX2                !
 ! D7    D(7,1,6,5)            178.4257         estimate D2E/DX2                !
 ! D8    D(7,1,6,29)            -1.5743         estimate D2E/DX2                !
 ! D9    D(1,2,3,4)              1.6291         estimate D2E/DX2                !
 ! D10   D(1,2,3,11)          -177.6999         estimate D2E/DX2                !
 ! D11   D(8,2,3,4)           -178.0891         estimate D2E/DX2                !
 ! D12   D(8,2,3,11)             2.5819         estimate D2E/DX2                !
 ! D13   D(2,3,4,5)             -2.0498         estimate D2E/DX2                !
 ! D14   D(2,3,4,9)            178.6507         estimate D2E/DX2                !
 ! D15   D(11,3,4,5)           177.2917         estimate D2E/DX2                !
 ! D16   D(11,3,4,9)            -2.0079         estimate D2E/DX2                !
 ! D17   D(2,3,15,16)          -21.6388         estimate D2E/DX2                !
 ! D18   D(2,3,15,17)          161.2865         estimate D2E/DX2                !
 ! D19   D(4,3,15,16)          159.2345         estimate D2E/DX2                !
 ! D20   D(4,3,15,17)          -17.8403         estimate D2E/DX2                !
 ! D21   D(3,4,5,6)              0.7529         estimate D2E/DX2                !
 ! D22   D(3,4,5,10)          -178.5303         estimate D2E/DX2                !
 ! D23   D(9,4,5,6)           -179.9552         estimate D2E/DX2                !
 ! D24   D(9,4,5,10)             0.7617         estimate D2E/DX2                !
 ! D25   D(4,5,6,1)              0.9473         estimate D2E/DX2                !
 ! D26   D(4,5,6,29)          -179.0527         estimate D2E/DX2                !
 ! D27   D(10,5,6,1)          -179.7583         estimate D2E/DX2                !
 ! D28   D(10,5,6,29)            0.2417         estimate D2E/DX2                !
 ! D29   D(1,6,29,30)          103.5723         estimate D2E/DX2                !
 ! D30   D(1,6,29,31)         -136.4277         estimate D2E/DX2                !
 ! D31   D(1,6,29,32)          -16.4277         estimate D2E/DX2                !
 ! D32   D(5,6,29,30)          -76.4277         estimate D2E/DX2                !
 ! D33   D(5,6,29,31)           43.5723         estimate D2E/DX2                !
 ! D34   D(5,6,29,32)          163.5723         estimate D2E/DX2                !
 ! D35   D(14,15,16,18)       -177.1498         estimate D2E/DX2                !
 ! D36   D(14,15,16,19)          2.7647         estimate D2E/DX2                !
 ! D37   D(17,15,16,18)         -0.1457         estimate D2E/DX2                !
 ! D38   D(17,15,16,19)        179.7688         estimate D2E/DX2                !
 ! D39   D(14,15,17,20)        177.2465         estimate D2E/DX2                !
 ! D40   D(14,15,17,21)         -1.9354         estimate D2E/DX2                !
 ! D41   D(16,15,17,20)          0.2754         estimate D2E/DX2                !
 ! D42   D(16,15,17,21)       -178.9065         estimate D2E/DX2                !
 ! D43   D(15,16,18,22)          0.1877         estimate D2E/DX2                !
 ! D44   D(15,16,18,23)       -179.5439         estimate D2E/DX2                !
 ! D45   D(19,16,18,22)       -179.7274         estimate D2E/DX2                !
 ! D46   D(19,16,18,23)          0.541          estimate D2E/DX2                !
 ! D47   D(15,17,20,22)         -0.4503         estimate D2E/DX2                !
 ! D48   D(15,17,20,24)       -179.9917         estimate D2E/DX2                !
 ! D49   D(21,17,20,22)        178.7375         estimate D2E/DX2                !
 ! D50   D(21,17,20,24)         -0.804          estimate D2E/DX2                !
 ! D51   D(16,18,22,20)         -0.3622         estimate D2E/DX2                !
 ! D52   D(16,18,22,25)        179.5597         estimate D2E/DX2                !
 ! D53   D(23,18,22,20)        179.3706         estimate D2E/DX2                !
 ! D54   D(23,18,22,25)         -0.7075         estimate D2E/DX2                !
 ! D55   D(17,20,22,18)          0.493          estimate D2E/DX2                !
 ! D56   D(17,20,22,25)       -179.4289         estimate D2E/DX2                !
 ! D57   D(24,20,22,18)       -179.9682         estimate D2E/DX2                !
 ! D58   D(24,20,22,25)          0.1099         estimate D2E/DX2                !
 ! D59   D(18,22,25,26)        -35.7078         estimate D2E/DX2                !
 ! D60   D(18,22,25,27)         84.2922         estimate D2E/DX2                !
 ! D61   D(18,22,25,28)       -155.7078         estimate D2E/DX2                !
 ! D62   D(20,22,25,26)        144.2143         estimate D2E/DX2                !
 ! D63   D(20,22,25,27)        -95.7857         estimate D2E/DX2                !
 ! D64   D(20,22,25,28)         24.2143         estimate D2E/DX2                !
 --------------------------------------------------------------------------------
 Trust Radius=3.00D-01 FncErr=1.00D-07 GrdErr=1.00D-06 EigMax=2.50D+02 EigMin=1.00D-04
 Number of steps in this run=    163 maximum allowed number of steps=    192.
 GradGradGradGradGradGradGradGradGradGradGradGradGradGradGradGradGradGrad

                          Input orientation:                          
 ---------------------------------------------------------------------
 Center     Atomic      Atomic             Coordinates (Angstroms)
 Number     Number       Type             X           Y           Z
 ---------------------------------------------------------------------
      1          6           0        0.000000    0.000000    0.000000
      2          6           0        0.000000    0.000000    1.414304
      3          6           0        1.223240    0.000000    2.100058
      4          6           0        2.434294    0.034383    1.393052
      5          6           0        2.428912    0.025808    0.015440
      6          6           0        1.216838   -0.001316   -0.688859
      7          1           0       -0.911078    0.004580   -0.521717
      8          1           0       -0.918673    0.004495    1.947203
      9          1           0        3.364951    0.055953    1.936751
     10          1           0        3.355356    0.028206   -0.537420
     11          6           0        1.262776   -0.053449    3.647738
     12          6           0        1.294896   -0.094480    4.833966
     13          6           0        1.338109   -0.148155    6.369974
     14          6           0        1.377511   -0.191787    7.567378
     15          6           0        1.463555   -0.264298    9.117937
     16          6           0        0.357949    0.127403    9.898276
     17          6           0        2.637444   -0.650788    9.746901
     18          6           0        0.434270    0.126046   11.275501
     19          1           0       -0.575936    0.439205    9.411708
     20          6           0        2.712066   -0.654057   11.149068
     21          1           0        3.500494   -0.937235    9.164732
     22          6           0        1.610289   -0.260258   11.904273
     23          1           0       -0.431351    0.424577   11.876016
     24          1           0        3.635510   -0.957998   11.640531
     25          6           0        1.696984   -0.251445   13.441805
     26          1           0        1.133703    0.573145   13.826079
     27          1           0        1.297676   -1.166447   13.826804
     28          1           0        2.719810   -0.154910   13.740818
     29          6           0        1.225757   -0.032707   -2.228514
     30          1           0        1.454255    0.942910   -2.603828
     31          1           0        1.965951   -0.727379   -2.566809
     32          1           0        0.263262   -0.335462   -2.584663
 ---------------------------------------------------------------------
                    Distance matrix (angstroms):
                    1          2          3          4          5
     1  C    0.000000
     2  C    1.414304   0.000000
     3  C    2.430342   1.402346   0.000000
     4  C    2.804918   2.434630   1.402744   0.000000
     5  C    2.429098   2.803052   2.408307   1.377650   0.000000
     6  C    1.398293   2.429814   2.788925   2.412018   1.402104
     7  H    1.049892   2.139687   3.380687   3.854705   3.382976
     8  H    2.153039   1.062055   2.147365   3.398582   3.865033
     9  H    3.882916   3.405728   2.148657   1.078052   2.137409
    10  H    3.398239   3.881808   3.391608   2.138952   1.078869
    11  C    3.860499   2.566260   1.549107   2.542396   3.815723
    12  C    5.005288   3.657837   2.736478   3.626944   4.951631
    13  C    6.510688   5.135285   4.274030   5.099480   6.449823
    14  C    7.694123   6.308299   5.472857   6.268192   7.627880
    15  C    9.238432   7.845879   7.026965   7.791367   9.158140
    16  C    9.905565   8.492475   7.847111   8.755495  10.098002
    17  C   10.118386   8.764235   7.803698   8.384362   9.757182
    18  C   11.284564   9.871559   9.210163  10.083218  11.435804
    19  H    9.439537   8.030136   7.542557   8.574626   9.873696
    20  C   11.492816  10.126635   9.193964   9.784219  11.157960
    21  H    9.855160   8.555758   7.481571   7.904418   9.262034
    22  C   12.015510  10.616035   9.815302  10.547585  11.920416
    23  H   11.891429  10.479206   9.924076  10.874590  12.207104
    24  H   12.232606  10.895431   9.887235  10.365257  11.728874
    25  C   13.550834  12.149229  11.354421  12.074674  13.449158
    26  H   13.884316  12.476616  11.740361  12.512472  13.882035
    27  H   13.936466  12.534541  11.784851  12.543208  13.908808
    28  H   14.008263  12.623957  11.737589  12.352516  13.729649
    29  C    2.543585   3.843653   4.328696   3.818482   2.546828
    30  H    3.127916   4.375994   4.803019   4.214375   2.941360
    31  H    3.313993   4.499256   4.781250   4.059573   2.729402
    32  H    2.619604   4.021639   4.793820   4.546690   3.403100
                    6          7          8          9         10
     6  C    0.000000
     7  H    2.134479   0.000000
     8  H    3.392531   2.468931   0.000000
     9  H    3.392860   4.932660   4.283946   0.000000
    10  H    2.144076   4.266529   4.943808   2.474345   0.000000
    11  C    4.337154   4.702485   2.766568   2.712671   4.679862
    12  C    5.524163   5.793054   3.639105   3.563932   5.754332
    13  C    7.061402   7.251040   4.967622   4.878854   7.198089
    14  C    8.259997   8.408903   6.074319   5.976223   8.345538
    15  C    9.813424   9.931471   7.560866   7.435543   9.843292
    16  C   10.622697  10.497703   8.053846   8.510760  10.858086
    17  C   10.552016  10.884211   8.597131   7.875735  10.331684
    18  C   11.990602  11.874302   9.426684   9.788056  12.169117
    19  H   10.267890   9.948576   7.485004   8.458869  10.705565
    20  C   11.949825  12.237982   9.914146   9.262675  11.724048
    21  H   10.157967  10.685330   8.515199   7.297157   9.751148
    22  C   12.601937  12.681981  10.276623  10.125725  12.566789
    23  H   12.679669  12.414118   9.949638  10.645975  12.984208
    24  H   12.600757  13.019919  10.753027   9.760360  12.221030
    25  C   14.141032  14.207304  11.791227  11.629397  14.080026
    26  H   14.526540  14.503918  12.068277  12.107934  14.544511
    27  H   14.562574  14.564682  12.141179  12.130179  14.559951
    28  H   14.508553  14.718311  12.343149  11.823563  14.293548
    29  C    1.540000   2.735071   4.694313   4.683316   2.720055
    30  H    2.148263   3.287925   5.217594   5.005429   2.953119
    31  H    2.148263   3.604922   5.406755   4.780468   2.572893
    32  H    2.148263   2.398010   4.695780   5.496988   3.726192
                   11         12         13         14         15
    11  C    0.000000
    12  C    1.187372   0.000000
    13  C    2.724924   1.537553   0.000000
    14  C    3.923758   2.736390   1.198846   0.000000
    15  C    5.477942   4.290652   2.753276   1.554637   0.000000
    16  C    6.318278   5.155030   3.672269   2.564074   1.408802
    17  C    6.280630   5.123363   3.653019   2.558992   1.386718
    18  C    7.674725   6.502513   4.995628   3.839388   2.422164
    19  H    6.070167   4.973988   3.641525   2.759649   2.177325
    20  C    7.663623   6.496307   4.998343   3.850096   2.415819
    21  H    6.018777   4.932588   3.620666   2.759400   2.145729
    22  C    8.266432   7.079279   5.542121   4.343677   2.790199
    23  H    8.414460   7.269100   5.811670   4.713412   3.416463
    24  H    8.386466   7.249376   5.806261   4.719769   3.400307
    25  C    9.805686   8.618654   7.081684   5.883411   4.330183
    26  H   10.198426   9.018303   7.493701   6.309985   4.793403
    27  H   10.239793   9.056503   7.526145   6.335358   4.797376
    28  H   10.198210   9.020312   7.499232   6.317791   4.791781
    29  C    5.876405   7.063088   8.599997   9.798358  11.351305
    30  H    6.333362   7.511482   9.040633  10.234591  11.783770
    31  H    6.290409   7.458040   8.977516  10.165376  11.704706
    32  H    6.318337   7.493891   9.020860  10.214016  11.764210
                   16         17         18         19         20
    16  C    0.000000
    17  C    2.413420   0.000000
    18  C    1.379339   2.791785   0.000000
    19  H    1.098230   3.409730   2.142967   0.000000
    20  C    2.777955   1.404155   2.410996   3.876158   0.000000
    21  H    3.398107   1.079735   3.871388   4.309625   2.153927
    22  C    2.396385   2.421118   1.388382   3.388466   1.392597
    23  H    2.150062   3.886779   1.095007   2.468589   3.401908
    24  H    3.867293   2.162486   3.399462   4.965492   1.089341
    25  C    3.806986   3.833569   2.535709   4.678124   2.539514
    26  H    4.028414   4.516518   2.682267   4.735765   3.341203
    27  H    4.241517   4.325100   2.987500   5.057827   3.071370
    28  H    4.519205   4.025425   3.373487   5.473217   2.639389
    29  C   12.158855  12.074165  13.528121  11.788281  13.474231
    30  H   12.576547  12.509210  13.940710  12.196250  13.902322
    31  H   12.597407  12.332244  13.952918  12.300691  13.736352
    32  H   12.491876  12.561993  13.868899  12.050614  13.953979
                   21         22         23         24         25
    21  H    0.000000
    22  C    3.396507   0.000000
    23  H    4.966387   2.153623   0.000000
    24  H    2.479565   2.158222   4.301899   0.000000
    25  C    4.692154   1.540000   2.727364   2.738921   0.000000
    26  H    5.441609   2.148263   2.504838   3.657876   1.070000
    27  H    5.161382   2.148263   3.053926   3.207602   1.070000
    28  H    4.707660   2.148263   3.707170   2.427893   1.070000
    29  C   11.653267  14.139848  14.208901  14.107213  15.678928
    30  H   12.092189  14.558741  14.611300  14.535236  16.091853
    31  H   11.833339  14.482987  14.685683  14.306961  16.017946
    32  H   12.202052  14.551611  14.497289  14.632695  16.090690
                   26         27         28         29         30
    26  H    0.000000
    27  H    1.747303   0.000000
    28  H    1.747303   1.747303   0.000000
    29  C   16.066284  16.095458  16.039535   0.000000
    30  H   16.437193  16.566218  16.430286   1.070000   0.000000
    31  H   16.465442  16.413103  16.335077   1.070000   1.747303
    32  H   16.458909  16.465017  16.510256   1.070000   1.747303
                   31         32
    31  H    0.000000
    32  H    1.747303   0.000000
 Symmetry turned off by external request.
 Stoichiometry    C18H14
 Framework group  C1[X(C18H14)]
 Deg. of freedom    90
 Full point group                 C1      NOp   1
 Rotational constants (GHZ):           2.7349056           0.0869327           0.0844949
 Standard basis: 6-31+G(d) (6D, 7F)
   370 basis functions,   632 primitive gaussians,   370 cartesian basis functions
    61 alpha electrons       61 beta electrons
       nuclear repulsion energy       965.3161167394 Hartrees.
 NAtoms=   32 NActive=   32 NUniq=   32 SFac= 1.00D+00 NAtFMM=   60 NAOKFM=F Big=F
 Integral buffers will be    131072 words long.
 Raffenetti 2 integral format.
 Two-electron integral symmetry is turned off.
 Nuclear repulsion after empirical dispersion term =      965.2958012934 Hartrees.
 One-electron integrals computed using PRISM.
 NBasis=   370 RedAO= T EigKep=  1.18D-06  NBF=   370
 NBsUse=   364 1.00D-06 EigRej=  7.13D-07 NBFU=   364
 ExpMin= 4.38D-02 ExpMax= 3.05D+03 ExpMxC= 4.57D+02 IAcc=3 IRadAn=         5 AccDes= 0.00D+00
 Harris functional with IExCor=  402 and IRadAn=       5 diagonalized for initial guess.
 HarFok:  IExCor=  402 AccDes= 0.00D+00 IRadAn=         5 IDoV= 1 UseB2=F ITyADJ=14
 ICtDFT=  3500011 ScaDFX=  1.000000  1.000000  1.000000  1.000000
 FoFCou: FMM=F IPFlag=           0 FMFlag=      100000 FMFlg1=           0
         NFxFlg=           0 DoJE=T BraDBF=F KetDBF=T FulRan=T
         wScrn=  0.000000 ICntrl=       500 IOpCl=  0 I1Cent=   200000004 NGrid=           0
         NMat0=    1 NMatS0=      1 NMatT0=    0 NMatD0=    1 NMtDS0=    0 NMtDT0=    0
 Symmetry not used in FoFCou.
 Requested convergence on RMS density matrix=1.00D-08 within 128 cycles.
 Requested convergence on MAX density matrix=1.00D-06.
 Requested convergence on             energy=1.00D-06.
 No special actions if energy rises.
 SCF Done:  E(RB3LYP) =  -694.256023850     A.U. after   14 cycles
            NFock= 14  Conv=0.82D-08     -V/T= 2.0103

 **********************************************************************

            Population analysis using the SCF Density.

 **********************************************************************

 Alpha  occ. eigenvalues --  -10.23556 -10.23499 -10.22157 -10.21907 -10.21267
 Alpha  occ. eigenvalues --  -10.21108 -10.21089 -10.20776 -10.20728 -10.20711
 Alpha  occ. eigenvalues --  -10.20653 -10.20499 -10.20217 -10.20030 -10.20024
 Alpha  occ. eigenvalues --  -10.19971 -10.18747 -10.18717  -0.87505  -0.87231
 Alpha  occ. eigenvalues --   -0.79990  -0.79422  -0.77084  -0.76129  -0.76026
 Alpha  occ. eigenvalues --   -0.74510  -0.70227  -0.69567  -0.62429  -0.62137
 Alpha  occ. eigenvalues --   -0.60876  -0.60053  -0.56880  -0.53597  -0.51841
 Alpha  occ. eigenvalues --   -0.47790  -0.47642  -0.47321  -0.46675  -0.43903
 Alpha  occ. eigenvalues --   -0.43656  -0.43597  -0.43572  -0.43239  -0.42870
 Alpha  occ. eigenvalues --   -0.40409  -0.40289  -0.38068  -0.37752  -0.35990
 Alpha  occ. eigenvalues --   -0.35757  -0.35495  -0.35395  -0.33468  -0.33055
 Alpha  occ. eigenvalues --   -0.29522  -0.26742  -0.26560  -0.26523  -0.25334
 Alpha  occ. eigenvalues --   -0.22848
 Alpha virt. eigenvalues --   -0.04826  -0.02396  -0.02186  -0.02115   0.00098
 Alpha virt. eigenvalues --    0.00370   0.00540   0.01653   0.02181   0.02379
 Alpha virt. eigenvalues --    0.02424   0.03210   0.04020   0.04701   0.04776
 Alpha virt. eigenvalues --    0.05383   0.05494   0.06051   0.06078   0.06204
 Alpha virt. eigenvalues --    0.06375   0.07266   0.07568   0.07753   0.08679
 Alpha virt. eigenvalues --    0.08780   0.08951   0.09084   0.10034   0.10426
 Alpha virt. eigenvalues --    0.10947   0.11616   0.11930   0.11948   0.12855
 Alpha virt. eigenvalues --    0.12998   0.13273   0.13584   0.13727   0.14107
 Alpha virt. eigenvalues --    0.14614   0.14686   0.15118   0.15177   0.15303
 Alpha virt. eigenvalues --    0.15388   0.15788   0.16261   0.16825   0.17706
 Alpha virt. eigenvalues --    0.18774   0.18874   0.18942   0.19523   0.19936
 Alpha virt. eigenvalues --    0.20216   0.20369   0.20547   0.20757   0.21032
 Alpha virt. eigenvalues --    0.21122   0.21543   0.21874   0.22058   0.22229
 Alpha virt. eigenvalues --    0.22700   0.23241   0.23779   0.23932   0.24442
 Alpha virt. eigenvalues --    0.25144   0.25439   0.25863   0.26258   0.27156
 Alpha virt. eigenvalues --    0.27514   0.27633   0.27917   0.28288   0.28687
 Alpha virt. eigenvalues --    0.29039   0.29144   0.29608   0.29686   0.29873
 Alpha virt. eigenvalues --    0.32123   0.32250   0.32270   0.33591   0.34164
 Alpha virt. eigenvalues --    0.35066   0.35805   0.36118   0.36474   0.37585
 Alpha virt. eigenvalues --    0.38313   0.40020   0.40479   0.44041   0.44587
 Alpha virt. eigenvalues --    0.44983   0.49154   0.52704   0.56718   0.57188
 Alpha virt. eigenvalues --    0.59821   0.60537   0.65064   0.65185   0.65518
 Alpha virt. eigenvalues --    0.65773   0.66266   0.67069   0.67500   0.67853
 Alpha virt. eigenvalues --    0.69543   0.70210   0.70322   0.71000   0.71139
 Alpha virt. eigenvalues --    0.71181   0.71974   0.72648   0.73055   0.73238
 Alpha virt. eigenvalues --    0.73601   0.73826   0.74042   0.75170   0.75745
 Alpha virt. eigenvalues --    0.76224   0.77176   0.77745   0.77866   0.78555
 Alpha virt. eigenvalues --    0.78905   0.79033   0.79595   0.81375   0.81966
 Alpha virt. eigenvalues --    0.82646   0.83132   0.84388   0.85141   0.86028
 Alpha virt. eigenvalues --    0.86240   0.87254   0.91832   0.93112   0.94311
 Alpha virt. eigenvalues --    0.94756   0.95176   0.96455   0.96666   0.97320
 Alpha virt. eigenvalues --    0.97906   0.98529   0.99124   1.00008   1.03391
 Alpha virt. eigenvalues --    1.04541   1.04632   1.05571   1.06076   1.10316
 Alpha virt. eigenvalues --    1.10522   1.11052   1.12758   1.13303   1.14774
 Alpha virt. eigenvalues --    1.15149   1.15751   1.17944   1.18746   1.19442
 Alpha virt. eigenvalues --    1.20005   1.20687   1.20965   1.23962   1.24146
 Alpha virt. eigenvalues --    1.24403   1.27777   1.28248   1.28622   1.31016
 Alpha virt. eigenvalues --    1.32013   1.32673   1.38647   1.39067   1.41838
 Alpha virt. eigenvalues --    1.43280   1.43982   1.44697   1.44990   1.45233
 Alpha virt. eigenvalues --    1.45983   1.46400   1.47592   1.49332   1.49700
 Alpha virt. eigenvalues --    1.50631   1.51749   1.53125   1.54324   1.57013
 Alpha virt. eigenvalues --    1.58719   1.62564   1.62727   1.65437   1.80505
 Alpha virt. eigenvalues --    1.80805   1.82710   1.83384   1.84061   1.84229
 Alpha virt. eigenvalues --    1.85594   1.85822   1.87906   1.88779   1.89175
 Alpha virt. eigenvalues --    1.90448   1.91226   1.91894   1.92549   1.92705
 Alpha virt. eigenvalues --    1.92982   1.97394   1.98310   1.98877   2.00690
 Alpha virt. eigenvalues --    2.01598   2.07379   2.09596   2.10850   2.11359
 Alpha virt. eigenvalues --    2.12839   2.14097   2.14359   2.15870   2.17287
 Alpha virt. eigenvalues --    2.18708   2.19476   2.21064   2.24925   2.25787
 Alpha virt. eigenvalues --    2.27773   2.29164   2.29743   2.30320   2.30519
 Alpha virt. eigenvalues --    2.36281   2.37518   2.39055   2.39256   2.39301
 Alpha virt. eigenvalues --    2.39999   2.40988   2.47419   2.52178   2.55477
 Alpha virt. eigenvalues --    2.57411   2.60027   2.62248   2.63748   2.64054
 Alpha virt. eigenvalues --    2.65296   2.65504   2.68905   2.70034   2.75070
 Alpha virt. eigenvalues --    2.76033   2.79237   2.81390   2.84738   2.86408
 Alpha virt. eigenvalues --    2.92097   2.96001   2.96510   2.97136   3.09466
 Alpha virt. eigenvalues --    3.16589   3.22304   3.37513   3.44397   3.64700
 Alpha virt. eigenvalues --    4.07781   4.19643   4.19883   4.24056   4.24676
 Alpha virt. eigenvalues --    4.25241   4.25693   4.31575   4.31822   4.40065
 Alpha virt. eigenvalues --    4.40370   4.42795   4.42888   4.57737   4.61006
 Alpha virt. eigenvalues --    4.75680   4.79886   5.25756
          Condensed to atoms (all electrons):
               1          2          3          4          5          6
     1  C    9.022643  -3.766872   0.712409   1.950089  -1.623866  -0.017696
     2  C   -3.766872  15.880019  -1.638527  -7.245730   2.112719   0.452198
     3  C    0.712409  -1.638527   9.302528  -1.039129   0.362805  -0.354822
     4  C    1.950089  -7.245730  -1.039129  16.435615  -3.980816  -0.251580
     5  C   -1.623866   2.112719   0.362805  -3.980816   8.822941   0.274183
     6  C   -0.017696   0.452198  -0.354822  -0.251580   0.274183   7.344561
     7  H    0.305483  -0.079237   0.024862  -0.002817   0.035919   0.029530
     8  H   -0.098393   0.366669  -0.023421   0.022766  -0.008018   0.004612
     9  H   -0.005582   0.014966  -0.030683   0.363554  -0.089297   0.007290
    10  H    0.062306  -0.007250   0.015240  -0.085275   0.257840   0.061327
    11  C   -0.210623   0.305885  -0.877394   0.282454  -0.193873  -0.113009
    12  C    0.100135  -0.229165  -0.031260  -0.096791   0.037325  -0.213372
    13  C   -0.001490  -0.022350   0.378313  -0.125294   0.026881   0.061276
    14  C   -0.000067   0.016716  -0.313596   0.057296  -0.011007  -0.018527
    15  C    0.000280  -0.004901   0.142774  -0.023574   0.003213   0.003924
    16  C   -0.001827   0.023525  -0.010312  -0.018959   0.001883   0.000031
    17  C    0.001961  -0.023442  -0.017289   0.027686  -0.003046  -0.000088
    18  C    0.000334  -0.003144   0.001303   0.002440  -0.000286  -0.000014
    19  H    0.000000   0.000007  -0.000012  -0.000003   0.000000   0.000000
    20  C   -0.000183   0.001920   0.002141  -0.002301   0.000354   0.000006
    21  H    0.000000  -0.000001   0.000000   0.000003   0.000000   0.000000
    22  C   -0.000004   0.000033   0.003860  -0.000066  -0.000003   0.000048
    23  H    0.000000   0.000000   0.000000   0.000000   0.000000   0.000000
    24  H    0.000000   0.000000   0.000000   0.000000   0.000000   0.000000
    25  C    0.000000   0.000000   0.000299  -0.000004   0.000000   0.000001
    26  H    0.000000   0.000000   0.000000   0.000000   0.000000   0.000000
    27  H    0.000000   0.000000   0.000000   0.000000   0.000000   0.000000
    28  H    0.000000   0.000000   0.000000   0.000000   0.000000   0.000000
    29  C   -0.036345   0.098459  -0.633594  -0.004340  -0.065289  -1.264275
    30  H    0.030654  -0.005232  -0.000687  -0.001055  -0.043435  -0.059270
    31  H    0.036164  -0.014963  -0.001867   0.017193  -0.025801  -0.121520
    32  H   -0.052116   0.021397  -0.007020  -0.015015   0.042013  -0.133316
               7          8          9         10         11         12
     1  C    0.305483  -0.098393  -0.005582   0.062306  -0.210623   0.100135
     2  C   -0.079237   0.366669   0.014966  -0.007250   0.305885  -0.229165
     3  C    0.024862  -0.023421  -0.030683   0.015240  -0.877394  -0.031260
     4  C   -0.002817   0.022766   0.363554  -0.085275   0.282454  -0.096791
     5  C    0.035919  -0.008018  -0.089297   0.257840  -0.193873   0.037325
     6  C    0.029530   0.004612   0.007290   0.061327  -0.113009  -0.213372
     7  H    0.543855  -0.004193   0.000019  -0.000168  -0.004751   0.001160
     8  H   -0.004193   0.524351  -0.000154   0.000019   0.027297  -0.009093
     9  H    0.000019  -0.000154   0.522600  -0.004437   0.028299  -0.006713
    10  H   -0.000168   0.000019  -0.004437   0.542296  -0.005762   0.001494
    11  C   -0.004751   0.027297   0.028299  -0.005762   8.806705  -0.120316
    12  C    0.001160  -0.009093  -0.006713   0.001494  -0.120316   7.129407
    13  C   -0.000087   0.001390   0.001093  -0.000123  -0.924641  -0.894506
    14  C    0.000006  -0.000014   0.000105   0.000011   0.281905  -0.816837
    15  C    0.000000  -0.000002  -0.000015  -0.000001  -0.308360   0.315706
    16  C    0.000000   0.000002  -0.000002   0.000000   0.017462  -0.030066
    17  C    0.000000  -0.000001   0.000005   0.000000   0.047161  -0.081923
    18  C    0.000000   0.000000   0.000000   0.000000  -0.001738  -0.002945
    19  H    0.000000   0.000000   0.000000   0.000000   0.000070   0.001578
    20  C    0.000000   0.000000   0.000000   0.000000  -0.007285   0.018831
    21  H    0.000000   0.000000   0.000000   0.000000   0.000007   0.001678
    22  C    0.000000   0.000000   0.000000   0.000000  -0.018773   0.059203
    23  H    0.000000   0.000000   0.000000   0.000000   0.000010  -0.000120
    24  H    0.000000   0.000000   0.000000   0.000000   0.000010  -0.000114
    25  C    0.000000   0.000000   0.000000   0.000000  -0.002282   0.013770
    26  H    0.000000   0.000000   0.000000   0.000000   0.000000   0.000003
    27  H    0.000000   0.000000   0.000000   0.000000   0.000000   0.000002
    28  H    0.000000   0.000000   0.000000   0.000000   0.000000   0.000001
    29  C   -0.030435   0.002077   0.001779  -0.019823   0.101753  -0.078178
    30  H    0.000238   0.000002   0.000000   0.000524   0.000317  -0.000037
    31  H    0.000097   0.000002  -0.000003   0.001863   0.000506  -0.000019
    32  H    0.003917  -0.000004   0.000002   0.000095   0.000385  -0.000038
              13         14         15         16         17         18
     1  C   -0.001490  -0.000067   0.000280  -0.001827   0.001961   0.000334
     2  C   -0.022350   0.016716  -0.004901   0.023525  -0.023442  -0.003144
     3  C    0.378313  -0.313596   0.142774  -0.010312  -0.017289   0.001303
     4  C   -0.125294   0.057296  -0.023574  -0.018959   0.027686   0.002440
     5  C    0.026881  -0.011007   0.003213   0.001883  -0.003046  -0.000286
     6  C    0.061276  -0.018527   0.003924   0.000031  -0.000088  -0.000014
     7  H   -0.000087   0.000006   0.000000   0.000000   0.000000   0.000000
     8  H    0.001390  -0.000014  -0.000002   0.000002  -0.000001   0.000000
     9  H    0.001093   0.000105  -0.000015  -0.000002   0.000005   0.000000
    10  H   -0.000123   0.000011  -0.000001   0.000000   0.000000   0.000000
    11  C   -0.924641   0.281905  -0.308360   0.017462   0.047161  -0.001738
    12  C   -0.894506  -0.816837   0.315706  -0.030066  -0.081923  -0.002945
    13  C    7.265579  -0.219932   0.130677  -0.325984  -0.142679   0.136779
    14  C   -0.219932   8.854628  -1.183890   0.584965   0.320193  -0.349552
    15  C    0.130677  -1.183890   9.925504  -1.369039  -1.982943   0.642701
    16  C   -0.325984   0.584965  -1.369039  19.030347  -8.914539  -5.860810
    17  C   -0.142679   0.320193  -1.982943  -8.914539  17.692103   3.148123
    18  C    0.136779  -0.349552   0.642701  -5.860810   3.148123  10.180578
    19  H   -0.007409   0.035971  -0.023228   0.363582   0.013053  -0.098858
    20  C    0.048525  -0.184477   0.693837   2.748842  -4.365064  -2.158618
    21  H   -0.008404   0.031779  -0.024094   0.017159   0.358355  -0.005530
    22  C   -0.215935  -0.105808  -0.393866   0.025132   0.311430   0.189911
    23  H    0.001432  -0.005751   0.014712  -0.068383  -0.009815   0.248214
    24  H    0.001417  -0.005053   0.020048  -0.006531  -0.053238   0.042105
    25  C   -0.077410   0.100318  -0.634079   0.116154  -0.015784  -0.108330
    26  H   -0.000037   0.000626  -0.004033   0.027128  -0.020427  -0.048152
    27  H   -0.000043   0.000262  -0.001337  -0.000647  -0.002490  -0.022827
    28  H   -0.000018   0.000443  -0.005233  -0.020626   0.024301   0.049102
    29  C    0.013988  -0.002234   0.000299  -0.000003  -0.000002   0.000000
    30  H    0.000002   0.000000   0.000000   0.000000   0.000000   0.000000
    31  H    0.000002   0.000000   0.000000   0.000000   0.000000   0.000000
    32  H    0.000002   0.000000   0.000000   0.000000   0.000000   0.000000
              19         20         21         22         23         24
     1  C    0.000000  -0.000183   0.000000  -0.000004   0.000000   0.000000
     2  C    0.000007   0.001920  -0.000001   0.000033   0.000000   0.000000
     3  C   -0.000012   0.002141   0.000000   0.003860   0.000000   0.000000
     4  C   -0.000003  -0.002301   0.000003  -0.000066   0.000000   0.000000
     5  C    0.000000   0.000354   0.000000  -0.000003   0.000000   0.000000
     6  C    0.000000   0.000006   0.000000   0.000048   0.000000   0.000000
     7  H    0.000000   0.000000   0.000000   0.000000   0.000000   0.000000
     8  H    0.000000   0.000000   0.000000   0.000000   0.000000   0.000000
     9  H    0.000000   0.000000   0.000000   0.000000   0.000000   0.000000
    10  H    0.000000   0.000000   0.000000   0.000000   0.000000   0.000000
    11  C    0.000070  -0.007285   0.000007  -0.018773   0.000010   0.000010
    12  C    0.001578   0.018831   0.001678   0.059203  -0.000120  -0.000114
    13  C   -0.007409   0.048525  -0.008404  -0.215935   0.001432   0.001417
    14  C    0.035971  -0.184477   0.031779  -0.105808  -0.005751  -0.005053
    15  C   -0.023228   0.693837  -0.024094  -0.393866   0.014712   0.020048
    16  C    0.363582   2.748842   0.017159   0.025132  -0.068383  -0.006531
    17  C    0.013053  -4.365064   0.358355   0.311430  -0.009815  -0.053238
    18  C   -0.098858  -2.158618  -0.005530   0.189911   0.248214   0.042105
    19  H    0.522713  -0.005364  -0.000151   0.003462  -0.004430   0.000017
    20  C   -0.005364   9.112347  -0.089914   0.065292   0.058259   0.259715
    21  H   -0.000151  -0.089914   0.521928   0.002251   0.000018  -0.004108
    22  C    0.003462   0.065292   0.002251   7.295742   0.064721   0.049649
    23  H   -0.004430   0.058259   0.000018   0.064721   0.539713  -0.000156
    24  H    0.000017   0.259715  -0.004108   0.049649  -0.000156   0.539448
    25  C    0.002245   0.029425   0.002301  -1.291241  -0.022710  -0.026978
    26  H   -0.000004   0.051688   0.000002  -0.128287   0.002427   0.000098
    27  H    0.000001   0.003095   0.000002  -0.053399   0.000413   0.000283
    28  H    0.000002  -0.048977  -0.000004  -0.130713   0.000101   0.003365
    29  C    0.000000   0.000000   0.000000   0.000001   0.000000   0.000000
    30  H    0.000000   0.000000   0.000000   0.000000   0.000000   0.000000
    31  H    0.000000   0.000000   0.000000   0.000000   0.000000   0.000000
    32  H    0.000000   0.000000   0.000000   0.000000   0.000000   0.000000
              25         26         27         28         29         30
     1  C    0.000000   0.000000   0.000000   0.000000  -0.036345   0.030654
     2  C    0.000000   0.000000   0.000000   0.000000   0.098459  -0.005232
     3  C    0.000299   0.000000   0.000000   0.000000  -0.633594  -0.000687
     4  C   -0.000004   0.000000   0.000000   0.000000  -0.004340  -0.001055
     5  C    0.000000   0.000000   0.000000   0.000000  -0.065289  -0.043435
     6  C    0.000001   0.000000   0.000000   0.000000  -1.264275  -0.059270
     7  H    0.000000   0.000000   0.000000   0.000000  -0.030435   0.000238
     8  H    0.000000   0.000000   0.000000   0.000000   0.002077   0.000002
     9  H    0.000000   0.000000   0.000000   0.000000   0.001779   0.000000
    10  H    0.000000   0.000000   0.000000   0.000000  -0.019823   0.000524
    11  C   -0.002282   0.000000   0.000000   0.000000   0.101753   0.000317
    12  C    0.013770   0.000003   0.000002   0.000001  -0.078178  -0.000037
    13  C   -0.077410  -0.000037  -0.000043  -0.000018   0.013988   0.000002
    14  C    0.100318   0.000626   0.000262   0.000443  -0.002234   0.000000
    15  C   -0.634079  -0.004033  -0.001337  -0.005233   0.000299   0.000000
    16  C    0.116154   0.027128  -0.000647  -0.020626  -0.000003   0.000000
    17  C   -0.015784  -0.020427  -0.002490   0.024301  -0.000002   0.000000
    18  C   -0.108330  -0.048152  -0.022827   0.049102   0.000000   0.000000
    19  H    0.002245  -0.000004   0.000001   0.000002   0.000000   0.000000
    20  C    0.029425   0.051688   0.003095  -0.048977   0.000000   0.000000
    21  H    0.002301   0.000002   0.000002  -0.000004   0.000000   0.000000
    22  C   -1.291241  -0.128287  -0.053399  -0.130713   0.000001   0.000000
    23  H   -0.022710   0.002427   0.000413   0.000101   0.000000   0.000000
    24  H   -0.026978   0.000098   0.000283   0.003365   0.000000   0.000000
    25  C    7.278888   0.462867   0.412678   0.474118   0.000000   0.000000
    26  H    0.462867   0.497974  -0.029012  -0.025955   0.000000   0.000000
    27  H    0.412678  -0.029012   0.488556  -0.027191   0.000000   0.000000
    28  H    0.474118  -0.025955  -0.027191   0.498221   0.000000   0.000000
    29  C    0.000000   0.000000   0.000000   0.000000   7.275399   0.413407
    30  H    0.000000   0.000000   0.000000   0.000000   0.413407   0.489792
    31  H    0.000000   0.000000   0.000000   0.000000   0.450094  -0.030172
    32  H    0.000000   0.000000   0.000000   0.000000   0.485942  -0.026410
              31         32
     1  C    0.036164  -0.052116
     2  C   -0.014963   0.021397
     3  C   -0.001867  -0.007020
     4  C    0.017193  -0.015015
     5  C   -0.025801   0.042013
     6  C   -0.121520  -0.133316
     7  H    0.000097   0.003917
     8  H    0.000002  -0.000004
     9  H   -0.000003   0.000002
    10  H    0.001863   0.000095
    11  C    0.000506   0.000385
    12  C   -0.000019  -0.000038
    13  C    0.000002   0.000002
    14  C    0.000000   0.000000
    15  C    0.000000   0.000000
    16  C    0.000000   0.000000
    17  C    0.000000   0.000000
    18  C    0.000000   0.000000
    19  H    0.000000   0.000000
    20  C    0.000000   0.000000
    21  H    0.000000   0.000000
    22  C    0.000000   0.000000
    23  H    0.000000   0.000000
    24  H    0.000000   0.000000
    25  C    0.000000   0.000000
    26  H    0.000000   0.000000
    27  H    0.000000   0.000000
    28  H    0.000000   0.000000
    29  C    0.450094   0.485942
    30  H   -0.030172  -0.026410
    31  H    0.496926  -0.025873
    32  H   -0.025873   0.498623
 Mulliken charges:
               1
     1  C   -0.407392
     2  C   -0.253698
     3  C    0.033079
     4  C   -0.266345
     5  C    0.066659
     6  C    0.308500
     7  H    0.176601
     8  H    0.194106
     9  H    0.197173
    10  H    0.179821
    11  C   -1.111419
    12  C    0.931200
    13  C    0.898986
    14  C   -1.068481
    15  C    0.064920
    16  C   -0.328484
    17  C   -0.311601
    18  C    0.019216
    19  H    0.196758
    20  C   -0.232093
    21  H    0.196724
    22  C    0.267362
    23  H    0.181346
    24  H    0.180024
    25  C   -0.714244
    26  H    0.213093
    27  H    0.231655
    28  H    0.209062
    29  C   -0.708678
    30  H    0.231363
    31  H    0.217373
    32  H    0.207416
 Sum of Mulliken charges =   0.00000
 Mulliken charges with hydrogens summed into heavy atoms:
               1
     1  C   -0.230791
     2  C   -0.059592
     3  C    0.033079
     4  C   -0.069173
     5  C    0.246480
     6  C    0.308500
    11  C   -1.111419
    12  C    0.931200
    13  C    0.898986
    14  C   -1.068481
    15  C    0.064920
    16  C   -0.131726
    17  C   -0.114876
    18  C    0.200562
    20  C   -0.052069
    22  C    0.267362
    25  C   -0.060434
    29  C   -0.052526
 Electronic spatial extent (au):  <R**2>=          26593.0654
 Charge=              0.0000 electrons
 Dipole moment (field-independent basis, Debye):
    X=              0.1106    Y=              0.0111    Z=             -0.0347  Tot=              0.1165
 Quadrupole moment (field-independent basis, Debye-Ang):
   XX=            -96.7204   YY=           -112.1175   ZZ=            -64.0177
   XY=             -2.4944   XZ=              1.3759   YZ=             -0.7608
 Traceless Quadrupole moment (field-independent basis, Debye-Ang):
   XX=             -5.7686   YY=            -21.1656   ZZ=             26.9342
   XY=             -2.4944   XZ=              1.3759   YZ=             -0.7608
 Octapole moment (field-independent basis, Debye-Ang**2):
  XXX=           -400.3769  YYY=             42.7071  ZZZ=          -1075.7579  XYY=           -152.9150
  XXY=              4.7603  XXZ=           -545.0347  XZZ=            -75.2538  YZZ=              0.1566
  YYZ=           -624.8385  XYZ=            -27.2593
 Hexadecapole moment (field-independent basis, Debye-Ang**3):
 XXXX=          -1699.9323 YYYY=           -201.3480 ZZZZ=         -26024.8355 XXXY=             63.9357
 XXXZ=          -2476.3807 YYYX=            105.3116 YYYZ=            422.6016 ZZZX=          -1591.3898
 ZZZY=            212.8359 XXYY=           -355.8762 XXZZ=          -5778.0596 YYZZ=          -6352.6220
 XXYZ=             46.3690 YYXZ=           -939.8804 ZZXY=           -261.4375
 N-N= 9.652958012934D+02 E-N=-3.535874658777D+03  KE= 6.872028369802D+02
 Evaluate density.
 Using the total density.
 Monte-Carlo method of calculating molar volume:
 based on  0.001 e/bohr**3 density envelope.
 Number of points per bohr**3 =   20 CutOff= 1.00D-04
 Using the SCF density.
 There are       447 points.  Will hold       447 in memory.
 LenV=  4026227392 MDV=  4026531840.
 Box volume =11223.378 fraction occupied=0.204
 Integrated density= 8.8359568234316598D+01 error=-3.3640431765683402D+01
 Molar volume = 2284.849 bohr**3/mol (203.897 cm**3/mol)
 Recommended a0 for SCRF calculation =  5.26 angstrom (  9.94 bohr)
 Calling FoFJK, ICntrl=      2127 FMM=F ISym2X=0 I1Cent= 0 IOpClX= 0 NMat=1 NMatS=1 NMatT=0.
 -------------------------------------------------------------------
 Center     Atomic                   Forces (Hartrees/Bohr)
 Number     Number              X              Y              Z
 -------------------------------------------------------------------
      1        6           0.030018044    0.000872503    0.032073016
      2        6           0.015934136    0.000395033   -0.018762067
      3        6          -0.001759949   -0.001791713    0.060386077
      4        6          -0.001017126   -0.000974035    0.009383598
      5        6          -0.008715903   -0.000115357   -0.006851951
      6        6          -0.003647666   -0.001291426   -0.020841250
      7        1          -0.024003452   -0.000647866   -0.014022764
      8        1          -0.014325677   -0.000881119    0.009788782
      9        1           0.004666976   -0.000476337    0.003255835
     10        1           0.005888583    0.000348335   -0.002119540
     11        6          -0.005091735    0.005546826   -0.117394787
     12        6           0.003938134   -0.005317368    0.155855656
     13        6          -0.003533035    0.004530270   -0.129533188
     14        6           0.005346706   -0.006332864    0.093621084
     15        6          -0.014801053    0.010486356   -0.061775993
     16        6          -0.012425495    0.002707086   -0.018369420
     17        6           0.009307385   -0.003437554    0.009205914
     18        6          -0.007748300    0.001389454    0.003392861
     19        1           0.007708774   -0.002373000    0.001255482
     20        6          -0.000403057   -0.000241291   -0.011300554
     21        1           0.002862041   -0.001343209   -0.003370145
     22        6           0.009487013   -0.001638583    0.029841722
     23        1           0.003810645   -0.000591813   -0.003284025
     24        1          -0.001284867    0.000760615   -0.000841238
     25        6          -0.000775258    0.000999259   -0.035462521
     26        1          -0.008738616    0.012168533    0.009335770
     27        1          -0.006517718   -0.014871167    0.009546782
     28        1           0.015331301    0.001001301    0.008134207
     29        6          -0.001200417   -0.000030070    0.035928852
     30        1           0.004095621    0.015707333   -0.009485604
     31        1           0.011736585   -0.010329768   -0.008631865
     32        1          -0.014142619   -0.004228360   -0.008958726
 -------------------------------------------------------------------
 Cartesian Forces:  Max     0.155855656 RMS     0.029303832

 GradGradGradGradGradGradGradGradGradGradGradGradGradGradGradGradGradGrad
 Berny optimization.
 FormGI is forming the generalized inverse of G from B-inverse, IUseBI=4.
 Internal  Forces:  Max     0.099682127 RMS     0.013166726
 Search for a local minimum.
 Step number   1 out of a maximum of  163
 All quantities printed in internal units (Hartrees-Bohrs-Radians)
 Mixed Optimization -- RFO/linear search
 Second derivative matrix not updated -- first step.
 ITU=  0
     Eigenvalues ---    0.00230   0.00230   0.00230   0.00237   0.00237
     Eigenvalues ---    0.00263   0.00269   0.01336   0.01414   0.01507
     Eigenvalues ---    0.01703   0.01969   0.02008   0.02020   0.02074
     Eigenvalues ---    0.02087   0.02103   0.02137   0.02172   0.02182
     Eigenvalues ---    0.02193   0.02197   0.02261   0.02262   0.02306
     Eigenvalues ---    0.03788   0.04568   0.04761   0.04896   0.07243
     Eigenvalues ---    0.07243   0.07243   0.07243   0.15998   0.15998
     Eigenvalues ---    0.15999   0.16000   0.16000   0.16000   0.16000
     Eigenvalues ---    0.16000   0.16000   0.16000   0.16000   0.16000
     Eigenvalues ---    0.16000   0.16000   0.21998   0.22000   0.22976
     Eigenvalues ---    0.22977   0.23996   0.23999   0.24964   0.24998
     Eigenvalues ---    0.25000   0.25000   0.27261   0.27727   0.28519
     Eigenvalues ---    0.28519   0.28737   0.33879   0.34240   0.34889
     Eigenvalues ---    0.36026   0.36131   0.36231   0.37230   0.37230
     Eigenvalues ---    0.37230   0.37230   0.37230   0.37230   0.38253
     Eigenvalues ---    0.39892   0.40883   0.41453   0.41588   0.42647
     Eigenvalues ---    0.44537   0.45253   0.45423   0.45600   0.46458
     Eigenvalues ---    0.47752   0.48542   0.48567   1.05405   1.11433
 RFO step:  Lambda=-6.58145833D-02 EMin= 2.30000000D-03
 Linear search not attempted -- first point.
 Maximum step size (   0.300) exceeded in Quadratic search.
    -- Step size scaled by   0.711
 Iteration  1 RMS(Cart)=  0.08895236 RMS(Int)=  0.00023842
 Iteration  2 RMS(Cart)=  0.00050230 RMS(Int)=  0.00002139
 Iteration  3 RMS(Cart)=  0.00000036 RMS(Int)=  0.00002139
 Variable       Old X    -DE/DX   Delta X   Delta X   Delta X     New X
                                 (Linear)    (Quad)   (Total)
    R1        2.67265  -0.01010   0.00000  -0.01547  -0.01547   2.65718
    R2        2.64239   0.00119   0.00000   0.00119   0.00121   2.64360
    R3        1.98401   0.02780   0.00000   0.04252   0.04252   2.02653
    R4        2.65005  -0.00447   0.00000  -0.00673  -0.00674   2.64331
    R5        2.00699   0.01730   0.00000   0.02743   0.02743   2.03442
    R6        2.65080   0.00084   0.00000   0.00160   0.00159   2.65239
    R7        2.92739  -0.06129   0.00000  -0.12700  -0.12700   2.80038
    R8        2.60338   0.01301   0.00000   0.01746   0.01745   2.62083
    R9        2.03722   0.00566   0.00000   0.00940   0.00940   2.04662
   R10        2.64959   0.00205   0.00000   0.00343   0.00343   2.65303
   R11        2.03877   0.00614   0.00000   0.01023   0.01023   2.04899
   R12        2.91018  -0.00887   0.00000  -0.01797  -0.01797   2.89221
   R13        2.24381   0.05631   0.00000   0.03392   0.03392   2.27773
   R14        2.90555  -0.09968   0.00000  -0.20064  -0.20064   2.70491
   R15        2.26549   0.02998   0.00000   0.01903   0.01903   2.28452
   R16        2.93784  -0.06399   0.00000  -0.13442  -0.13442   2.80342
   R17        2.66225  -0.00430   0.00000  -0.00600  -0.00601   2.65624
   R18        2.62052   0.01020   0.00000   0.01280   0.01280   2.63331
   R19        2.60657   0.01253   0.00000   0.01646   0.01646   2.62303
   R20        2.07535  -0.00779   0.00000  -0.01368  -0.01368   2.06168
   R21        2.65347  -0.00300   0.00000  -0.00468  -0.00468   2.64879
   R22        2.04040   0.00446   0.00000   0.00744   0.00744   2.04785
   R23        2.62366   0.01479   0.00000   0.01992   0.01992   2.64358
   R24        2.06926  -0.00497   0.00000  -0.00866  -0.00866   2.06060
   R25        2.63163   0.00619   0.00000   0.00823   0.00824   2.63987
   R26        2.05856  -0.00168   0.00000  -0.00288  -0.00288   2.05568
   R27        2.91018  -0.00848   0.00000  -0.01717  -0.01717   2.89301
   R28        2.02201   0.01733   0.00000   0.02812   0.02812   2.05013
   R29        2.02201   0.01858   0.00000   0.03016   0.03016   2.05216
   R30        2.02201   0.01702   0.00000   0.02761   0.02761   2.04962
   R31        2.02201   0.01852   0.00000   0.03006   0.03006   2.05206
   R32        2.02201   0.01755   0.00000   0.02848   0.02848   2.05049
   R33        2.02201   0.01690   0.00000   0.02742   0.02742   2.04943
    A1        2.08592   0.00695   0.00000   0.01424   0.01425   2.10017
    A2        2.09085  -0.00324   0.00000  -0.00637  -0.00638   2.08447
    A3        2.10641  -0.00371   0.00000  -0.00787  -0.00787   2.09854
    A4        2.08174   0.00250   0.00000   0.00285   0.00285   2.08459
    A5        2.09643   0.00003   0.00000   0.00261   0.00261   2.09904
    A6        2.10500  -0.00253   0.00000  -0.00546  -0.00546   2.09954
    A7        2.10205  -0.00057   0.00000  -0.00181  -0.00184   2.10021
    A8        2.10693  -0.00241   0.00000  -0.00515  -0.00514   2.10179
    A9        2.07415   0.00298   0.00000   0.00697   0.00698   2.08112
   A10        2.09495  -0.00280   0.00000  -0.00448  -0.00451   2.09044
   A11        2.08473   0.00093   0.00000   0.00076   0.00078   2.08550
   A12        2.10345   0.00188   0.00000   0.00375   0.00376   2.10721
   A13        2.10111   0.00089   0.00000   0.00502   0.00501   2.10612
   A14        2.10489  -0.00166   0.00000  -0.00634  -0.00634   2.09855
   A15        2.07712   0.00078   0.00000   0.00135   0.00135   2.07847
   A16        2.09995  -0.00693   0.00000  -0.01557  -0.01555   2.08440
   A17        2.09162   0.00478   0.00000   0.01073   0.01072   2.10234
   A18        2.09162   0.00216   0.00000   0.00483   0.00483   2.09644
   A19        2.08983  -0.00068   0.00000  -0.00090  -0.00091   2.08893
   A20        2.10857  -0.00274   0.00000  -0.00554  -0.00555   2.10302
   A21        2.08358   0.00347   0.00000   0.00686   0.00684   2.09042
   A22        2.10523  -0.00430   0.00000  -0.00987  -0.00988   2.09535
   A23        2.09541  -0.00039   0.00000  -0.00305  -0.00304   2.09237
   A24        2.08254   0.00468   0.00000   0.01292   0.01292   2.09546
   A25        2.09273   0.00019   0.00000  -0.00171  -0.00171   2.09102
   A26        2.10137  -0.00127   0.00000  -0.00283  -0.00283   2.09854
   A27        2.08900   0.00108   0.00000   0.00457   0.00457   2.09357
   A28        2.09362   0.00364   0.00000   0.01086   0.01086   2.10448
   A29        2.09851  -0.00250   0.00000  -0.00755  -0.00756   2.09096
   A30        2.09104  -0.00115   0.00000  -0.00330  -0.00330   2.08774
   A31        2.09304   0.00463   0.00000   0.01033   0.01034   2.10339
   A32        2.09003  -0.00240   0.00000  -0.00544  -0.00544   2.08459
   A33        2.10008  -0.00222   0.00000  -0.00488  -0.00489   2.09520
   A34        2.09814  -0.00763   0.00000  -0.01645  -0.01644   2.08170
   A35        2.09237   0.00349   0.00000   0.00751   0.00750   2.09987
   A36        2.09267   0.00414   0.00000   0.00895   0.00894   2.10162
   A37        1.91063   0.00340   0.00000   0.01081   0.01075   1.92138
   A38        1.91063   0.00274   0.00000   0.00820   0.00816   1.91879
   A39        1.91063   0.00385   0.00000   0.01246   0.01239   1.92303
   A40        1.91063  -0.00348   0.00000  -0.01161  -0.01164   1.89899
   A41        1.91063  -0.00310   0.00000  -0.00893  -0.00901   1.90162
   A42        1.91063  -0.00342   0.00000  -0.01094  -0.01099   1.89964
   A43        1.91063   0.00299   0.00000   0.00907   0.00902   1.91966
   A44        1.91063   0.00320   0.00000   0.01002   0.00996   1.92060
   A45        1.91063   0.00389   0.00000   0.01263   0.01256   1.92319
   A46        1.91063  -0.00358   0.00000  -0.01205  -0.01208   1.89855
   A47        1.91063  -0.00337   0.00000  -0.01049  -0.01055   1.90009
   A48        1.91063  -0.00313   0.00000  -0.00919  -0.00927   1.90136
   A49        3.14006  -0.00035   0.00000  -0.00210  -0.00209   3.13797
   A50        3.14055  -0.00031   0.00000  -0.00294  -0.00293   3.13762
   A51        3.13660   0.00111   0.00000   0.00701   0.00701   3.14361
   A52        3.11699   0.00166   0.00000   0.01735   0.01735   3.13435
   A53        3.14171   0.00048   0.00000   0.00306   0.00304   3.14475
   A54        3.14222   0.00007   0.00000   0.00100   0.00100   3.14322
   A55        3.14145  -0.00033   0.00000  -0.00164  -0.00163   3.13982
   A56        3.14505  -0.00084   0.00000  -0.00748  -0.00745   3.13760
    D1        0.00108   0.00005   0.00000   0.00016   0.00013   0.00121
    D2        3.13778   0.00013   0.00000   0.00070   0.00068   3.13846
    D3       -3.13657  -0.00002   0.00000  -0.00010  -0.00011  -3.13667
    D4        0.00013   0.00006   0.00000   0.00045   0.00044   0.00057
    D5       -0.02349   0.00049   0.00000   0.00412   0.00413  -0.01936
    D6        3.11810   0.00074   0.00000   0.00648   0.00649   3.12459
    D7        3.11412   0.00056   0.00000   0.00438   0.00438   3.11849
    D8       -0.02748   0.00081   0.00000   0.00674   0.00674  -0.02074
    D9        0.02843  -0.00063   0.00000  -0.00562  -0.00563   0.02280
   D10       -3.10145  -0.00066   0.00000  -0.00570  -0.00572  -3.10717
   D11       -3.10824  -0.00072   0.00000  -0.00619  -0.00620  -3.11444
   D12        0.04506  -0.00075   0.00000  -0.00627  -0.00629   0.03877
   D13       -0.03577   0.00092   0.00000   0.00729   0.00728  -0.02849
   D14        3.11804   0.00043   0.00000   0.00362   0.00362   3.12167
   D15        3.09432   0.00092   0.00000   0.00730   0.00729   3.10162
   D16       -0.03504   0.00043   0.00000   0.00362   0.00364  -0.03141
   D17       -0.37767   0.00039   0.00000   0.00295   0.00290  -0.37476
   D18        2.81498  -0.00017   0.00000  -0.00107  -0.00107   2.81391
   D19        2.77917   0.00018   0.00000   0.00117   0.00117   2.78033
   D20       -0.31137  -0.00038   0.00000  -0.00285  -0.00280  -0.31417
   D21        0.01314  -0.00042   0.00000  -0.00310  -0.00308   0.01006
   D22       -3.11594  -0.00074   0.00000  -0.00559  -0.00556  -3.12151
   D23       -3.14081   0.00007   0.00000   0.00060   0.00060  -3.14021
   D24        0.01329  -0.00026   0.00000  -0.00190  -0.00188   0.01141
   D25        0.01653  -0.00040   0.00000  -0.00281  -0.00279   0.01374
   D26       -3.12506  -0.00065   0.00000  -0.00517  -0.00515  -3.13021
   D27       -3.13737  -0.00010   0.00000  -0.00041  -0.00039  -3.13776
   D28        0.00422  -0.00035   0.00000  -0.00277  -0.00274   0.00148
   D29        1.80768   0.00014   0.00000   0.00040   0.00040   1.80808
   D30       -2.38111  -0.00045   0.00000  -0.00266  -0.00269  -2.38380
   D31       -0.28672   0.00005   0.00000  -0.00005  -0.00005  -0.28677
   D32       -1.33392   0.00039   0.00000   0.00275   0.00278  -1.33114
   D33        0.76048  -0.00020   0.00000  -0.00031  -0.00031   0.76017
   D34        2.85488   0.00030   0.00000   0.00230   0.00232   2.85720
   D35       -3.09185  -0.00093   0.00000  -0.00807  -0.00810  -3.09994
   D36        0.04825  -0.00088   0.00000  -0.00772  -0.00774   0.04051
   D37       -0.00254   0.00009   0.00000   0.00100   0.00101  -0.00154
   D38        3.13756   0.00014   0.00000   0.00136   0.00136   3.13892
   D39        3.09354   0.00094   0.00000   0.00780   0.00780   3.10134
   D40       -0.03378   0.00061   0.00000   0.00525   0.00526  -0.02852
   D41        0.00481  -0.00015   0.00000  -0.00152  -0.00152   0.00328
   D42       -3.12251  -0.00048   0.00000  -0.00407  -0.00406  -3.12657
   D43        0.00328  -0.00007   0.00000  -0.00070  -0.00072   0.00256
   D44       -3.13363  -0.00016   0.00000  -0.00135  -0.00136  -3.13499
   D45       -3.13684  -0.00011   0.00000  -0.00104  -0.00105  -3.13789
   D46        0.00944  -0.00020   0.00000  -0.00169  -0.00170   0.00774
   D47       -0.00786   0.00019   0.00000   0.00175   0.00176  -0.00610
   D48       -3.14145  -0.00005   0.00000  -0.00028  -0.00027   3.14147
   D49        3.11956   0.00050   0.00000   0.00422   0.00423   3.12379
   D50       -0.01403   0.00026   0.00000   0.00220   0.00220  -0.01183
   D51       -0.00632   0.00016   0.00000   0.00102   0.00102  -0.00530
   D52        3.13391   0.00056   0.00000   0.00470   0.00469   3.13859
   D53        3.13061   0.00024   0.00000   0.00166   0.00166   3.13226
   D54       -0.01235   0.00065   0.00000   0.00534   0.00532  -0.00703
   D55        0.00860  -0.00022   0.00000  -0.00153  -0.00154   0.00707
   D56       -3.13162  -0.00062   0.00000  -0.00521  -0.00520  -3.13683
   D57       -3.14104   0.00003   0.00000   0.00050   0.00050  -3.14054
   D58        0.00192  -0.00038   0.00000  -0.00318  -0.00317  -0.00125
   D59       -0.62322   0.00015   0.00000  -0.00020  -0.00020  -0.62342
   D60        1.47118  -0.00035   0.00000  -0.00278  -0.00280   1.46838
   D61       -2.71761  -0.00049   0.00000  -0.00352  -0.00355  -2.72117
   D62        2.51701   0.00055   0.00000   0.00345   0.00348   2.52050
   D63       -1.67178   0.00005   0.00000   0.00087   0.00089  -1.67089
   D64        0.42262  -0.00010   0.00000   0.00013   0.00013   0.42275
         Item               Value     Threshold  Converged?
 Maximum Force            0.099682     0.000450     NO 
 RMS     Force            0.013167     0.000300     NO 
 Maximum Displacement     0.280042     0.001800     NO 
 RMS     Displacement     0.089309     0.001200     NO 
 Predicted change in Energy=-3.314833D-02
 GradGradGradGradGradGradGradGradGradGradGradGradGradGradGradGradGradGrad

                          Input orientation:                          
 ---------------------------------------------------------------------
 Center     Atomic      Atomic             Coordinates (Angstroms)
 Number     Number       Type             X           Y           Z
 ---------------------------------------------------------------------
      1          6           0        0.009618   -0.007216    0.125889
      2          6           0        0.023373   -0.014060    1.531925
      3          6           0        1.248210   -0.014027    2.207467
      4          6           0        2.453742    0.020397    1.489445
      5          6           0        2.429664    0.020240    0.102769
      6          6           0        1.210096   -0.001890   -0.592327
      7          1           0       -0.929485   -0.002648   -0.391883
      8          1           0       -0.901099   -0.015240    2.083607
      9          1           0        3.393944    0.038748    2.026689
     10          1           0        3.356764    0.027894   -0.459450
     11          6           0        1.288671   -0.065141    3.687932
     12          6           0        1.326005   -0.109667    4.891853
     13          6           0        1.376053   -0.163850    6.321330
     14          6           0        1.416406   -0.207625    7.528779
     15          6           0        1.477597   -0.260247    9.010090
     16          6           0        0.361248    0.134713    9.767413
     17          6           0        2.649661   -0.648584    9.656059
     18          6           0        0.426873    0.135696   11.153907
     19          1           0       -0.556487    0.441493    9.263517
     20          6           0        2.706773   -0.646709   11.056574
     21          1           0        3.519316   -0.941159    9.079476
     22          6           0        1.599581   -0.251375   11.811113
     23          1           0       -0.443603    0.436950   11.737465
     24          1           0        3.624720   -0.951095   11.554636
     25          6           0        1.666565   -0.244268   13.340547
     26          1           0        1.092722    0.587751   13.734774
     27          1           0        1.256350   -1.169804   13.733497
     28          1           0        2.695733   -0.149734   13.669578
     29          6           0        1.198566   -0.016866   -2.122704
     30          1           0        1.425466    0.973743   -2.505327
     31          1           0        1.943301   -0.713534   -2.493390
     32          1           0        0.222476   -0.318339   -2.486744
 ---------------------------------------------------------------------
                    Distance matrix (angstroms):
                    1          2          3          4          5
     1  C    0.000000
     2  C    1.406119   0.000000
     3  C    2.422215   1.398779   0.000000
     4  C    2.798891   2.430984   1.403584   0.000000
     5  C    2.420312   2.798910   2.413869   1.386886   0.000000
     6  C    1.398932   2.433291   2.800081   2.425063   1.403921
     7  H    1.072391   2.146883   3.391034   3.871195   3.395450
     8  H    2.159197   1.076570   2.152875   3.407236   3.875430
     9  H    3.881857   3.407100   2.153983   1.083027   2.152126
    10  H    3.398123   3.883147   3.400030   2.147952   1.084280
    11  C    3.785166   2.500391   1.481899   2.489589   3.763316
    12  C    4.945480   3.604872   2.687215   3.586793   4.916326
    13  C    6.346271   4.979014   4.118574   4.954036   6.309872
    14  C    7.538037   6.159567   5.327488   6.132015   7.498283
[...]
 00000051,0.00000046,-0.00000005,-0.00000067,-0.00000006,0.00000008,-0.
 00000037,-0.00000050,-0.00000018,0.,-0.00000019,0.00000009,-0.00000024
 ,-0.00000024,-0.00000013,0.00000055,-0.00000965,0.00000227,-0.00000856
 ,0.00002477,-0.00000558,0.00001270,-0.00004529,0.00001108,-0.00002563,
 0.00002264,-0.00001171,0.00004559,0.00108851,-0.00020262,-0.00012230,-
 0.00059358,-0.00034081,0.00121638,-0.00052424,0.00045836,-0.00102749,-
 0.00057928,-0.00041339,-0.00188607,-0.00000521,0.00007189,-0.00001087,
 -0.00009363,0.00060676,0.00176343,-0.00002371,-0.00005056,0.00001915,0
 .00060478,0.00154280,-0.00016767,-0.00008785,0.00029621,-0.00003666,-0
 .00016219,-0.00029209,0.00006360,-0.05241732,-0.03616164,0.01172944,0.
 00439538,0.02323742,-0.00805014,0.05216656,-0.00000770,0.00000147,0.00
 000879,-0.00001277,0.00000267,-0.00000062,0.00000029,-0.00000009,0.000
 01142,0.00001243,-0.00000230,-0.00000172,0.00000847,-0.00000110,0.0000
 0829,0.00000037,0.00000318,-0.00000515,0.00000207,-0.00000075,0.000002
 41,-0.00000136,-0.00000043,-0.00000212,0.00000107,-0.00000091,-0.00000
 216,-0.00000199,0.00000003,0.00000240,0.00000003,0.00000316,-0.0000637
 6,-0.00000106,-0.00000238,0.00010510,0.00000446,0.00001522,-0.00018698
 ,-0.00000954,-0.00008790,0.00032946,-0.00023484,-0.00001768,-0.0005359
 1,0.00010075,0.00015288,0.00039384,0.00017736,0.00000482,0.00081711,-0
 .00057642,0.00049074,-0.00005799,0.00000790,0.00001778,0.00004877,0.00
 078160,0.00009230,-0.00077912,0.00001134,0.00003829,0.00004410,0.00054
 993,0.00305272,0.00220056,-0.00008681,-0.00034956,0.00005700,0.0000109
 3,-0.00027342,0.00004209,-0.03630229,-0.27324358,0.07277590,-0.0033962
 1,-0.01780311,0.00516193,0.04019597,0.29694153,0.00003752,-0.00000665,
 -0.00002497,0.00003669,-0.00000529,-0.00001888,0.00000138,-0.00000023,
 0.00004547,-0.00003745,0.00000822,-0.00001648,-0.00003891,0.00000729,-
 0.00002231,-0.00000323,-0.00001693,0.00000466,-0.00000944,0.00000174,-
 0.00001053,0.00000281,-0.00000061,0.00000758,-0.00000230,0.00000033,0.
 00000776,0.00000874,-0.00000157,-0.00001118,0.00000189,0.00000190,0.00
 003450,-0.00000723,-0.00001618,-0.00009774,0.00000541,0.00000894,0.000
 05713,0.00001831,0.00012507,-0.00013647,0.00000233,0.00026223,-0.00001
 011,-0.00006741,-0.00149315,-0.00055003,-0.00047686,-0.00143277,-0.000
 43998,0.00121766,-0.00067143,-0.00029607,-0.00003105,0.00004847,-0.000
 10704,-0.00136211,-0.00026662,-0.00025244,0.00004183,0.00004165,-0.000
 10376,0.00478327,0.03111068,-0.01482883,-0.00022024,0.00071247,0.00006
 626,0.00048226,0.00060055,0.00004584,0.01244715,0.07695460,-0.06961398
 ,-0.00298970,-0.01247616,0.00422079,-0.01301388,-0.08251352,0.07853055
 ,0.00000966,0.00000069,-0.00000804,0.00000947,-0.00000210,-0.00000506,
 0.00000027,-0.00000078,0.00001113,-0.00001163,0.00000379,-0.00000563,-
 0.00000914,0.00000102,-0.00000727,-0.00000080,-0.00000395,0.00000390,-
 0.00000276,0.00000015,-0.00000287,0.00000187,-0.00000165,0.00000278,-0
 .00000130,-0.00000034,0.00000299,0.00000272,-0.00000100,-0.00000382,0.
 00000214,-0.00000034,0.00002027,-0.00000130,0.00001241,-0.00003563,-0.
 00000745,0.00000640,0.00004627,0.00003278,-0.00015674,-0.00011016,0.00
 039067,-0.00002645,0.00025547,-0.00013621,0.00006807,0.00026551,0.0002
 0442,0.00056346,-0.00073748,0.00040659,-0.00059212,-0.00057634,0.00000
 020,-0.00000523,-0.00006423,0.00038477,0.00036473,0.00208127,-0.000006
 16,-0.00004354,-0.00006313,0.00051033,0.00161045,-0.00008907,0.0003847
 1,-0.00015378,0.00017720,0.00024360,-0.00054716,-0.00001022,-0.2575664
 1,-0.07064082,-0.08025997,-0.01903609,-0.00795306,-0.00764650,-0.00376
 173,-0.00123372,-0.00082914,0.27795637,0.00001011,-0.00000218,-0.00000
 436,0.00000539,-0.00000061,-0.00000709,0.00000102,0.00000121,0.0000246
 2,-0.00000694,0.00000124,-0.00000728,-0.00001004,0.00000166,-0.0000035
 2,-0.00000095,-0.00000461,-0.00000037,-0.00000241,0.00000056,-0.000002
 32,0.00000095,0.00000006,0.00000165,-0.00000037,0.00000041,0.00000186,
 0.00000249,-0.00000026,-0.00000297,-0.00000108,-0.00000277,-0.00002029
 ,0.00000205,0.00000102,0.00002493,-0.00000152,-0.00000304,-0.00007352,
 0.00000712,0.00003529,0.00014720,0.00039891,-0.00009795,-0.00022693,-0
 .00001905,0.00006569,0.00086666,-0.00002553,-0.00015309,-0.00009059,0.
 00009649,0.00060336,0.00020006,-0.00000103,-0.00007888,0.00005824,-0.0
 0026987,0.00039565,-0.00024782,-0.00000991,-0.00001637,-0.00000827,0.0
 0340400,-0.00004599,0.00281863,-0.00021307,0.00003171,0.00001340,0.000
 32998,0.00008159,-0.00032545,-0.07109021,-0.07172385,-0.03011041,0.017
 60891,0.00682436,0.00815599,-0.02894404,-0.00903067,-0.01099768,0.0787
 2820,0.07311235,0.00001716,-0.00000326,-0.00001050,0.00001459,-0.00000
 107,-0.00001022,0.00000106,0.00000022,0.00002932,-0.00001733,0.0000028
 8,-0.00001036,-0.00001635,0.00000444,-0.00000945,-0.00000118,-0.000005
 63,0.00000198,-0.00000434,0.00000050,-0.00000468,0.00000179,-0.0000006
 4,0.00000372,-0.00000099,-0.00000069,0.00000359,0.00000408,-0.00000096
 ,-0.00000557,0.00000326,0.00000112,-0.00000085,-0.00001290,-0.00000614
 ,-0.00001388,0.00001354,0.00001998,-0.00001670,0.00007389,-0.00006462,
 0.00002996,0.00012533,-0.00019467,0.00005302,-0.00124551,0.00113840,-0
 .00007645,-0.00002953,0.00039661,-0.00002953,0.00165253,-0.00071402,-0
 .00567087,-0.00000317,0.00004289,-0.00045374,-0.00154064,0.00083998,0.
 00119951,0.00001558,-0.00002301,0.00003320,-0.03084023,-0.00935805,-0.
 01231264,-0.00009814,-0.00026054,0.00003860,0.00118122,-0.00062415,-0.
 00031297,-0.07811305,-0.02885900,-0.07908606,0.01172462,0.00570645,0.0
 0477338,0.00949651,0.00213245,0.00355615,0.08759765,0.02982496,0.08831
 823,0.00413682,-0.00180916,0.02801305,-0.00449606,0.00081987,0.0015932
 6,-0.00047456,-0.00010409,0.00018270,-0.00445214,0.00313909,-0.0015836
 8,0.00280126,0.00232988,-0.02970271,-0.08926170,0.00344202,-0.00405469
 ,0.00054118,0.00015056,0.00126501,0.00010713,0.00006757,0.00132693,-0.
 00000276,-0.00007861,-0.00139967,0.00046970,-0.00150404,-0.00114991,0.
 00013100,-0.00012178,-0.00008727,0.00008789,-0.00002415,0.00004247,-0.
 00004867,0.00001442,-0.00000717,0.00002180,-0.00000605,0.00001037,-0.0
 0000311,0.00000895,-0.00001829,0.00000433,-0.00000489,0.00000173,-0.00
 000675,0.00000439,0.00000896,0.00000905,0.00000139,0.00000395,0.000001
 00,-0.00000084,-0.00000276,-0.00001051,-0.00000473,0.00000418,0.000000
 48,0.00000148,-0.00000041,-0.00000483,-0.00000488,-0.00000036,-0.00000
 124,0.00000090,0.00000255,0.00000285,-0.00000029,0.00000220,0.00000494
 ,-0.00000187,-0.00000056,-0.00000042,0.00000172,0.00000207,-0.00000011
 ,-0.00000095,0.00000468,0.00000124,0.00000112,0.00000180,0.58377198,-0
 .00028685,0.00518295,-0.00499071,0.00237778,0.00627019,-0.00156610,-0.
 00006588,-0.00100488,0.00110708,0.00152797,0.00592787,-0.00096904,0.00
 076404,0.00421085,0.00551443,0.00329229,-0.07195557,0.00116812,-0.0012
 3182,-0.00323653,-0.00002625,-0.00002041,-0.00001280,-0.00040811,-0.00
 000941,0.00001752,0.00008959,-0.00013699,-0.00307788,0.00037629,-0.000
 14900,-0.00054623,-0.00059627,-0.00001097,-0.00003781,0.00033765,0.000
 01061,0.00002988,-0.00010374,-0.00000269,-0.00001063,0.00009054,0.0000
 0520,0.00004473,-0.00010455,0.00002755,-0.00000661,0.00002921,-0.00002
 596,0.00000158,0.00002985,0.00004072,-0.00001809,0.00001519,0.00000241
 ,0.00000214,-0.00000727,-0.00004276,-0.00000075,0.00001817,-0.00000232
 ,0.00000253,-0.00000754,-0.00000576,-0.00003310,-0.00000083,-0.0000093
 8,0.00000405,0.00001178,0.00001076,0.00000048,0.00001110,-0.00000051,-
 0.00000140,-0.00000228,-0.00000272,0.00000759,0.00000916,-0.00000015,-
 0.00000480,0.00002271,0.00000552,0.00000625,0.00000919,-0.00805154,0.5
 3886216,0.00373386,0.00022305,-0.02326673,0.00143690,-0.00062431,0.002
 81833,-0.00004272,-0.00015566,-0.00204095,-0.00110008,-0.00024444,0.00
 309241,-0.00517904,0.00171468,-0.02108271,-0.00311470,0.00537097,-0.21
 180275,-0.00141876,0.00061244,0.00107324,-0.00015563,0.00015313,-0.000
 10044,0.00019237,0.00009545,-0.00001858,0.00156836,0.00012933,0.001041
 87,0.00007045,0.00018996,0.00122379,-0.00003287,-0.00002502,-0.0007322
 0,0.00001323,-0.00000706,0.00037578,-0.00000866,-0.00000037,-0.0002286
 9,0.00000361,0.00000196,0.00009202,0.00002513,-0.00000402,-0.00002401,
 -0.00002639,0.00000513,-0.00002246,0.00000887,-0.00000319,0.00001785,0
 .00000073,0.00000010,-0.00000138,-0.00000814,0.00000026,0.00001846,-0.
 00000080,0.00000030,-0.00000140,-0.00000022,0.00000042,-0.00001200,-0.
 00000056,0.00000024,0.00000153,0.00000067,0.00000004,0.00000148,-0.000
 00039,-0.00000224,0.00000327,0.00000001,0.00000062,0.00000079,0.000000
 10,0.00000046,0.00000080,0.00000021,0.00000059,0.00000080,-0.00068776,
 0.01302256,0.48799218,-0.00009356,0.00060933,0.00173894,-0.00051892,0.
 00047250,-0.00099855,0.00109049,-0.00019984,-0.00014764,-0.00058903,-0
 .00032134,0.00125143,-0.00057841,-0.00039614,-0.00190709,0.00064138,0.
 00155867,-0.00006387,-0.00015261,-0.00031243,0.00006320,-0.00002414,-0
 .00005196,0.00002103,-0.00000519,0.00006995,-0.00000836,-0.00010174,0.
 00027520,-0.00003393,0.00002200,-0.00001901,0.00006109,-0.00004540,0.0
 0001177,-0.00003406,0.00002481,-0.00000552,0.00001657,-0.00000966,0.00
 000248,-0.00001122,0.00000075,-0.00000016,0.00000417,0.00000226,0.0000
 0080,-0.00000024,-0.00000037,-0.00000096,-0.00000175,-0.00000050,-0.00
 000107,0.00000063,-0.00000019,0.00000005,-0.00000023,-0.00000020,0.000
 00131,0.00000099,-0.00000052,-0.00000021,0.,0.00000044,-0.00000011,-0.
 00000088,-0.00000020,-0.00000015,0.00000051,-0.00000011,0.00000007,-0.
 00000040,-0.00000009,-0.00000004,0.00000013,-0.00000024,0.00000018,0.0
 0000013,0.00000015,0.00000003,-0.00000007,-0.00000015,-0.00000011,-0.0
 0000013,-0.05392104,-0.04041575,0.01305729,0.05381927,0.00077501,0.000
 04764,-0.00077082,0.00017532,-0.00000967,0.00079793,-0.00022400,-0.000
 02042,-0.00053190,0.00010405,0.00016128,0.00040202,-0.00056757,0.00053
 216,-0.00005866,0.00057843,0.00303737,0.00218338,0.00002160,-0.0002582
 2,0.00003626,0.00001187,0.00004009,0.00004304,0.00000785,0.00001652,0.
 00004907,-0.00007635,-0.00036134,0.00006176,-0.00000831,-0.00008674,0.
 00032678,0.00000499,0.00001498,-0.00018556,-0.00000169,-0.00000229,0.0
 0010447,0.00000028,0.00000308,-0.00006332,0.00000022,-0.00000006,0.000
 01120,0.00001238,-0.00000233,-0.00000170,-0.00001277,0.00000271,-0.000
 00051,0.00000854,-0.00000106,0.00000828,0.00000108,-0.00000092,-0.0000
 0216,-0.00000773,0.00000142,0.00000876,-0.00000134,-0.00000041,-0.0000
 0212,0.00000026,0.00000320,-0.00000511,-0.00000198,0.00000004,0.000002
 39,0.00000208,-0.00000075,0.00000243,-0.00000072,-0.00000485,0.0000004
 5,-0.00000089,0.00000135,0.00000176,-0.00000001,-0.00000045,0.00000348
 ,0.00000146,0.00000101,0.00000178,-0.04056247,-0.27164650,0.07264439,0
 .04489425,0.29518347,-0.00137870,-0.00024156,-0.00031962,-0.00046683,-
 0.00144708,-0.00045743,0.00001259,0.00026008,-0.00000977,-0.00005139,-
 0.00148494,-0.00053541,0.00119752,-0.00069038,-0.00022510,0.00544195,0
 .03099380,-0.01485462,0.00047011,0.00060368,0.00004207,0.00004092,0.00
 003991,-0.00010967,-0.00003089,0.00005048,-0.00010112,-0.00023111,0.00
 071490,0.00007048,0.00001679,0.00012568,-0.00013700,0.00000485,0.00000
 888,0.00005746,-0.00000705,-0.00001614,-0.00009791,0.00000177,0.000001
 93,0.00003462,0.00000163,-0.00000027,0.00004541,-0.00003745,0.00000816
 ,-0.00001639,0.00003671,-0.00000526,-0.00001895,-0.00003896,0.00000738
 ,-0.00002232,-0.00000232,0.00000032,0.00000777,0.00003743,-0.00000674,
 -0.00002497,0.00000280,-0.00000059,0.00000758,-0.00000266,-0.00001700,
 0.00000464,0.00000873,-0.00000157,-0.00001119,-0.00000945,0.00000175,-
 0.00001052,0.00000356,0.00002290,0.00000084,0.00000283,-0.00000651,-0.
 00000894,0.00000005,0.00000346,-0.00001886,-0.00000528,-0.00000514,-0.
 00000890,0.01385535,0.07680754,-0.06967903,-0.01462035,-0.08234480,0.0
 7861286,0.00049160,0.00058740,0.00020361,-0.00001815,0.00004734,0.0000
 5330,0.00017072,-0.00009318,-0.00032632,0.00003798,-0.00059665,0.00064
 248,0.00034040,-0.00030895,-0.00198026,0.00050476,-0.00247099,0.000189
 56,0.00044877,-0.00002651,-0.00018911,-0.00000303,-0.00002012,0.000050
 33,0.00001259,0.00003158,0.00005795,0.00019771,0.00045640,-0.00013699,
 0.00008669,0.00013404,0.00015157,-0.00001357,-0.00000202,-0.00006871,-
 0.00000237,-0.00001088,0.00004095,0.00000011,-0.00000105,-0.00002600,0
 .00000023,0.00000116,0.00000005,0.00000630,-0.00000056,0.00000119,-0.0
 0000770,-0.00000018,0.00000257,0.00000386,-0.00000312,0.00000500,0.000
 00163,0.00000098,-0.00000188,-0.00000340,0.00000126,0.00000519,-0.0000
 0093,0.00000077,-0.00000185,0.00000004,0.00000177,-0.00000362,-0.00000
 122,0.00000058,0.00000166,0.00000173,0.00000021,0.00000206,-0.00000021
 ,-0.00000246,0.00000005,-0.00000047,0.00000096,0.00000108,-0.00000023,
 -0.00000084,0.00000257,0.00000095,0.00000088,0.00000122,-0.17909463,0.
 10955335,0.07257167,0.00476178,-0.00382341,-0.00321774,0.19092029,-0.0
 0006504,0.00042158,0.00006301,0.00013311,0.00004107,0.00089935,-0.0005
 1795,0.00008920,-0.00008839,-0.00005048,0.00006767,-0.00033975,0.00029
 357,0.00041169,0.00047550,-0.00308053,0.00187150,0.00299428,0.00005565
 ,-0.00004466,0.00007058,-0.00002373,-0.00007272,0.00003818,-0.00000191
 ,-0.00003225,-0.00003062,-0.00041572,0.00003887,-0.00027840,-0.0000173
 4,-0.00001516,0.00010019,0.00000043,-0.00000156,-0.00005273,0.00000096
 ,0.00000545,0.00001110,-0.00000145,-0.00000247,-0.00001188,0.00000112,
 0.00000083,0.00002663,-0.00000865,0.00000177,-0.00000773,0.00000997,-0
 .00000127,-0.00000937,-0.00001287,0.00000290,-0.00000590,-0.00000144,0
 .00000003,0.00000258,0.00001186,-0.00000257,-0.00000657,0.00000102,-0.
 00000006,0.00000269,-0.00000083,-0.00000569,0.00000098,0.00000295,-0.0
 0000054,-0.00000333,-0.00000350,0.00000065,-0.00000382,0.00000134,0.00
 000770,0.00000062,0.00000105,-0.00000219,-0.00000293,0.00000022,0.0000
 0137,-0.00000657,-0.00000216,-0.00000189,-0.00000314,0.10989308,-0.139
 77985,-0.06452414,0.02282590,-0.01822132,-0.01239805,-0.12155761,0.148
 58351,-0.00220944,-0.00004768,-0.00557644,0.00156933,0.00062021,-0.000
 16356,-0.00020178,-0.00013058,0.00008496,0.00016151,0.00039964,-0.0000
 8337,0.00180305,0.00025272,0.00122712,0.02469583,-0.01929099,-0.014204
 50,-0.00002703,-0.00027708,0.00004885,-0.00001226,0.00004485,-0.000457
 95,-0.00002122,-0.00001876,0.00003035,-0.00136689,-0.00019133,-0.00023
 894,-0.00009575,-0.00004363,0.00002727,-0.00000615,0.00002386,-0.00001
 228,0.00000933,-0.00000936,-0.00001703,-0.00000281,0.00000223,0.000000
 86,0.00000105,0.00000016,0.00002965,-0.00001516,0.00000433,-0.00000940
 ,0.00001711,-0.00000330,-0.00001179,-0.00001824,0.00000335,-0.00000968
 ,-0.00000178,-0.00000007,0.00000399,0.00001654,-0.00000163,-0.00001098
 ,0.00000099,-0.00000108,0.00000368,-0.00000075,-0.00000587,0.00000221,
 0.00000402,-0.00000105,-0.00000511,-0.00000467,0.00000061,-0.00000545,
 0.00000158,0.00000947,0.00000081,0.00000122,-0.00000298,-0.00000404,0.
 00000018,0.00000179,-0.00000915,-0.00000260,-0.00000255,-0.00000425,0.
 07099317,-0.06256257,-0.08957523,-0.00794750,0.00532798,0.00422369,-0.
 07984770,0.06760077,0.09994907,0.00040039,0.00035007,0.00207272,0.0002
 1550,0.00055089,-0.00070938,0.00037951,-0.00002489,0.00023988,-0.00013
 288,0.00005959,0.00027853,0.00041906,-0.00058549,-0.00055712,0.0005426
 2,0.00157035,0.00000141,0.00025924,-0.00053647,-0.00000898,-0.00000596
 ,-0.00004334,-0.00006335,0.00000094,-0.00000488,-0.00006340,0.00038294
 ,-0.00014468,0.00018075,0.00003542,-0.00015312,-0.00009919,-0.00000879
 ,0.00000619,0.00004001,-0.00000059,0.00001224,-0.00003301,0.00000194,-
 0.00000039,0.00001843,0.00000038,-0.00000078,0.00001252,-0.00001182,0.
 00000383,-0.00000603,0.00000956,-0.00000211,-0.00000548,-0.00000951,0.
 00000109,-0.00000735,-0.00000131,-0.00000032,0.00000307,0.00001002,0.0
 0000058,-0.00000814,0.00000191,-0.00000164,0.00000285,-0.00000069,-0.0
 0000413,0.00000382,0.00000282,-0.00000101,-0.00000395,-0.00000285,0.00
 000017,-0.00000296,0.00000097,0.00000582,0.00000026,0.00000107,-0.0000
 0222,-0.00000265,-0.00000014,0.00000149,-0.00000549,-0.00000162,-0.000
 00149,-0.00000237,-0.26031409,-0.06714734,-0.08090673,-0.00432107,-0.0
 0131040,-0.00103540,-0.01884223,-0.00747103,-0.00749317,0.28098929,-0.
 00026861,0.00036386,-0.00024806,-0.00003127,-0.00015923,-0.00008881,0.
 00039740,-0.00009635,-0.00022775,-0.00001640,0.00009035,0.00086175,0.0
 0009139,0.00065328,0.00019401,0.00335105,-0.00016429,0.00278437,0.0003
 2196,0.00010004,-0.00032053,-0.00001000,-0.00001715,-0.00000727,-0.000
 00243,-0.00008459,0.00005815,-0.00021803,0.00001669,0.00001067,0.00000
 635,0.00003536,0.00014717,-0.00000166,-0.00000326,-0.00007358,0.000002
 23,0.00000110,0.00002532,-0.00000118,-0.00000277,-0.00002042,0.0000010
 7,0.00000121,0.00002419,-0.00000668,0.00000112,-0.00000711,0.00000518,
 -0.00000056,-0.00000696,-0.00000977,0.00000167,-0.00000337,-0.00000036
 ,0.00000041,0.00000180,0.00000980,-0.00000222,-0.00000419,0.00000091,0
 .00000010,0.00000160,-0.00000078,-0.00000455,-0.00000043,0.00000242,-0
 .00000023,-0.00000288,-0.00000234,0.00000056,-0.00000224,0.00000079,0.
 00000616,0.00000059,0.00000094,-0.00000181,-0.00000242,-0.00000007,0.0
 0000096,-0.00000499,-0.00000140,-0.00000126,-0.00000225,-0.06759612,-0
 .06919738,-0.02857562,-0.02899765,-0.00842898,-0.01098483,0.01809984,0
 .00663841,0.00829854,0.07487343,0.07025335,-0.00156704,0.00083080,0.00
 121181,-0.00002597,0.00037748,-0.00003181,0.00013766,-0.00019170,0.000
 05663,-0.00128101,0.00111397,-0.00005930,0.00165376,-0.00069943,-0.005
 75320,-0.03103079,-0.00882341,-0.01223172,0.00120035,-0.00061592,-0.00
 033087,0.00001523,-0.00002173,0.00003386,-0.00000297,0.00004162,-0.000
 45824,-0.00009447,-0.00025155,0.00003967,0.00007496,-0.00006251,0.0000
 3270,0.00001436,0.00001948,-0.00001777,-0.00001357,-0.00000610,-0.0000
 1236,0.00000338,0.00000114,-0.00000144,0.00000117,0.00000017,0.0000289
 1,-0.00001690,0.00000280,-0.00001019,0.00001414,-0.00000102,-0.0000100
 6,-0.00001590,0.00000434,-0.00000919,-0.00000097,-0.00000067,0.0000035
 0,0.00001668,-0.00000321,-0.00001020,0.00000177,-0.00000062,0.00000364
 ,-0.00000089,-0.00000552,0.00000191,0.00000398,-0.00000093,-0.00000546
 ,-0.00000423,0.00000049,-0.00000455,0.00000124,0.00000904,0.00000081,0
 .00000131,-0.00000304,-0.00000406,-0.00000008,0.00000172,-0.00000868,-
 0.00000221,-0.00000225,-0.00000383,-0.07861918,-0.02732490,-0.07916606
 ,0.00956016,0.00194906,0.00356033,0.01181614,0.00548685,0.00476665,0.0
 8815989,0.02817555,0.08838858\\0.00000291,-0.00000031,-0.00001277,0.00
 001323,0.00000130,0.00000893,-0.00002835,0.00001518,0.00000182,0.00001
 321,0.00000218,-0.00002208,0.00001278,-0.00000103,0.00001549,-0.000025
 22,-0.00000179,-0.00000555,0.00000062,-0.00000689,0.00000242,-0.000001
 55,-0.00000135,-0.00000155,-0.00000080,-0.00000127,0.00000131,-0.00000
 159,-0.00000624,-0.00000233,0.00000384,-0.00000841,0.00001154,0.000003
 71,0.00000252,-0.00001097,-0.00000390,0.00000474,0.00000756,0.00000167
 ,-0.00000619,0.00001705,0.00001110,-0.00000264,-0.00001610,-0.00000620
 ,0.00000049,0.00001083,-0.00000791,0.00000006,-0.00000588,-0.00000674,
 -0.00000002,-0.00001068,0.00000089,0.00000061,-0.00000124,-0.00000096,
 -0.00000153,0.00000553,0.00000182,0.00000136,0.00000051,0.00000768,0.0
 0000275,0.00000376,0.00000168,0.00000180,0.00000108,0.00000021,0.00000
 212,-0.00000065,-0.00000096,0.00000541,-0.00000594,0.00000042,-0.00000
 297,0.00000099,0.00000085,-0.00000374,0.00000107,-0.00000032,-0.000001
 23,0.00000154,0.00000139,-0.00002066,0.00000748,0.00000288,0.00001118,
 -0.00000205,0.00000053,0.00000783,-0.00000141,0.00000307,0.00000674,0.
 00000029\\\@


 The lyf so short, the craft so long to lerne.
                             -- Chaucer
 Job cpu time:       0 days  2 hours 54 minutes  8.9 seconds.
 Elapsed time:       0 days  0 hours  5 minutes 58.3 seconds.
 File lengths (MBytes):  RWF=    433 Int=      0 D2E=      0 Chk=     15 Scr=      1
 Normal termination of Gaussian 16 at Thu Sep 21 04:06:12 2023.
