 Entering Gaussian System, Link 0=/home/ubuntu/g16/g16
 Input=/home/ubuntu/ml products/molecule_69.gjf
 Output=/home/ubuntu/ml products/molecule_69.log
 Initial command:
 /home/ubuntu/g16/l1.exe "/home/ubuntu/Scratch/Gau-54281.inp" -scrdir="/home/ubuntu/Scratch/"
 Entering Link 1 = /home/ubuntu/g16/l1.exe PID=     54283.
  
 Copyright (c) 1988-2017, Gaussian, Inc.  All Rights Reserved.
  
 This is part of the Gaussian(R) 16 program.  It is based on
 the Gaussian(R) 09 system (copyright 2009, Gaussian, Inc.),
 the Gaussian(R) 03 system (copyright 2003, Gaussian, Inc.),
 the Gaussian(R) 98 system (copyright 1998, Gaussian, Inc.),
 the Gaussian(R) 94 system (copyright 1995, Gaussian, Inc.),
 the Gaussian 92(TM) system (copyright 1992, Gaussian, Inc.),
 the Gaussian 90(TM) system (copyright 1990, Gaussian, Inc.),
 the Gaussian 88(TM) system (copyright 1988, Gaussian, Inc.),
 the Gaussian 86(TM) system (copyright 1986, Carnegie Mellon
 University), and the Gaussian 82(TM) system (copyright 1983,
 Carnegie Mellon University). Gaussian is a federally registered
 trademark of Gaussian, Inc.
  
 This software contains proprietary and confidential information,
 including trade secrets, belonging to Gaussian, Inc.
  
 This software is provided under written license and may be
 used, copied, transmitted, or stored only in accord with that
 written license.
  
 The following legend is applicable only to US Government
 contracts under FAR:
  
                    RESTRICTED RIGHTS LEGEND
  
 Use, reproduction and disclosure by the US Government is
 subject to restrictions as set forth in subparagraphs (a)
 and (c) of the Commercial Computer Software - Restricted
 Rights clause in FAR 52.227-19.
  
 Gaussian, Inc.
 340 Quinnipiac St., Bldg. 40, Wallingford CT 06492
  
  
 ---------------------------------------------------------------
 Warning -- This program may not be used in any manner that
 competes with the business of Gaussian, Inc. or will provide
 assistance to any competitor of Gaussian, Inc.  The licensee
 of this program is prohibited from giving any competitor of
 Gaussian, Inc. access to this program.  By using this program,
 the user acknowledges that Gaussian, Inc. is engaged in the
 business of creating and licensing software in the field of
 computational chemistry and represents and warrants to the
 licensee that it is not a competitor of Gaussian, Inc. and that
 it will not use this program in any manner prohibited above.
 ---------------------------------------------------------------
  

 Cite this work as:
 Gaussian 16, Revision B.01,
 M. J. Frisch, G. W. Trucks, H. B. Schlegel, G. E. Scuseria, 
 M. A. Robb, J. R. Cheeseman, G. Scalmani, V. Barone, 
 G. A. Petersson, H. Nakatsuji, X. Li, M. Caricato, A. V. Marenich, 
 J. Bloino, B. G. Janesko, R. Gomperts, B. Mennucci, H. P. Hratchian, 
 J. V. Ortiz, A. F. Izmaylov, J. L. Sonnenberg, D. Williams-Young, 
 F. Ding, F. Lipparini, F. Egidi, J. Goings, B. Peng, A. Petrone, 
 T. Henderson, D. Ranasinghe, V. G. Zakrzewski, J. Gao, N. Rega, 
 G. Zheng, W. Liang, M. Hada, M. Ehara, K. Toyota, R. Fukuda, 
 J. Hasegawa, M. Ishida, T. Nakajima, Y. Honda, O. Kitao, H. Nakai, 
 T. Vreven, K. Throssell, J. A. Montgomery, Jr., J. E. Peralta, 
 F. Ogliaro, M. J. Bearpark, J. J. Heyd, E. N. Brothers, K. N. Kudin, 
 V. N. Staroverov, T. A. Keith, R. Kobayashi, J. Normand, 
 K. Raghavachari, A. P. Rendell, J. C. Burant, S. S. Iyengar, 
 J. Tomasi, M. Cossi, J. M. Millam, M. Klene, C. Adamo, R. Cammi, 
 J. W. Ochterski, R. L. Martin, K. Morokuma, O. Farkas, 
 J. B. Foresman, and D. J. Fox, Gaussian, Inc., Wallingford CT, 2016.
 
 ******************************************
 Gaussian 16:  EM64L-G16RevB.01 20-Dec-2017
                16-Sep-2023 
 ******************************************
 %nprocshared=30
 Will use up to   30 processors via shared memory.
 %mem=30GB
 %chk=molecule_69.chk
 ---------------------------------------------------------
 # opt freq b3lyp/6-31+g(d) empiricaldispersion=gd3 volume
 ---------------------------------------------------------
 1/18=20,19=15,26=3,38=1/1,3;
 2/9=110,12=2,17=6,18=5,40=1/2;
 3/5=1,6=6,7=11,11=2,25=1,30=1,71=1,74=-5,124=31/1,2,3;
 4//1;
 5/5=2,38=5/2;
 6/7=2,8=2,9=2,10=2,28=1,44=1/1,4;
 7//1,2,3,16;
 1/18=20,19=15,26=3/3(2);
 2/9=110/2;
 99//99;
 2/9=110/2;
 3/5=1,6=6,7=11,11=2,25=1,30=1,71=1,74=-5,124=31/1,2,3;
 4/5=5,16=3,69=1/1;
 5/5=2,38=5/2;
 7//1,2,3,16;
 1/18=20,19=15,26=3/3(-5);
 2/9=110/2;
 6/7=2,8=2,9=2,10=2,19=2,28=1,44=1/1,4;
 99/9=1/99;
 -------------------
 Title Card Required
 -------------------
 Symbolic Z-matrix:
 Charge =  0 Multiplicity = 1
 C                    -5.30642  -0.95004   1.13808 
 C                    -3.91026  -0.97885   1.0873 
 C                    -3.24353  -0.49817  -0.05029 
 C                    -3.96927  -0.06568  -1.15526 
 C                    -5.36722  -0.03465  -1.10341 
 C                    -6.03529  -0.47585   0.04315 
 H                    -3.33932  -1.35081   1.9443 
 H                    -3.4475    0.28095  -2.05001 
 H                    -5.9376    0.33606  -1.95976 
 H                    -7.12782  -0.45137   0.08272 
 C                    -1.70232  -0.51098  -0.00174 
 C                    -0.50316  -0.51544   0.00061 
 C                     1.03814  -0.52118   0.00361 
 C                     1.73324  -0.49899   1.21632 
 C                     1.73531  -0.50038  -1.20582 
 C                     3.13124  -0.50192   1.21672 
 H                     1.18549  -0.5016    2.1622 
 C                     3.13359  -0.50384  -1.20525 
 H                     1.18944  -0.5035   -2.1542 
 C                     3.82894  -0.50274   0.00634 
 H                     3.67742  -0.50148   2.16417 
 H                     3.6812   -0.50459  -2.15173 
 H                     4.89832  -0.50317   0.00733 
 Cl                   -6.14716  -1.50567   2.58101 
 

 GradGradGradGradGradGradGradGradGradGradGradGradGradGradGradGradGradGrad
 Berny optimization.
 Initialization pass.
                           ----------------------------
                           !    Initial Parameters    !
                           ! (Angstroms and Degrees)  !
 --------------------------                            --------------------------
 ! Name  Definition              Value          Derivative Info.                !
 --------------------------------------------------------------------------------
 ! R1    R(1,2)                  1.3974         estimate D2E/DX2                !
 ! R2    R(1,6)                  1.3982         estimate D2E/DX2                !
 ! R3    R(1,24)                 1.76           estimate D2E/DX2                !
 ! R4    R(2,3)                  1.4035         estimate D2E/DX2                !
 ! R5    R(2,7)                  1.0949         estimate D2E/DX2                !
 ! R6    R(3,4)                  1.3909         estimate D2E/DX2                !
 ! R7    R(3,11)                 1.542          estimate D2E/DX2                !
 ! R8    R(4,5)                  1.3993         estimate D2E/DX2                !
 ! R9    R(4,8)                  1.0922         estimate D2E/DX2                !
 ! R10   R(5,6)                  1.3984         estimate D2E/DX2                !
 ! R11   R(5,9)                  1.0937         estimate D2E/DX2                !
 ! R12   R(6,10)                 1.0935         estimate D2E/DX2                !
 ! R13   R(11,12)                1.1992         estimate D2E/DX2                !
 ! R14   R(12,13)                1.5413         estimate D2E/DX2                !
 ! R15   R(13,14)                1.398          estimate D2E/DX2                !
 ! R16   R(13,15)                1.3961         estimate D2E/DX2                !
 ! R17   R(14,16)                1.398          estimate D2E/DX2                !
 ! R18   R(14,17)                1.093          estimate D2E/DX2                !
 ! R19   R(15,18)                1.3983         estimate D2E/DX2                !
 ! R20   R(15,19)                1.0943         estimate D2E/DX2                !
 ! R21   R(16,20)                1.3971         estimate D2E/DX2                !
 ! R22   R(16,21)                1.0936         estimate D2E/DX2                !
 ! R23   R(18,20)                1.3969         estimate D2E/DX2                !
 ! R24   R(18,22)                1.0935         estimate D2E/DX2                !
 ! R25   R(20,23)                1.0694         estimate D2E/DX2                !
 ! A1    A(2,1,6)              119.958          estimate D2E/DX2                !
 ! A2    A(2,1,24)             120.0372         estimate D2E/DX2                !
 ! A3    A(6,1,24)             120.0045         estimate D2E/DX2                !
 ! A4    A(1,2,3)              119.8047         estimate D2E/DX2                !
 ! A5    A(1,2,7)              119.971          estimate D2E/DX2                !
 ! A6    A(3,2,7)              120.204          estimate D2E/DX2                !
 ! A7    A(2,3,4)              120.1683         estimate D2E/DX2                !
 ! A8    A(2,3,11)             116.5157         estimate D2E/DX2                !
 ! A9    A(4,3,11)             123.304          estimate D2E/DX2                !
 ! A10   A(3,4,5)              119.9162         estimate D2E/DX2                !
 ! A11   A(3,4,8)              120.0131         estimate D2E/DX2                !
 ! A12   A(5,4,8)              120.0388         estimate D2E/DX2                !
 ! A13   A(4,5,6)              120.0444         estimate D2E/DX2                !
 ! A14   A(4,5,9)              119.9699         estimate D2E/DX2                !
 ! A15   A(6,5,9)              119.9857         estimate D2E/DX2                !
 ! A16   A(1,6,5)              120.0015         estimate D2E/DX2                !
 ! A17   A(1,6,10)             120.0048         estimate D2E/DX2                !
 ! A18   A(5,6,10)             119.9936         estimate D2E/DX2                !
 ! A19   A(12,13,14)           119.9238         estimate D2E/DX2                !
 ! A20   A(12,13,15)           119.8422         estimate D2E/DX2                !
 ! A21   A(14,13,15)           120.1945         estimate D2E/DX2                !
 ! A22   A(13,14,16)           119.8308         estimate D2E/DX2                !
 ! A23   A(13,14,17)           120.098          estimate D2E/DX2                !
 ! A24   A(16,14,17)           120.0575         estimate D2E/DX2                !
 ! A25   A(13,15,18)           119.9314         estimate D2E/DX2                !
 ! A26   A(13,15,19)           120.108          estimate D2E/DX2                !
 ! A27   A(18,15,19)           119.947          estimate D2E/DX2                !
 ! A28   A(14,16,20)           119.944          estimate D2E/DX2                !
 ! A29   A(14,16,21)           119.9792         estimate D2E/DX2                !
 ! A30   A(20,16,21)           120.0767         estimate D2E/DX2                !
 ! A31   A(15,18,20)           119.8756         estimate D2E/DX2                !
 ! A32   A(15,18,22)           120.0284         estimate D2E/DX2                !
 ! A33   A(20,18,22)           120.0958         estimate D2E/DX2                !
 ! A34   A(16,20,18)           120.1873         estimate D2E/DX2                !
 ! A35   A(16,20,23)           119.9076         estimate D2E/DX2                !
 ! A36   A(18,20,23)           119.9051         estimate D2E/DX2                !
 ! A37   L(3,11,12,7,-1)       181.6583         estimate D2E/DX2                !
 ! A38   L(11,12,13,19,-1)     179.9996         estimate D2E/DX2                !
 ! A39   L(3,11,12,7,-2)       179.4663         estimate D2E/DX2                !
 ! A40   L(11,12,13,19,-2)     179.9998         estimate D2E/DX2                !
 ! D1    D(6,1,2,3)              1.6809         estimate D2E/DX2                !
 ! D2    D(6,1,2,7)           -179.9557         estimate D2E/DX2                !
 ! D3    D(24,1,2,3)          -178.1363         estimate D2E/DX2                !
 ! D4    D(24,1,2,7)             0.227          estimate D2E/DX2                !
 ! D5    D(2,1,6,5)              0.1967         estimate D2E/DX2                !
 ! D6    D(2,1,6,10)          -179.8961         estimate D2E/DX2                !
 ! D7    D(24,1,6,5)          -179.986          estimate D2E/DX2                !
 ! D8    D(24,1,6,10)           -0.0788         estimate D2E/DX2                !
 ! D9    D(1,2,3,4)             -3.6992         estimate D2E/DX2                !
 ! D10   D(1,2,3,11)           177.5162         estimate D2E/DX2                !
 ! D11   D(7,2,3,4)            177.9414         estimate D2E/DX2                !
 ! D12   D(7,2,3,11)            -0.8433         estimate D2E/DX2                !
 ! D13   D(2,3,4,5)              3.816          estimate D2E/DX2                !
 ! D14   D(2,3,4,8)           -178.2399         estimate D2E/DX2                !
 ! D15   D(11,3,4,5)          -177.4853         estimate D2E/DX2                !
 ! D16   D(11,3,4,8)             0.4589         estimate D2E/DX2                !
 ! D17   D(2,3,13,14)          -24.1431         estimate D2E/DX2                !
 ! D18   D(2,3,13,15)          158.2445         estimate D2E/DX2                !
 ! D19   D(4,3,13,14)          157.4038         estimate D2E/DX2                !
 ! D20   D(4,3,13,15)          -20.2086         estimate D2E/DX2                !
 ! D21   D(3,4,5,6)             -1.9249         estimate D2E/DX2                !
 ! D22   D(3,4,5,9)            178.0            estimate D2E/DX2                !
 ! D23   D(8,4,5,6)           -179.8685         estimate D2E/DX2                !
 ! D24   D(8,4,5,9)              0.0564         estimate D2E/DX2                !
 ! D25   D(4,5,6,1)             -0.0841         estimate D2E/DX2                !
 ! D26   D(4,5,6,10)          -179.9913         estimate D2E/DX2                !
 ! D27   D(9,5,6,1)            179.991          estimate D2E/DX2                !
 ! D28   D(9,5,6,10)             0.0838         estimate D2E/DX2                !
 ! D29   D(12,13,14,16)       -179.8905         estimate D2E/DX2                !
 ! D30   D(12,13,14,17)          1.4544         estimate D2E/DX2                !
 ! D31   D(15,13,14,16)         -2.1768         estimate D2E/DX2                !
 ! D32   D(15,13,14,17)        179.1681         estimate D2E/DX2                !
 ! D33   D(12,13,15,18)        179.9195         estimate D2E/DX2                !
 ! D34   D(12,13,15,19)         -1.4191         estimate D2E/DX2                !
 ! D35   D(14,13,15,18)          2.2039         estimate D2E/DX2                !
 ! D36   D(14,13,15,19)       -179.1347         estimate D2E/DX2                !
 ! D37   D(13,14,16,20)          1.1475         estimate D2E/DX2                !
 ! D38   D(13,14,16,21)       -178.9793         estimate D2E/DX2                !
 ! D39   D(17,14,16,20)        179.8032         estimate D2E/DX2                !
 ! D40   D(17,14,16,21)         -0.3236         estimate D2E/DX2                !
 ! D41   D(13,15,18,20)         -1.1998         estimate D2E/DX2                !
 ! D42   D(13,15,18,22)        178.9699         estimate D2E/DX2                !
 ! D43   D(19,15,18,20)       -179.8633         estimate D2E/DX2                !
 ! D44   D(19,15,18,22)          0.3064         estimate D2E/DX2                !
 ! D45   D(14,16,20,18)         -0.1518         estimate D2E/DX2                !
 ! D46   D(14,16,20,23)        179.8876         estimate D2E/DX2                !
 ! D47   D(21,16,20,18)        179.9751         estimate D2E/DX2                !
 ! D48   D(21,16,20,23)          0.0145         estimate D2E/DX2                !
 ! D49   D(15,18,20,16)          0.1766         estimate D2E/DX2                !
 ! D50   D(15,18,20,23)       -179.8628         estimate D2E/DX2                !
 ! D51   D(22,18,20,16)       -179.9932         estimate D2E/DX2                !
 ! D52   D(22,18,20,23)         -0.0326         estimate D2E/DX2                !
 --------------------------------------------------------------------------------
 Trust Radius=3.00D-01 FncErr=1.00D-07 GrdErr=1.00D-06 EigMax=2.50D+02 EigMin=1.00D-04
 Number of steps in this run=    127 maximum allowed number of steps=    144.
 GradGradGradGradGradGradGradGradGradGradGradGradGradGradGradGradGradGrad

                          Input orientation:                          
 ---------------------------------------------------------------------
 Center     Atomic      Atomic             Coordinates (Angstroms)
 Number     Number       Type             X           Y           Z
 ---------------------------------------------------------------------
      1          6           0       -5.306420   -0.950037    1.138085
      2          6           0       -3.910257   -0.978854    1.087296
      3          6           0       -3.243530   -0.498173   -0.050288
      4          6           0       -3.969271   -0.065678   -1.155262
      5          6           0       -5.367223   -0.034654   -1.103412
      6          6           0       -6.035290   -0.475849    0.043153
      7          1           0       -3.339319   -1.350808    1.944296
      8          1           0       -3.447499    0.280946   -2.050008
      9          1           0       -5.937596    0.336059   -1.959755
     10          1           0       -7.127821   -0.451371    0.082722
     11          6           0       -1.702325   -0.510980   -0.001736
     12          6           0       -0.503164   -0.515444    0.000607
     13          6           0        1.038137   -0.521178    0.003607
     14          6           0        1.733241   -0.498994    1.216317
     15          6           0        1.735313   -0.500380   -1.205823
     16          6           0        3.131236   -0.501924    1.216721
     17          1           0        1.185494   -0.501600    2.162198
     18          6           0        3.133594   -0.503838   -1.205245
     19          1           0        1.189441   -0.503497   -2.154202
     20          6           0        3.828940   -0.502741    0.006338
     21          1           0        3.677424   -0.501477    2.164168
     22          1           0        3.681197   -0.504590   -2.151735
     23          1           0        4.898318   -0.503165    0.007326
     24         17           0       -6.147157   -1.505673    2.581009
 ---------------------------------------------------------------------
                    Distance matrix (angstroms):
                    1          2          3          4          5
     1  C    0.000000
     2  C    1.397384   0.000000
     3  C    2.423205   1.403451   0.000000
     4  C    2.798124   2.422073   1.390941   0.000000
     5  C    2.421968   2.795257   2.415365   1.399257   0.000000
     6  C    1.398207   2.420541   2.793413   2.423402   1.398420
     7  H    2.163349   1.094883   2.171296   3.414038   3.890139
     8  H    3.890352   3.412318   2.155808   1.092229   2.163558
     9  H    3.413069   3.888910   3.405877   2.164002   1.093653
    10  H    2.163322   3.411763   3.886849   3.414353   2.163394
    11  C    3.805452   2.505965   1.542023   2.582240   3.856430
    12  C    4.955199   3.606095   2.740893   3.681334   5.010897
    13  C    6.459440   5.086300   4.282068   5.159902   6.518499
    14  C    7.054530   5.665332   5.135421   6.191187   7.484206
    15  C    7.435193   6.112265   5.111179   5.721346   7.118525
    16  C    8.449913   7.058812   6.499459   7.498920   8.821857
    17  H    6.587476   5.229709   4.950895   6.145499   7.336235
    18  C    8.770639   7.422750   6.480869   7.116542   8.514363
    19  H    7.296215   6.061368   4.906905   5.272748   6.656861
    20  C    9.216058   7.828813   7.072698   7.896355   9.274699
    21  H    9.053370   7.678571   7.266598   8.347484   9.628117
    22  H    9.581158   8.267189   7.236571   7.727564   9.121058
    23  H   10.276915   8.887272   8.142054   8.954168  10.336081
    24  Cl   1.760000   2.740883   4.045964   4.558124   4.043161
                    6          7          8          9         10
     6  C    0.000000
     7  H    3.412940   0.000000
     8  H    3.413316   4.316107   0.000000
     9  H    2.163419   4.983792   2.492341   0.000000
    10  H    1.093521   4.315923   4.316201   2.491665   0.000000
    11  C    4.333341   2.678077   2.805031   4.742240   5.426481
    12  C    5.532432   3.538295   3.675373   5.839617   6.625476
    13  C    7.073683   4.859699   4.998166   7.297294   8.166640
    14  C    7.856649   5.194844   6.173917   8.344249   8.933406
    15  C    7.870376   6.033106   5.308923   7.755100   8.956444
    16  C    9.241382   6.566433   7.386755   9.645513  10.321665
    17  H    7.525340   4.608966   6.310283   8.272277   8.569594
    18  C    9.253525   7.248142   6.681339   9.141181  10.342062
    19  H    7.551548   6.166464   4.703979   7.178949   8.612978
    20  C    9.864335   7.473876   7.601926   9.997716  10.957147
    21  H    9.941639   7.071378   8.314806  10.495562  11.004011
    22  H    9.961349   8.171976   7.172567   9.657366  11.037685
    23  H   10.933701   8.504646   8.631345  11.044941  12.026487
    24  Cl   2.741124   2.883287   5.650351   4.904532   2.883521
                   11         12         13         14         15
    11  C    0.000000
    12  C    1.199171   0.000000
    13  C    2.740486   1.541315   0.000000
    14  C    3.645121   2.545531   1.397972   0.000000
    15  C    3.642429   2.542927   1.396141   2.422141   0.000000
    16  C    4.984779   3.832490   2.419314   1.397998   2.795948
    17  H    3.608627   2.743033   2.163703   1.093035   3.412604
    18  C    4.983432   3.831478   2.419207   2.797315   1.398285
    19  H    3.604924   2.740120   2.163180   3.414109   1.094262
    20  C    5.531276   4.332126   2.790865   2.419920   2.419217
    21  H    5.799390   4.707283   3.410902   2.162932   3.889555
    22  H    5.796968   4.705483   3.410504   3.890801   2.163615
    23  H    6.600654   5.401500   3.860225   3.388124   3.387674
    24  Cl   5.236078   6.284400   7.696797   8.060798   8.802502
                   16         17         18         19         20
    16  C    0.000000
    17  H    2.163294   0.000000
    18  C    2.421968   3.890343   0.000000
    19  H    3.890205   4.316402   2.163389   0.000000
    20  C    1.397075   3.411091   1.396940   3.410995   0.000000
    21  H    1.093608   2.491931   3.413020   4.983813   2.163144
    22  H    3.413057   4.983830   1.093486   2.491757   2.163125
    23  H    2.141312   4.292848   2.141163   4.292782   1.069379
    24  Cl   9.431721   7.412917  10.073318   8.789326  10.351681
                   21         22         23         24
    21  H    0.000000
    22  H    4.315906   0.000000
    23  H    2.478418   2.478493   0.000000
    24  Cl   9.884562  10.954340  11.385578   0.000000
 Stoichiometry    C14H9Cl
 Framework group  C1[X(C14H9Cl)]
 Deg. of freedom    66
 Full point group                 C1      NOp   1
 Largest Abelian subgroup         C1      NOp   1
 Largest concise Abelian subgroup C1      NOp   1
                         Standard orientation:                         
 ---------------------------------------------------------------------
 Center     Atomic      Atomic             Coordinates (Angstroms)
 Number     Number       Type             X           Y           Z
 ---------------------------------------------------------------------
      1          6           0        3.547774   -0.306726    0.042787
      2          6           0        2.160605   -0.465298    0.100242
      3          6           0        1.324081    0.651961   -0.046848
      4          6           0        1.872438    1.924078   -0.172306
      5          6           0        3.261410    2.082482   -0.232192
      6          6           0        4.098513    0.967373   -0.125559
      7          1           0        1.729135   -1.462812    0.232788
      8          1           0        1.218646    2.794835   -0.257755
      9          1           0        3.692471    3.078958   -0.363717
     10          1           0        5.183886    1.092140   -0.172327
     11          6           0       -0.194080    0.382253   -0.030040
     12          6           0       -1.380344    0.207645   -0.012665
     13          6           0       -2.905070   -0.016770    0.009667
     14          6           0       -3.431160   -1.266080   -0.332061
     15          6           0       -3.758597    1.042112    0.325055
     16          6           0       -4.814545   -1.466817   -0.313363
     17          1           0       -2.761835   -2.090224   -0.591899
     18          6           0       -5.142216    0.841029    0.344217
     19          1           0       -3.345628    2.023231    0.578572
     20          6           0       -5.667652   -0.412860    0.023095
     21          1           0       -5.227820   -2.447804   -0.564054
     22          1           0       -5.811314    1.664879    0.607450
     23          1           0       -6.725853   -0.566573    0.035464
     24         17           0        4.601257   -1.710171    0.177370
 ---------------------------------------------------------------------
 Rotational constants (GHZ):           1.4997581           0.1721354           0.1552964
 Standard basis: 6-31+G(d) (6D, 7F)
 There are   307 symmetry adapted cartesian basis functions of A   symmetry.
 There are   307 symmetry adapted basis functions of A   symmetry.
   307 basis functions,   540 primitive gaussians,   307 cartesian basis functions
    55 alpha electrons       55 beta electrons
       nuclear repulsion energy       849.7789195782 Hartrees.
 NAtoms=   24 NActive=   24 NUniq=   24 SFac= 1.00D+00 NAtFMM=   60 NAOKFM=F Big=F
 Integral buffers will be    131072 words long.
 Raffenetti 2 integral format.
 Two-electron integral symmetry is turned on.
 Nuclear repulsion after empirical dispersion term =      849.7627869477 Hartrees.
 One-electron integrals computed using PRISM.
 NBasis=   307 RedAO= T EigKep=  1.14D-06  NBF=   307
 NBsUse=   304 1.00D-06 EigRej=  8.44D-07 NBFU=   304
 ExpMin= 4.38D-02 ExpMax= 2.52D+04 ExpMxC= 3.78D+03 IAcc=3 IRadAn=         5 AccDes= 0.00D+00
 Harris functional with IExCor=  402 and IRadAn=       5 diagonalized for initial guess.
 HarFok:  IExCor=  402 AccDes= 0.00D+00 IRadAn=         5 IDoV= 1 UseB2=F ITyADJ=14
 ICtDFT=  3500011 ScaDFX=  1.000000  1.000000  1.000000  1.000000
 FoFCou: FMM=F IPFlag=           0 FMFlag=      100000 FMFlg1=           0
         NFxFlg=           0 DoJE=T BraDBF=F KetDBF=T FulRan=T
         wScrn=  0.000000 ICntrl=       500 IOpCl=  0 I1Cent=   200000004 NGrid=           0
         NMat0=    1 NMatS0=      1 NMatT0=    0 NMatD0=    1 NMtDS0=    0 NMtDT0=    0
 Petite list used in FoFCou.
 Requested convergence on RMS density matrix=1.00D-08 within 128 cycles.
 Requested convergence on MAX density matrix=1.00D-06.
 Requested convergence on             energy=1.00D-06.
 No special actions if energy rises.
 SCF Done:  E(RB3LYP) =  -999.077739138     A.U. after   15 cycles
            NFock= 15  Conv=0.75D-08     -V/T= 2.0072

 **********************************************************************

            Population analysis using the SCF Density.

 **********************************************************************

 Orbital symmetries:
       Occupied  (A) (A) (A) (A) (A) (A) (A) (A) (A) (A) (A) (A)
                 (A) (A) (A) (A) (A) (A) (A) (A) (A) (A) (A) (A)
                 (A) (A) (A) (A) (A) (A) (A) (A) (A) (A) (A) (A)
                 (A) (A) (A) (A) (A) (A) (A) (A) (A) (A) (A) (A)
                 (A) (A) (A) (A) (A) (A) (A)
       Virtual   (A) (A) (A) (A) (A) (A) (A) (A) (A) (A) (A) (A)
                 (A) (A) (A) (A) (A) (A) (A) (A) (A) (A) (A) (A)
                 (A) (A) (A) (A) (A) (A) (A) (A) (A) (A) (A) (A)
                 (A) (A) (A) (A) (A) (A) (A) (A) (A) (A) (A) (A)
                 (A) (A) (A) (A) (A) (A) (A) (A) (A) (A) (A) (A)
                 (A) (A) (A) (A) (A) (A) (A) (A) (A) (A) (A) (A)
                 (A) (A) (A) (A) (A) (A) (A) (A) (A) (A) (A) (A)
                 (A) (A) (A) (A) (A) (A) (A) (A) (A) (A) (A) (A)
                 (A) (A) (A) (A) (A) (A) (A) (A) (A) (A) (A) (A)
                 (A) (A) (A) (A) (A) (A) (A) (A) (A) (A) (A) (A)
                 (A) (A) (A) (A) (A) (A) (A) (A) (A) (A) (A) (A)
                 (A) (A) (A) (A) (A) (A) (A) (A) (A) (A) (A) (A)
                 (A) (A) (A) (A) (A) (A) (A) (A) (A) (A) (A) (A)
                 (A) (A) (A) (A) (A) (A) (A) (A) (A) (A) (A) (A)
                 (A) (A) (A) (A) (A) (A) (A) (A) (A) (A) (A) (A)
                 (A) (A) (A) (A) (A) (A) (A) (A) (A) (A) (A) (A)
                 (A) (A) (A) (A) (A) (A) (A) (A) (A) (A) (A) (A)
                 (A) (A) (A) (A) (A) (A) (A) (A) (A) (A) (A) (A)
                 (A) (A) (A) (A) (A) (A) (A) (A) (A) (A) (A) (A)
                 (A) (A) (A) (A) (A) (A) (A) (A) (A) (A) (A) (A)
                 (A) (A) (A) (A) (A) (A) (A) (A) (A)
 The electronic state is 1-A.
 Alpha  occ. eigenvalues -- -101.56158 -10.26861 -10.24753 -10.23880 -10.22046
 Alpha  occ. eigenvalues --  -10.21975 -10.21920 -10.21662 -10.21090 -10.21079
 Alpha  occ. eigenvalues --  -10.20905 -10.20892 -10.20813 -10.20617 -10.20557
 Alpha  occ. eigenvalues --   -9.47657  -7.24072  -7.23089  -7.23060  -0.90342
 Alpha  occ. eigenvalues --   -0.87370  -0.85307  -0.79299  -0.77530  -0.76159
 Alpha  occ. eigenvalues --   -0.75178  -0.73417  -0.64014  -0.62444  -0.62056
 Alpha  occ. eigenvalues --   -0.61507  -0.54981  -0.53701  -0.49700  -0.48646
 Alpha  occ. eigenvalues --   -0.48120  -0.46692  -0.45572  -0.44508  -0.44417
 Alpha  occ. eigenvalues --   -0.43660  -0.41034  -0.38882  -0.38366  -0.37996
 Alpha  occ. eigenvalues --   -0.36844  -0.36338  -0.35304  -0.32375  -0.31913
 Alpha  occ. eigenvalues --   -0.29401  -0.27689  -0.26798  -0.26226  -0.23889
 Alpha virt. eigenvalues --   -0.05550  -0.03271  -0.02437  -0.02023  -0.00526
 Alpha virt. eigenvalues --    0.00158   0.00998   0.01883   0.02190   0.02708
 Alpha virt. eigenvalues --    0.03796   0.04279   0.04579   0.04786   0.05410
 Alpha virt. eigenvalues --    0.05713   0.05938   0.06720   0.06831   0.07326
 Alpha virt. eigenvalues --    0.07966   0.08360   0.08696   0.09105   0.09425
 Alpha virt. eigenvalues --    0.09791   0.10957   0.11586   0.11931   0.12279
 Alpha virt. eigenvalues --    0.12489   0.13008   0.13388   0.13730   0.14274
 Alpha virt. eigenvalues --    0.14825   0.14987   0.15025   0.15511   0.15847
 Alpha virt. eigenvalues --    0.16049   0.16350   0.16600   0.17643   0.18191
 Alpha virt. eigenvalues --    0.18465   0.19623   0.19693   0.20105   0.20643
 Alpha virt. eigenvalues --    0.21032   0.21261   0.21431   0.21851   0.22125
 Alpha virt. eigenvalues --    0.22303   0.22401   0.22877   0.23392   0.23845
 Alpha virt. eigenvalues --    0.24671   0.25338   0.25755   0.26129   0.26821
 Alpha virt. eigenvalues --    0.27320   0.27426   0.28182   0.28801   0.29186
 Alpha virt. eigenvalues --    0.30382   0.30726   0.31131   0.32412   0.32656
 Alpha virt. eigenvalues --    0.32879   0.33885   0.34485   0.35169   0.35781
 Alpha virt. eigenvalues --    0.38173   0.38756   0.40967   0.43243   0.47485
 Alpha virt. eigenvalues --    0.52258   0.53917   0.56425   0.59426   0.60346
 Alpha virt. eigenvalues --    0.61539   0.62881   0.64281   0.65400   0.66394
 Alpha virt. eigenvalues --    0.66498   0.66955   0.68555   0.69029   0.69338
 Alpha virt. eigenvalues --    0.69847   0.70579   0.71006   0.71599   0.71893
 Alpha virt. eigenvalues --    0.72463   0.72905   0.73698   0.73854   0.74709
 Alpha virt. eigenvalues --    0.74907   0.75486   0.76834   0.77827   0.78902
 Alpha virt. eigenvalues --    0.80412   0.81181   0.81940   0.82783   0.83983
 Alpha virt. eigenvalues --    0.85412   0.85718   0.86473   0.87286   0.89851
 Alpha virt. eigenvalues --    0.91045   0.91374   0.91823   0.92608   0.94084
 Alpha virt. eigenvalues --    0.94452   0.95558   0.95645   0.95814   0.98521
 Alpha virt. eigenvalues --    0.99675   1.00767   1.02105   1.06295   1.07840
 Alpha virt. eigenvalues --    1.09006   1.11611   1.12848   1.12996   1.14877
 Alpha virt. eigenvalues --    1.16424   1.17850   1.19301   1.19343   1.21222
 Alpha virt. eigenvalues --    1.23154   1.23800   1.24033   1.25955   1.27873
 Alpha virt. eigenvalues --    1.29892   1.31745   1.33725   1.36792   1.39506
 Alpha virt. eigenvalues --    1.40439   1.41651   1.43045   1.43695   1.45613
 Alpha virt. eigenvalues --    1.45925   1.46186   1.46862   1.47578   1.48333
 Alpha virt. eigenvalues --    1.49336   1.53791   1.55128   1.56178   1.58446
 Alpha virt. eigenvalues --    1.68751   1.78045   1.80274   1.80899   1.83848
 Alpha virt. eigenvalues --    1.85942   1.86314   1.87983   1.89980   1.93116
 Alpha virt. eigenvalues --    1.94397   1.95430   1.96786   1.97255   1.98123
 Alpha virt. eigenvalues --    2.06766   2.07438   2.07970   2.09900   2.10861
 Alpha virt. eigenvalues --    2.12595   2.13006   2.14065   2.15330   2.17378
 Alpha virt. eigenvalues --    2.17744   2.18335   2.19086   2.26615   2.27859
 Alpha virt. eigenvalues --    2.28228   2.29104   2.29538   2.33145   2.47152
 Alpha virt. eigenvalues --    2.47728   2.49791   2.55115   2.58231   2.60443
 Alpha virt. eigenvalues --    2.61121   2.61787   2.63355   2.64993   2.70076
 Alpha virt. eigenvalues --    2.71770   2.73866   2.73989   2.75090   2.76322
 Alpha virt. eigenvalues --    2.81596   2.82229   2.87401   2.94421   3.03506
 Alpha virt. eigenvalues --    3.15645   3.28578   3.37104   3.54684   4.18023
 Alpha virt. eigenvalues --    4.20442   4.22680   4.23514   4.24276   4.25332
 Alpha virt. eigenvalues --    4.31326   4.34540   4.36550   4.39360   4.40792
 Alpha virt. eigenvalues --    4.52701   4.60937   4.73105   4.88272
          Condensed to atoms (all electrons):
               1          2          3          4          5          6
     1  C    7.015766  -0.378028   0.047627  -0.743419   0.484283  -0.257589
     2  C   -0.378028   7.874552   0.948609  -1.317133   0.025989  -0.573657
     3  C    0.047627   0.948609  12.289479  -4.077957   1.743155  -0.030636
     4  C   -0.743419  -1.317133  -4.077957  11.970057  -2.716988  -0.064072
     5  C    0.484283   0.025989   1.743155  -2.716988   7.745013  -0.047742
     6  C   -0.257589  -0.573657  -0.030636  -0.064072  -0.047742   7.129326
     7  H   -0.030055   0.283915  -0.094293   0.020766  -0.014102   0.047831
     8  H    0.004117   0.011107  -0.035219   0.314739  -0.070629   0.007660
     9  H    0.012324   0.014702   0.000853  -0.025921   0.323015  -0.015465
    10  H    0.015449   0.027794  -0.001295   0.029753  -0.050499   0.270286
    11  C   -0.012263  -0.757714  -2.841395   2.087003  -0.977909   0.197879
    12  C   -0.307142   0.105037   0.782078   0.094867  -0.205545   0.076945
    13  C   -0.012857  -0.218101  -2.837167   0.719949  -0.232194   0.057875
    14  C   -0.110094   0.264284  -0.307426  -0.059634  -0.012571   0.006318
    15  C    0.076903  -0.186712   0.543326   0.035812   0.016606  -0.004222
    16  C    0.032368   0.003150  -0.051830  -0.005921  -0.011328   0.000316
    17  H   -0.000254   0.000551   0.007171   0.000059   0.000021   0.000007
    18  C   -0.019029  -0.012604  -0.132640   0.042755   0.010912   0.000457
    19  H   -0.000084   0.000264   0.008011   0.000302   0.000091   0.000020
    20  C    0.000178   0.003636   0.000227  -0.000365   0.000597   0.000349
    21  H    0.000000   0.000028  -0.000174  -0.000008  -0.000001   0.000000
    22  H    0.000000  -0.000013  -0.000090   0.000031   0.000001   0.000000
    23  H    0.000000  -0.000001   0.000027  -0.000001   0.000000   0.000000
    24  Cl  -0.055371  -0.038829  -0.018293  -0.023931   0.089156  -0.175433
               7          8          9         10         11         12
     1  C   -0.030055   0.004117   0.012324   0.015449  -0.012263  -0.307142
     2  C    0.283915   0.011107   0.014702   0.027794  -0.757714   0.105037
     3  C   -0.094293  -0.035219   0.000853  -0.001295  -2.841395   0.782078
     4  C    0.020766   0.314739  -0.025921   0.029753   2.087003   0.094867
     5  C   -0.014102  -0.070629   0.323015  -0.050499  -0.977909  -0.205545
     6  C    0.047831   0.007660  -0.015465   0.270286   0.197879   0.076945
     7  H    0.498104  -0.000130   0.000013  -0.000141   0.048937   0.009037
     8  H   -0.000130   0.518627  -0.004102  -0.000128   0.046603   0.002638
     9  H    0.000013  -0.004102   0.517202  -0.004751  -0.011648  -0.001108
    10  H   -0.000141  -0.000128  -0.004751   0.509462   0.001206   0.000492
    11  C    0.048937   0.046603  -0.011648   0.001206   7.740409  -0.123092
    12  C    0.009037   0.002638  -0.001108   0.000492  -0.123092   9.912506
    13  C    0.011078   0.004896  -0.000213   0.000032   1.455718  -5.626544
    14  C    0.000212  -0.000111  -0.000008   0.000001  -0.194568  -0.416098
    15  C    0.000203   0.000915   0.000027  -0.000002  -0.485655   3.776378
    16  C   -0.000134   0.000008  -0.000001   0.000000  -0.027535  -0.365748
    17  H    0.000001   0.000000   0.000000   0.000000   0.007342   0.046124
    18  C    0.000037  -0.000080   0.000001   0.000000   0.066671  -1.410827
    19  H    0.000000   0.000000   0.000000   0.000000   0.002942   0.057146
    20  C    0.000018   0.000016   0.000000   0.000000   0.020424  -0.151405
    21  H    0.000000   0.000000   0.000000   0.000000  -0.000836  -0.008634
    22  H    0.000000   0.000000   0.000000   0.000000  -0.000353  -0.006007
    23  H    0.000000   0.000000   0.000000   0.000000   0.000330   0.001909
    24  Cl   0.003914   0.000225   0.000841   0.000754  -0.013160  -0.019736
              13         14         15         16         17         18
     1  C   -0.012857  -0.110094   0.076903   0.032368  -0.000254  -0.019029
     2  C   -0.218101   0.264284  -0.186712   0.003150   0.000551  -0.012604
     3  C   -2.837167  -0.307426   0.543326  -0.051830   0.007171  -0.132640
     4  C    0.719949  -0.059634   0.035812  -0.005921   0.000059   0.042755
     5  C   -0.232194  -0.012571   0.016606  -0.011328   0.000021   0.010912
     6  C    0.057875   0.006318  -0.004222   0.000316   0.000007   0.000457
     7  H    0.011078   0.000212   0.000203  -0.000134   0.000001   0.000037
     8  H    0.004896  -0.000111   0.000915   0.000008   0.000000  -0.000080
     9  H   -0.000213  -0.000008   0.000027  -0.000001   0.000000   0.000001
    10  H    0.000032   0.000001  -0.000002   0.000000   0.000000   0.000000
    11  C    1.455718  -0.194568  -0.485655  -0.027535   0.007342   0.066671
    12  C   -5.626544  -0.416098   3.776378  -0.365748   0.046124  -1.410827
    13  C   16.236822  -1.302149  -6.184280   1.190911  -0.049790   2.327657
    14  C   -1.302149  25.563972 -14.745380  -6.946932   0.316407   4.710233
    15  C   -6.184280 -14.745380  26.932329   4.385271   0.022777  -7.663835
    16  C    1.190911  -6.946932   4.385271   8.660073  -0.064746  -1.650275
    17  H   -0.049790   0.316407   0.022777  -0.064746   0.522830  -0.006795
    18  C    2.327657   4.710233  -7.663835  -1.650275  -0.006795   8.947854
    19  H   -0.060726   0.018860   0.327615  -0.006464  -0.000141  -0.069829
    20  C    0.176950  -0.405431  -0.480212   0.635946   0.006304   0.669667
    21  H    0.005760  -0.027389  -0.004339   0.300473  -0.004470   0.007793
    22  H    0.004343   0.001295  -0.031947   0.004013   0.000015   0.297419
    23  H   -0.001799   0.011134   0.011390  -0.007969  -0.000148  -0.009266
    24  Cl  -0.004013  -0.000453   0.000123   0.000175   0.000002  -0.000005
              19         20         21         22         23         24
     1  C   -0.000084   0.000178   0.000000   0.000000   0.000000  -0.055371
     2  C    0.000264   0.003636   0.000028  -0.000013  -0.000001  -0.038829
     3  C    0.008011   0.000227  -0.000174  -0.000090   0.000027  -0.018293
     4  C    0.000302  -0.000365  -0.000008   0.000031  -0.000001  -0.023931
     5  C    0.000091   0.000597  -0.000001   0.000001   0.000000   0.089156
     6  C    0.000020   0.000349   0.000000   0.000000   0.000000  -0.175433
     7  H    0.000000   0.000018   0.000000   0.000000   0.000000   0.003914
     8  H    0.000000   0.000016   0.000000   0.000000   0.000000   0.000225
     9  H    0.000000   0.000000   0.000000   0.000000   0.000000   0.000841
    10  H    0.000000   0.000000   0.000000   0.000000   0.000000   0.000754
    11  C    0.002942   0.020424  -0.000836  -0.000353   0.000330  -0.013160
    12  C    0.057146  -0.151405  -0.008634  -0.006007   0.001909  -0.019736
    13  C   -0.060726   0.176950   0.005760   0.004343  -0.001799  -0.004013
    14  C    0.018860  -0.405431  -0.027389   0.001295   0.011134  -0.000453
    15  C    0.327615  -0.480212  -0.004339  -0.031947   0.011390   0.000123
    16  C   -0.006464   0.635946   0.300473   0.004013  -0.007969   0.000175
    17  H   -0.000141   0.006304  -0.004470   0.000015  -0.000148   0.000002
    18  C   -0.069829   0.669667   0.007793   0.297419  -0.009266  -0.000005
    19  H    0.524087   0.006300   0.000015  -0.004490  -0.000149   0.000000
    20  C    0.006300   5.392735   0.021087   0.024969   0.285700  -0.000017
    21  H    0.000015   0.021087   0.529999  -0.000154  -0.004958   0.000000
    22  H   -0.004490   0.024969  -0.000154   0.530443  -0.004949   0.000000
    23  H   -0.000149   0.285700  -0.004958  -0.004949   0.537729   0.000000
    24  Cl   0.000000  -0.000017   0.000000   0.000000   0.000000  17.006343
 Mulliken charges:
               1
     1  C    0.237170
     2  C   -0.080827
     3  C    0.057850
     4  C   -0.280744
     5  C   -0.099333
     6  C   -0.626455
     7  H    0.214790
     8  H    0.198849
     9  H    0.194238
    10  H    0.201586
    11  C   -0.229336
    12  C   -0.223271
    13  C    0.337843
    14  C   -0.364471
    15  C   -0.343092
    16  C   -0.073823
    17  H    0.196733
    18  C   -0.106273
    19  H    0.196231
    20  C   -0.207676
    21  H    0.185807
    22  H    0.185474
    23  H    0.181019
    24  Cl   0.247709
 Sum of Mulliken charges =   0.00000
 Mulliken charges with hydrogens summed into heavy atoms:
               1
     1  C    0.237170
     2  C    0.133964
     3  C    0.057850
     4  C   -0.081895
     5  C    0.094905
     6  C   -0.424869
    11  C   -0.229336
    12  C   -0.223271
    13  C    0.337843
    14  C   -0.167738
    15  C   -0.146861
    16  C    0.111984
    18  C    0.079201
    20  C   -0.026657
    24  Cl   0.247709
 Electronic spatial extent (au):  <R**2>=           6358.7232
 Charge=              0.0000 electrons
 Dipole moment (field-independent basis, Debye):
    X=             -1.4717    Y=              1.3793    Z=             -0.1633  Tot=              2.0236
 Quadrupole moment (field-independent basis, Debye-Ang):
   XX=            -81.7957   YY=            -85.1196   ZZ=           -100.3155
   XY=              7.7293   XZ=             -1.3947   YZ=              1.3362
 Traceless Quadrupole moment (field-independent basis, Debye-Ang):
   XX=              7.2812   YY=              3.9573   ZZ=            -11.2385
   XY=              7.7293   XZ=             -1.3947   YZ=              1.3362
 Octapole moment (field-independent basis, Debye-Ang**2):
  XXX=            -61.6243  YYY=              2.6883  ZZZ=              1.5970  XYY=              0.3803
  XXY=             25.4979  XXZ=             -0.5709  XZZ=             13.3699  YZZ=             -5.0473
  YYZ=             -2.9152  XYZ=            -12.3347
 Hexadecapole moment (field-independent basis, Debye-Ang**3):
 XXXX=          -7077.7683 YYYY=           -902.4066 ZZZZ=           -153.4603 XXXY=            125.5904
 XXXZ=            -44.8786 YYYX=              9.6781 YYYZ=              2.1996 ZZZX=              6.3724
 ZZZY=             -0.5624 XXYY=          -1332.7948 XXZZ=          -1419.6639 YYZZ=           -199.6107
 XXYZ=             35.1698 YYXZ=             -1.9940 ZZXY=            -22.7535
 N-N= 8.497627869477D+02 E-N=-4.039038733916D+03  KE= 9.919569229267D+02
 Evaluate density.
 Using the total density.
 Monte-Carlo method of calculating molar volume:
 based on  0.001 e/bohr**3 density envelope.
 Number of points per bohr**3 =   20 CutOff= 1.00D-04
 Using the SCF density.
 There are       459 points.  Will hold       459 in memory.
 LenV=  4026294535 MDV=  4026531840.
 Box volume =12100.630 fraction occupied=0.168
 Integrated density= 1.0800644637210546D+02 error=-1.9935536278945420D+00
 Molar volume = 2029.953 bohr**3/mol (181.151 cm**3/mol)
 Recommended a0 for SCRF calculation =  5.07 angstrom (  9.59 bohr)
 Calling FoFJK, ICntrl=      2127 FMM=F ISym2X=0 I1Cent= 0 IOpClX= 0 NMat=1 NMatS=1 NMatT=0.
 ***** Axes restored to original set *****
 -------------------------------------------------------------------
 Center     Atomic                   Forces (Hartrees/Bohr)
 Number     Number              X              Y              Z
 -------------------------------------------------------------------
      1        6           0.005377447    0.001339060   -0.006232895
      2        6          -0.001147510   -0.001345734    0.012428632
      3        6           0.059328888   -0.009661109    0.013917629
      4        6           0.000234118    0.009409150   -0.012708359
      5        6           0.002421147   -0.001960554    0.000761979
      6        6          -0.011273006    0.000880887   -0.000599566
      7        1          -0.003413109    0.002814438   -0.005479993
      8        1          -0.001485714   -0.001246928    0.004022844
      9        1           0.002397454   -0.002370005    0.004130321
     10        1           0.005175297   -0.000266478    0.000735065
     11        6          -0.089164998    0.002040995   -0.009525345
     12        6           0.088031408   -0.000749297    0.000397680
     13        6          -0.061169461    0.004480585    0.001524836
     14        6           0.001398810   -0.002974875    0.009981016
     15        6           0.001522077   -0.002717224   -0.012123141
     16        6          -0.000908882    0.000716437    0.003176684
     17        1           0.001600996    0.000239919   -0.004710488
     18        6          -0.000951232    0.000840171   -0.002684765
     19        1           0.001885305    0.000137936    0.005404280
     20        6          -0.008533874   -0.000356149   -0.000099452
     21        1          -0.002710909    0.000261091   -0.003785384
     22        1          -0.002736668    0.000229723    0.003705711
     23        1           0.012690644   -0.000129727    0.000031540
     24       17           0.001431772    0.000387688   -0.002268827
 -------------------------------------------------------------------
 Cartesian Forces:  Max     0.089164998 RMS     0.018535647

 GradGradGradGradGradGradGradGradGradGradGradGradGradGradGradGradGradGrad
 Berny optimization.
 FormGI is forming the generalized inverse of G from B-inverse, IUseBI=4.
 Internal  Forces:  Max     0.059305767 RMS     0.008561532
 Search for a local minimum.
 Step number   1 out of a maximum of  127
 All quantities printed in internal units (Hartrees-Bohrs-Radians)
 Mixed Optimization -- RFO/linear search
 Second derivative matrix not updated -- first step.
 ITU=  0
     Eigenvalues ---    0.00230   0.00230   0.00230   0.01530   0.01651
     Eigenvalues ---    0.02077   0.02091   0.02104   0.02111   0.02111
     Eigenvalues ---    0.02116   0.02117   0.02118   0.02119   0.02122
     Eigenvalues ---    0.02124   0.02126   0.02128   0.02132   0.02148
     Eigenvalues ---    0.02166   0.03986   0.04701   0.15990   0.15994
     Eigenvalues ---    0.15995   0.15996   0.16000   0.16000   0.16000
     Eigenvalues ---    0.16000   0.16000   0.21992   0.21994   0.22000
     Eigenvalues ---    0.23464   0.23476   0.23482   0.24980   0.24994
     Eigenvalues ---    0.25000   0.28340   0.28403   0.29539   0.34254
     Eigenvalues ---    0.34325   0.34394   0.34399   0.34409   0.34413
     Eigenvalues ---    0.34464   0.34556   0.37309   0.41526   0.41750
     Eigenvalues ---    0.42025   0.42190   0.45388   0.45833   0.45928
     Eigenvalues ---    0.45974   0.45996   0.46091   0.46204   0.46785
     Eigenvalues ---    1.05241
 RFO step:  Lambda=-2.58436047D-02 EMin= 2.30000000D-03
 Linear search not attempted -- first point.
 Iteration  1 RMS(Cart)=  0.09196127 RMS(Int)=  0.00095291
 Iteration  2 RMS(Cart)=  0.00219398 RMS(Int)=  0.00006881
 Iteration  3 RMS(Cart)=  0.00000539 RMS(Int)=  0.00006879
 Iteration  4 RMS(Cart)=  0.00000000 RMS(Int)=  0.00006879
 Variable       Old X    -DE/DX   Delta X   Delta X   Delta X     New X
                                 (Linear)    (Quad)   (Total)
    R1        2.64067  -0.00360   0.00000  -0.00748  -0.00747   2.63320
    R2        2.64223  -0.00078   0.00000  -0.00214  -0.00210   2.64013
    R3        3.32592  -0.00267   0.00000  -0.00830  -0.00830   3.31762
    R4        2.65214   0.00083   0.00000   0.00218   0.00215   2.65429
    R5        2.06903  -0.00703   0.00000  -0.01907  -0.01907   2.04996
    R6        2.62850   0.00639   0.00000   0.01337   0.01333   2.64183
    R7        2.91400  -0.05931   0.00000  -0.19177  -0.19177   2.72223
    R8        2.64421  -0.00210   0.00000  -0.00425  -0.00426   2.63995
    R9        2.06401  -0.00440   0.00000  -0.01185  -0.01185   2.05216
   R10        2.64263  -0.00143   0.00000  -0.00339  -0.00336   2.63927
   R11        2.06671  -0.00529   0.00000  -0.01430  -0.01430   2.05241
   R12        2.06646  -0.00515   0.00000  -0.01392  -0.01392   2.05253
   R13        2.26611   0.03012   0.00000   0.02793   0.02793   2.29404
   R14        2.91266  -0.05791   0.00000  -0.18690  -0.18690   2.72576
   R15        2.64178   0.00358   0.00000   0.00757   0.00757   2.64935
   R16        2.63832   0.00473   0.00000   0.00991   0.00991   2.64823
   R17        2.64183  -0.00156   0.00000  -0.00326  -0.00326   2.63857
   R18        2.06554  -0.00488   0.00000  -0.01317  -0.01317   2.05237
   R19        2.64238  -0.00159   0.00000  -0.00324  -0.00324   2.63913
   R20        2.06786  -0.00562   0.00000  -0.01524  -0.01524   2.05262
   R21        2.64009   0.00218   0.00000   0.00423   0.00424   2.64433
   R22        2.06662  -0.00463   0.00000  -0.01253  -0.01253   2.05409
   R23        2.63983   0.00214   0.00000   0.00418   0.00419   2.64402
   R24        2.06639  -0.00458   0.00000  -0.01237  -0.01237   2.05402
   R25        2.02083   0.01269   0.00000   0.03181   0.03181   2.05265
    A1        2.09366   0.00555   0.00000   0.01967   0.01966   2.11332
    A2        2.09504  -0.00310   0.00000  -0.01102  -0.01102   2.08403
    A3        2.09447  -0.00245   0.00000  -0.00864  -0.00864   2.08583
    A4        2.09099  -0.00351   0.00000  -0.01277  -0.01291   2.07808
    A5        2.09389   0.00207   0.00000   0.00824   0.00823   2.10212
    A6        2.09796   0.00146   0.00000   0.00499   0.00498   2.10294
    A7        2.09733   0.00090   0.00000   0.00571   0.00556   2.10289
    A8        2.03358   0.00818   0.00000   0.02852   0.02857   2.06215
    A9        2.15206  -0.00907   0.00000  -0.03402  -0.03398   2.11808
   A10        2.09293  -0.00243   0.00000  -0.00779  -0.00797   2.08496
   A11        2.09462   0.00051   0.00000   0.00032   0.00030   2.09493
   A12        2.09507   0.00196   0.00000   0.00815   0.00814   2.10321
   A13        2.09517   0.00274   0.00000   0.01120   0.01115   2.10632
   A14        2.09387  -0.00096   0.00000  -0.00337  -0.00335   2.09052
   A15        2.09414  -0.00179   0.00000  -0.00782  -0.00780   2.08634
   A16        2.09442  -0.00317   0.00000  -0.01407  -0.01406   2.08036
   A17        2.09448   0.00064   0.00000   0.00197   0.00197   2.09645
   A18        2.09428   0.00252   0.00000   0.01210   0.01210   2.10638
   A19        2.09307  -0.00013   0.00000  -0.00075  -0.00079   2.09228
   A20        2.09164  -0.00028   0.00000  -0.00129  -0.00133   2.09031
   A21        2.09779   0.00044   0.00000   0.00269   0.00262   2.10041
   A22        2.09144  -0.00101   0.00000  -0.00365  -0.00369   2.08775
   A23        2.09611  -0.00049   0.00000  -0.00345  -0.00347   2.09264
   A24        2.09540   0.00152   0.00000   0.00737   0.00735   2.10275
   A25        2.09320  -0.00139   0.00000  -0.00494  -0.00498   2.08821
   A26        2.09628  -0.00040   0.00000  -0.00331  -0.00332   2.09296
   A27        2.09347   0.00180   0.00000   0.00850   0.00849   2.10196
   A28        2.09342   0.00138   0.00000   0.00516   0.00515   2.09857
   A29        2.09403  -0.00117   0.00000  -0.00513  -0.00513   2.08891
   A30        2.09573  -0.00022   0.00000  -0.00003  -0.00003   2.09571
   A31        2.09222   0.00152   0.00000   0.00595   0.00594   2.09817
   A32        2.09489  -0.00129   0.00000  -0.00583  -0.00582   2.08907
   A33        2.09607  -0.00023   0.00000  -0.00012  -0.00011   2.09595
   A34        2.09766  -0.00092   0.00000  -0.00453  -0.00454   2.09313
   A35        2.09278   0.00044   0.00000   0.00216   0.00216   2.09494
   A36        2.09274   0.00048   0.00000   0.00237   0.00238   2.09511
   A37        3.17054  -0.00273   0.00000  -0.03796  -0.03801   3.13253
   A38        3.14159   0.00126   0.00000   0.04642   0.04640   3.18799
   A39        3.13228   0.00072   0.00000   0.01083   0.01067   3.14295
   A40        3.14159  -0.00011   0.00000  -0.00020   0.00000   3.14159
    D1        0.02934  -0.00062   0.00000  -0.01406  -0.01405   0.01529
    D2       -3.14082   0.00025   0.00000   0.00408   0.00404  -3.13678
    D3       -3.10907  -0.00088   0.00000  -0.01915  -0.01912  -3.12818
    D4        0.00396  -0.00002   0.00000  -0.00101  -0.00103   0.00294
    D5        0.00343  -0.00010   0.00000  -0.00216  -0.00212   0.00131
    D6       -3.13978  -0.00003   0.00000  -0.00063  -0.00065  -3.14043
    D7       -3.14135   0.00016   0.00000   0.00291   0.00295  -3.13840
    D8       -0.00137   0.00023   0.00000   0.00444   0.00442   0.00304
    D9       -0.06456   0.00149   0.00000   0.03282   0.03281  -0.03175
   D10        3.09824   0.00126   0.00000   0.02306   0.02285   3.12110
   D11        3.10566   0.00061   0.00000   0.01459   0.01465   3.12032
   D12       -0.01472   0.00038   0.00000   0.00483   0.00470  -0.01002
   D13        0.06660  -0.00159   0.00000  -0.03517  -0.03518   0.03142
   D14       -3.11087  -0.00058   0.00000  -0.01355  -0.01360  -3.12447
   D15       -3.09770  -0.00111   0.00000  -0.02389  -0.02409  -3.12179
   D16        0.00801  -0.00010   0.00000  -0.00227  -0.00251   0.00550
   D17       -0.42138   0.00102   0.00000   0.02531   0.02523  -0.39615
   D18        2.76189   0.00006   0.00000   0.00302   0.00322   2.76511
   D19        2.74721   0.00008   0.00000   0.00209   0.00189   2.74910
   D20       -0.35271  -0.00088   0.00000  -0.02020  -0.02012  -0.37282
   D21       -0.03360   0.00093   0.00000   0.01920   0.01909  -0.01451
   D22        3.10669   0.00093   0.00000   0.01972   0.01967   3.12636
   D23       -3.13930  -0.00005   0.00000  -0.00226  -0.00243   3.14146
   D24        0.00098  -0.00005   0.00000  -0.00174  -0.00185  -0.00086
   D25       -0.00147  -0.00002   0.00000  -0.00027  -0.00030  -0.00177
   D26       -3.14144  -0.00008   0.00000  -0.00179  -0.00177   3.13997
   D27        3.14144  -0.00002   0.00000  -0.00079  -0.00089   3.14055
   D28        0.00146  -0.00009   0.00000  -0.00231  -0.00236  -0.00090
   D29       -3.13968   0.00016   0.00000   0.00153   0.00143  -3.13825
   D30        0.02538  -0.00046   0.00000  -0.01148  -0.01153   0.01385
   D31       -0.03799   0.00089   0.00000   0.02037   0.02043  -0.01756
   D32        3.12707   0.00028   0.00000   0.00737   0.00747   3.13454
   D33        3.14019  -0.00017   0.00000  -0.00182  -0.00173   3.13846
   D34       -0.02477   0.00041   0.00000   0.01036   0.01041  -0.01436
   D35        0.03847  -0.00091   0.00000  -0.02067  -0.02072   0.01775
   D36       -3.12649  -0.00033   0.00000  -0.00848  -0.00858  -3.13507
   D37        0.02003  -0.00047   0.00000  -0.01064  -0.01065   0.00938
   D38       -3.12378  -0.00047   0.00000  -0.01037  -0.01039  -3.13417
   D39        3.13816   0.00011   0.00000   0.00221   0.00224   3.14040
   D40       -0.00565   0.00012   0.00000   0.00248   0.00250  -0.00315
   D41       -0.02094   0.00050   0.00000   0.01118   0.01119  -0.00975
   D42        3.12361   0.00045   0.00000   0.00997   0.00999   3.13360
   D43       -3.13921  -0.00004   0.00000  -0.00083  -0.00086  -3.14006
   D44        0.00535  -0.00010   0.00000  -0.00203  -0.00206   0.00329
   D45       -0.00265   0.00007   0.00000   0.00117   0.00117  -0.00148
   D46        3.13963   0.00007   0.00000   0.00140   0.00140   3.14103
   D47        3.14116   0.00006   0.00000   0.00091   0.00092  -3.14111
   D48        0.00025   0.00006   0.00000   0.00114   0.00114   0.00140
   D49        0.00308  -0.00007   0.00000  -0.00141  -0.00142   0.00166
   D50       -3.13920  -0.00007   0.00000  -0.00164  -0.00165  -3.14084
   D51       -3.14147  -0.00002   0.00000  -0.00022  -0.00023   3.14149
   D52       -0.00057  -0.00002   0.00000  -0.00045  -0.00045  -0.00102
         Item               Value     Threshold  Converged?
 Maximum Force            0.059306     0.000450     NO 
 RMS     Force            0.008562     0.000300     NO 
 Maximum Displacement     0.331378     0.001800     NO 
 RMS     Displacement     0.093139     0.001200     NO 
 Predicted change in Energy=-1.410062D-02
 GradGradGradGradGradGradGradGradGradGradGradGradGradGradGradGradGradGrad

                          Input orientation:                          
 ---------------------------------------------------------------------
 Center     Atomic      Atomic             Coordinates (Angstroms)
 Number     Number       Type             X           Y           Z
 ---------------------------------------------------------------------
      1          6           0       -5.186193   -0.943309    1.153430
      2          6           0       -3.794064   -0.962550    1.096396
      3          6           0       -3.152010   -0.493033   -0.061272
      4          6           0       -3.899285   -0.048428   -1.155940
      5          6           0       -5.294031   -0.038478   -1.077211
      6          6           0       -5.946020   -0.483484    0.074958
      7          1           0       -3.214448   -1.325947    1.938273
      8          1           0       -3.395325    0.298133   -2.053283
      9          1           0       -5.879278    0.319239   -1.919296
     10          1           0       -7.030374   -0.474367    0.136794
     11          6           0       -1.711746   -0.497852   -0.089091
     12          6           0       -0.497880   -0.504900   -0.101861
     13          6           0        0.943578   -0.513590   -0.050126
     14          6           0        1.598005   -0.505743    1.189712
     15          6           0        1.682552   -0.504565   -1.240803
     16          6           0        2.993587   -0.510158    1.233435
     17          1           0        1.018088   -0.506187    2.107991
     18          6           0        3.078105   -0.509207   -1.187752
     19          1           0        1.168324   -0.504590   -2.197566
     20          6           0        3.735809   -0.511004    0.047181
     21          1           0        3.502066   -0.511093    2.194148
     22          1           0        3.652030   -0.509760   -2.110815
     23          1           0        4.821355   -0.513912    0.085130
     24         17           0       -5.997384   -1.509113    2.603945
 ---------------------------------------------------------------------
                    Distance matrix (angstroms):
                    1          2          3          4          5
     1  C    0.000000
     2  C    1.393429   0.000000
     3  C    2.411669   1.404591   0.000000
     4  C    2.791082   2.433045   1.397995   0.000000
     5  C    2.409587   2.797923   2.413919   1.397002   0.000000
     6  C    1.397096   2.429764   2.797345   2.427655   1.396644
     7  H    2.156425   1.084790   2.166985   3.416901   3.882703
     8  H    3.877035   3.415962   2.157141   1.085958   2.161275
     9  H    3.393529   3.884005   3.398533   2.153663   1.086086
    10  H    2.157420   3.410698   3.883463   3.414133   2.163029
    11  C    3.716729   2.440773   1.440541   2.474970   3.744352
    12  C    4.873216   3.536961   2.654467   3.590126   4.916494
    13  C    6.261573   4.895031   4.095655   4.989240   6.339432
    14  C    6.798391   5.412189   4.912002   5.994282   7.270312
    15  C    7.287284   5.972067   4.976387   5.601086   6.994048
    16  C    8.191630   6.804090   6.280519   7.309855   8.616621
    17  H    6.292485   4.938462   4.700595   5.919742   7.085697
    18  C    8.600477   7.256002   6.331158   6.992661   8.386088
    19  H    7.197328   5.973710   4.819666   5.193624   6.575294
    20  C    9.000710   7.616018   6.888696   7.743135   9.111835
    21  H    8.761036   7.392049   7.025951   8.137392   9.396620
    22  H    9.431725   8.120070   7.106044   7.625416   9.017896
    23  H   10.073562   8.686160   7.974737   8.820799  10.193042
    24  Cl   1.755608   2.725078   4.028890   4.546686   4.025963
                    6          7          8          9         10
     6  C    0.000000
     7  H    3.412209   0.000000
     8  H    3.412680   4.313105   0.000000
     9  H    2.150783   4.968782   2.487654   0.000000
    10  H    1.086154   4.304859   4.313557   2.486431   0.000000
    11  C    4.237475   2.655948   2.706674   4.624458   5.323475
    12  C    5.451050   3.495140   3.584424   5.739487   6.536923
    13  C    6.890799   4.680046   4.847433   7.123114   7.976239
    14  C    7.625974   4.938904   6.008043   8.139796   8.692442
    15  C    7.741239   5.895914   5.204737   7.636772   8.821211
    16  C    9.014396   6.300952   7.230079   9.452795  10.083833
    17  H    7.254828   4.314530   6.118933   8.029572   8.286397
    18  C    9.112076   7.073565   6.580748   9.025309  10.194949
    19  H    7.468514   6.081816   4.635954   7.101044   8.524600
    20  C    9.681908   7.248892   7.477949   9.849174  10.766618
    21  H    9.682874   6.770600   8.140609  10.277134  10.731559
    22  H    9.843823   8.013101   7.093744   9.569208  10.916352
    23  H   10.767423   8.286595   8.529130  10.918581  11.851907
    24  Cl   2.729529   2.867299   5.632639   4.880218   2.867857
                   11         12         13         14         15
    11  C    0.000000
    12  C    1.213953   0.000000
    13  C    2.655656   1.442412   0.000000
    14  C    3.548218   2.461889   1.401976   0.000000
    15  C    3.584375   2.459974   1.401384   2.431986   0.000000
    16  C    4.887676   3.738099   2.418693   1.396273   2.800124
    17  H    3.504173   2.679852   2.159416   1.086066   3.414079
    18  C    4.914251   3.737225   2.418764   2.800544   1.396569
    19  H    3.569386   2.677352   2.159187   3.414423   1.086198
    20  C    5.449275   4.236316   2.793927   2.423966   2.423800
    21  H    5.691853   4.612078   3.403327   2.152759   3.887102
    22  H    5.732155   4.610604   3.403258   3.887482   2.153088
    23  H    6.535443   5.322528   3.880135   3.407368   3.407385
    24  Cl   5.161568   6.210827   7.497473   7.790811   8.647117
                   16         17         18         19         20
    16  C    0.000000
    17  H    2.160430   0.000000
    18  C    2.422662   3.886593   0.000000
    19  H    3.886307   4.308178   2.160326   0.000000
    20  C    1.399318   3.410713   1.399156   3.410412   0.000000
    21  H    1.086978   2.485477   3.408371   4.973283   2.159653
    22  H    3.408453   4.973528   1.086938   2.485225   2.159622
    23  H    2.158554   4.307768   2.158511   4.307601   1.086213
    24  Cl   9.149522   7.104131   9.886419   8.683948  10.112779
                   21         22         23         24
    21  H    0.000000
    22  H    4.307574   0.000000
    23  H    2.487666   2.487874   0.000000
    24  Cl   9.560519  10.786049  11.152576   0.000000
 Stoichiometry    C14H9Cl
 Framework group  C1[X(C14H9Cl)]
 Deg. of freedom    66
 Full point group                 C1      NOp   1
 Largest Abelian subgroup         C1      NOp   1
 Largest concise Abelian subgroup C1      NOp   1
                         Standard orientation:                         
 ---------------------------------------------------------------------
 Center     Atomic      Atomic             Coordinates (Angstroms)
 Number     Number       Type             X           Y           Z
 ---------------------------------------------------------------------
      1          6           0        3.454444   -0.312075    0.037744
      2          6           0        2.071034   -0.471897    0.085476
      3          6           0        1.248549    0.659123   -0.045623
      4          6           0        1.809766    1.932073   -0.183553
      5          6           0        3.199307    2.069155   -0.228261
      6          6           0        4.029605    0.951408   -0.119356
      7          1           0        1.635641   -1.457355    0.212259
      8          1           0        1.166891    2.803176   -0.268388
      9          1           0        3.640521    3.054140   -0.349579
     10          1           0        5.109931    1.057755   -0.155615
     11          6           0       -0.179029    0.468117   -0.019231
     12          6           0       -1.380539    0.296176    0.002988
     13          6           0       -2.797820    0.028229    0.011511
     14          6           0       -3.269349   -1.248119   -0.326324
     15          6           0       -3.697708    1.053121    0.333492
     16          6           0       -4.642627   -1.500410   -0.320192
     17          1           0       -2.565772   -2.035299   -0.581014
     18          6           0       -5.069623    0.791893    0.337310
     19          1           0       -3.325027    2.041052    0.588299
     20          6           0       -5.544604   -0.482853    0.010121
     21          1           0       -5.009017   -2.491495   -0.575204
     22          1           0       -5.767904    1.584261    0.594199
     23          1           0       -6.612268   -0.682707    0.013315
     24         17           0        4.490504   -1.722186    0.180301
 ---------------------------------------------------------------------
 Rotational constants (GHZ):           1.4870830           0.1808886           0.1622341
 Standard basis: 6-31+G(d) (6D, 7F)
 There are   307 symmetry adapted cartesian basis functions of A   symmetry.
 There are   307 symmetry adapted basis functions of A   symmetry.
   307 basis functions,   540 primitive gaussians,   307 cartesian basis functions
    55 alpha electrons       55 beta electrons
       nuclear repulsion energy       859.8132555672 Hartrees.
 NAtoms=   24 NActive=   24 NUniq=   24 SFac= 1.00D+00 NAtFMM=   60 NAOKFM=F Big=F
 Integral buffers will be    131072 words long.
 Raffenetti 2 integral format.
 Two-electron integral symmetry is turned on.
 Nuclear repulsion after empirical dispersion term =      859.7968322310 Hartrees.
 One-electron integrals computed using PRISM.
 NBasis=   307 RedAO= T EigKep=  2.24D-06  NBF=   307
 NBsUse=   303 1.00D-06 EigRej=  8.64D-07 NBFU=   303
 Initial guess from the checkpoint file:  "molecule_69.chk"
 B after Tr=     0.000000    0.000000    0.000000
         Rot=    0.999999   -0.000673    0.000479   -0.001181 Ang=  -0.17 deg.
 ExpMin= 4.38D-02 ExpMax= 2.52D+04 ExpMxC= 3.78D+03 IAcc=3 IRadAn=         5 AccDes= 0.00D+00
 Harris functional with IExCor=  402 and IRadAn=       5 diagonalized for initial guess.
 HarFok:  IExCor=  402 AccDes= 0.00D+00 IRadAn=         5 IDoV= 1 UseB2=F ITyADJ=14
 ICtDFT=  3500011 ScaDFX=  1.000000  1.000000  1.000000  1.000000
 FoFCou: FMM=F IPFlag=           0 FMFlag=      100000 FMFlg1=           0
         NFxFlg=           0 DoJE=T BraDBF=F KetDBF=T FulRan=T
         wScrn=  0.000000 ICntrl=       500 IOpCl=  0 I1Cent=   200000004 NGrid=           0
         NMat0=    1 NMatS0=      1 NMatT0=    0 NMatD0=    1 NMtDS0=    0 NMtDT0=    0
 Petite list used in FoFCou.
 Requested convergence on RMS density matrix=1.00D-08 within 128 cycles.
 Requested convergence on MAX density matrix=1.00D-06.
 Requested convergence on             energy=1.00D-06.
 No special actions if energy rises.
 SCF Done:  E(RB3LYP) =  -999.093364900     A.U. after   15 cycles
            NFock= 15  Conv=0.45D-08     -V/T= 2.0068
 Calling FoFJK, ICntrl=      2127 FMM=F ISym2X=0 I1Cent= 0 IOpClX= 0 NMat=1 NMatS=1 NMatT=0.
 ***** Axes restored to original set *****
 -------------------------------------------------------------------
 Center     Atomic                   Forces (Hartrees/Bohr)
 Number     Number              X              Y              Z
 -------------------------------------------------------------------
      1        6           0.002415673    0.000218573   -0.002317274
      2        6          -0.006431310    0.000455866    0.003674247
      3        6           0.019723745   -0.004089643    0.003428077
      4        6          -0.007190677    0.003431485   -0.004098802
      5        6           0.002666581   -0.000509053   -0.000572653
      6        6          -0.003131542    0.000271091    0.000158580
      7        1           0.000074552    0.000488235   -0.000443122
      8        1           0.000311342   -0.000063596    0.000778692
      9        1          -0.000408267   -0.000167183   -0.000164421
     10        1           0.000625503   -0.000127501    0.000355314
     11        6          -0.012767513    0.000546459   -0.002397191
     12        6           0.013196688   -0.000529245    0.002788614
     13        6          -0.020908621    0.002421688   -0.002333471
     14        6           0.006841715   -0.001620770    0.003264734
     15        6           0.007883892   -0.001159789   -0.002856922
     16        6          -0.000985508    0.000357265    0.000359959
     17        1          -0.000382962    0.000143591   -0.000557013
     18        6          -0.000999630    0.000409725   -0.000488451
     19        1          -0.000399595    0.000078115    0.000607076
     20        6          -0.000207403   -0.000215263   -0.000055793
     21        1           0.000036779    0.000097810   -0.000048408
     22        1           0.000093489    0.000073904    0.000042211
     23        1           0.000444784   -0.000027287    0.000017252
     24       17          -0.000501715   -0.000484477    0.000858764
 -------------------------------------------------------------------
 Cartesian Forces:  Max     0.020908621 RMS     0.004595143

 GradGradGradGradGradGradGradGradGradGradGradGradGradGradGradGradGradGrad
 Berny optimization.
 Using GEDIIS/GDIIS optimizer.
 FormGI is forming the generalized inverse of G from B-inverse, IUseBI=4.
 Internal  Forces:  Max     0.008654049 RMS     0.001909263
 Search for a local minimum.
 Step number   2 out of a maximum of  127
 All quantities printed in internal units (Hartrees-Bohrs-Radians)
 Mixed Optimization -- RFO/linear search
 Update second derivatives using D2CorX and points    1    2
 DE= -1.56D-02 DEPred=-1.41D-02 R= 1.11D+00
 TightC=F SS=  1.41D+00  RLast= 3.02D-01 DXNew= 5.0454D-01 9.0613D-01
 Trust test= 1.11D+00 RLast= 3.02D-01 DXMaxT set to 5.05D-01
 ITU=  1  0
 Use linear search instead of GDIIS.
     Eigenvalues ---    0.00230   0.00230   0.00234   0.01518   0.01653
     Eigenvalues ---    0.02077   0.02091   0.02104   0.02111   0.02112
     Eigenvalues ---    0.02116   0.02117   0.02119   0.02119   0.02122
     Eigenvalues ---    0.02124   0.02126   0.02128   0.02132   0.02148
     Eigenvalues ---    0.02166   0.03942   0.04739   0.15949   0.15999
     Eigenvalues ---    0.15999   0.15999   0.16000   0.16000   0.16000
     Eigenvalues ---    0.16000   0.16002   0.21723   0.21999   0.22009
     Eigenvalues ---    0.22062   0.23484   0.23552   0.24752   0.25000
     Eigenvalues ---    0.25002   0.27784   0.28393   0.29655   0.34258
     Eigenvalues ---    0.34326   0.34396   0.34403   0.34409   0.34450
     Eigenvalues ---    0.34499   0.34554   0.37346   0.41600   0.41767
     Eigenvalues ---    0.42129   0.42507   0.45476   0.45823   0.45915
     Eigenvalues ---    0.45950   0.46018   0.46095   0.46224   0.46968
     Eigenvalues ---    1.04574
 RFO step:  Lambda=-3.95098709D-03 EMin= 2.29958859D-03
 Quartic linear search produced a step of  0.13196.
 Maximum step size (   0.505) exceeded in Quadratic search.
    -- Step size scaled by   0.740
 Iteration  1 RMS(Cart)=  0.19178273 RMS(Int)=  0.02983279
 Iteration  2 RMS(Cart)=  0.18788104 RMS(Int)=  0.01198061
 Iteration  3 RMS(Cart)=  0.10618401 RMS(Int)=  0.00185793
 Iteration  4 RMS(Cart)=  0.00488685 RMS(Int)=  0.00061813
 Iteration  5 RMS(Cart)=  0.00000149 RMS(Int)=  0.00061813
 Iteration  6 RMS(Cart)=  0.00000001 RMS(Int)=  0.00061813
 Variable       Old X    -DE/DX   Delta X   Delta X   Delta X     New X
                                 (Linear)    (Quad)   (Total)
    R1        2.63320  -0.00064  -0.00099  -0.00131  -0.00229   2.63091
    R2        2.64013   0.00032  -0.00028   0.00020  -0.00009   2.64004
    R3        3.31762   0.00110  -0.00110   0.00304   0.00194   3.31956
    R4        2.65429   0.00429   0.00028   0.00829   0.00859   2.66288
    R5        2.04996  -0.00047  -0.00252  -0.00131  -0.00382   2.04613
    R6        2.64183   0.00718   0.00176   0.01325   0.01502   2.65685
    R7        2.72223  -0.00812  -0.02531  -0.02443  -0.04977   2.67246
    R8        2.63995  -0.00111  -0.00056  -0.00206  -0.00263   2.63732
    R9        2.05216  -0.00052  -0.00156  -0.00136  -0.00292   2.04924
   R10        2.63927   0.00051  -0.00044   0.00055   0.00010   2.63937
   R11        2.05241   0.00029  -0.00189   0.00058  -0.00131   2.05109
   R12        2.05253  -0.00061  -0.00184  -0.00159  -0.00343   2.04911
   R13        2.29404   0.00461   0.00369   0.00441   0.00807   2.30211
   R14        2.72576  -0.00865  -0.02466  -0.02592  -0.05053   2.67523
   R15        2.64935   0.00538   0.00100   0.01025   0.01125   2.66060
   R16        2.64823   0.00590   0.00131   0.01116   0.01247   2.66070
   R17        2.63857  -0.00078  -0.00043  -0.00147  -0.00190   2.63667
   R18        2.05237  -0.00027  -0.00174  -0.00076  -0.00250   2.04987
   R19        2.63913  -0.00085  -0.00043  -0.00158  -0.00201   2.63712
   R20        2.05262  -0.00035  -0.00201  -0.00097  -0.00299   2.04963
   R21        2.64433   0.00001   0.00056  -0.00029   0.00027   2.64460
   R22        2.05409  -0.00003  -0.00165  -0.00018  -0.00183   2.05226
   R23        2.64402  -0.00007   0.00055  -0.00043   0.00012   2.64414
   R24        2.05402   0.00001  -0.00163  -0.00008  -0.00171   2.05230
   R25        2.05265   0.00045   0.00420   0.00135   0.00554   2.05819
    A1        2.11332   0.00191   0.00259   0.00549   0.00807   2.12139
    A2        2.08403  -0.00097  -0.00145  -0.00280  -0.00425   2.07978
    A3        2.08583  -0.00094  -0.00114  -0.00269  -0.00382   2.08201
    A4        2.07808   0.00086  -0.00170   0.00384   0.00212   2.08020
    A5        2.10212  -0.00004   0.00109   0.00005   0.00112   2.10324
    A6        2.10294  -0.00082   0.00066  -0.00384  -0.00320   2.09974
    A7        2.10289  -0.00427   0.00073  -0.01292  -0.01234   2.09056
    A8        2.06215   0.00542   0.00377   0.01739   0.02119   2.08334
    A9        2.11808  -0.00115  -0.00448  -0.00432  -0.00880   2.10928
   A10        2.08496   0.00165  -0.00105   0.00689   0.00581   2.09077
   A11        2.09493  -0.00146   0.00004  -0.00658  -0.00656   2.08836
   A12        2.10321  -0.00018   0.00107  -0.00023   0.00083   2.10404
   A13        2.10632   0.00065   0.00147   0.00159   0.00303   2.10936
   A14        2.09052  -0.00003  -0.00044   0.00068   0.00026   2.09078
   A15        2.08634  -0.00062  -0.00103  -0.00228  -0.00329   2.08305
   A16        2.08036  -0.00078  -0.00186  -0.00442  -0.00631   2.07405
   A17        2.09645  -0.00003   0.00026   0.00017   0.00045   2.09689
   A18        2.10638   0.00081   0.00160   0.00425   0.00586   2.11224
   A19        2.09228   0.00160  -0.00010   0.00481   0.00459   2.09687
   A20        2.09031   0.00309  -0.00018   0.00973   0.00953   2.09984
   A21        2.10041  -0.00468   0.00035  -0.01429  -0.01394   2.08647
   A22        2.08775   0.00168  -0.00049   0.00679   0.00628   2.09403
   A23        2.09264  -0.00148  -0.00046  -0.00652  -0.00699   2.08565
   A24        2.10275  -0.00020   0.00097  -0.00022   0.00075   2.10350
   A25        2.08821   0.00175  -0.00066   0.00709   0.00641   2.09462
   A26        2.09296  -0.00153  -0.00044  -0.00676  -0.00720   2.08576
   A27        2.10196  -0.00022   0.00112  -0.00028   0.00084   2.10279
   A28        2.09857   0.00055   0.00068   0.00091   0.00158   2.10014
   A29        2.08891  -0.00022  -0.00068  -0.00011  -0.00078   2.08812
   A30        2.09571  -0.00033   0.00000  -0.00080  -0.00079   2.09492
   A31        2.09817   0.00043   0.00078   0.00050   0.00127   2.09943
   A32        2.08907  -0.00011  -0.00077   0.00034  -0.00042   2.08865
   A33        2.09595  -0.00032  -0.00002  -0.00084  -0.00085   2.09510
   A34        2.09313   0.00027  -0.00060  -0.00085  -0.00146   2.09166
   A35        2.09494  -0.00014   0.00029   0.00041   0.00071   2.09565
   A36        2.09511  -0.00014   0.00031   0.00043   0.00075   2.09587
   A37        3.13253   0.00146  -0.00502   0.02928   0.02382   3.15635
   A38        3.18799  -0.00324   0.00612  -0.49960  -0.49382   2.69417
   A39        3.14295  -0.00015   0.00141  -0.00287  -0.00424   3.13870
   A40        3.14159  -0.00022   0.00000  -0.03203  -0.02857   3.11302
    D1        0.01529  -0.00032  -0.00185  -0.00784  -0.00955   0.00574
    D2       -3.13678   0.00002   0.00053  -0.00208  -0.00149  -3.13827
    D3       -3.12818  -0.00035  -0.00252  -0.00663  -0.00903  -3.13722
    D4        0.00294  -0.00001  -0.00014  -0.00087  -0.00098   0.00196
    D5        0.00131  -0.00003  -0.00028  -0.00102  -0.00119   0.00012
    D6       -3.14043  -0.00001  -0.00009   0.00028   0.00017  -3.14026
    D7       -3.13840   0.00001   0.00039  -0.00223  -0.00170  -3.14011
    D8        0.00304   0.00003   0.00058  -0.00093  -0.00034   0.00270
    D9       -0.03175   0.00084   0.00433   0.01722   0.02087  -0.01089
   D10        3.12110   0.00036   0.00302   0.00284   0.00639   3.12749
   D11        3.12032   0.00049   0.00193   0.01143   0.01281   3.13312
   D12       -0.01002   0.00001   0.00062  -0.00295  -0.00167  -0.01169
   D13        0.03142  -0.00085  -0.00464  -0.01718  -0.02116   0.01026
   D14       -3.12447  -0.00047  -0.00179  -0.01094  -0.01213  -3.13660
   D15       -3.12179  -0.00031  -0.00318  -0.00219  -0.00627  -3.12806
   D16        0.00550   0.00007  -0.00033   0.00405   0.00277   0.00827
   D17       -0.39615   0.00029   0.00333  -0.00788  -0.00445  -0.40060
   D18        2.76511   0.00010   0.00043   0.00250   0.00559   2.77070
   D19        2.74910   0.00031   0.00025   0.04494   0.04228   2.79138
   D20       -0.37282   0.00012  -0.00265   0.05533   0.05232  -0.32050
   D21       -0.01451   0.00038   0.00252   0.00782   0.01012  -0.00439
   D22        3.12636   0.00038   0.00260   0.00734   0.00982   3.13617
   D23        3.14146   0.00001  -0.00032   0.00160   0.00106  -3.14067
   D24       -0.00086   0.00001  -0.00024   0.00112   0.00076  -0.00010
   D25       -0.00177   0.00000  -0.00004   0.00107   0.00095  -0.00082
   D26        3.13997  -0.00002  -0.00023  -0.00024  -0.00043   3.13954
   D27        3.14055   0.00000  -0.00012   0.00155   0.00125  -3.14139
   D28       -0.00090  -0.00002  -0.00031   0.00024  -0.00013  -0.00103
[...]
 0.00000233,0.00000881,-0.00000202,0.00000963,-0.00000064,-0.00000006,0
 .00000026,-0.00000060,-0.00000011,0.00000053,-0.00363093,-0.00015946,0
 .00073214,0.00753061,0.00049485,-0.00233248,-0.03085204,0.01470086,-0.
 06928242,-0.34422181,-0.00699614,0.03114226,-0.04882159,-0.00553274,0.
 02572724,0.68788276,0.00003719,0.00028416,0.00002685,-0.00000680,-0.00
 018612,0.00001675,0.00015262,-0.00051901,-0.00017400,-0.00003581,0.000
 01848,-0.00002401,0.00002479,-0.00002340,0.00000279,-0.00004264,-0.000
 07881,-0.00001533,0.00000350,-0.00004717,-0.00001071,-0.00000556,0.000
 01330,-0.00000359,0.00000018,-0.00000258,-0.00000288,0.00000044,0.0000
 0856,0.00000094,-0.00013341,-0.00044742,-0.00010561,0.00101932,0.00772
 840,0.00266066,0.00550906,0.00625507,-0.00566654,0.00613110,-0.0641691
 9,0.01409086,-0.00585730,-0.00639950,0.00214682,-0.00631023,0.15844195
 ,-0.00017556,0.00002756,0.00016200,0.00003147,0.00001574,-0.00025824,-
 0.00070492,-0.00017511,0.00026255,0.00016723,-0.00002337,0.00012436,-0
 .00011511,0.00000251,-0.00003601,0.00019960,-0.00001524,-0.00000973,-0
 .00001622,-0.00001082,0.00000111,0.00002576,-0.00000337,0.00002907,-0.
 00000069,-0.00000284,0.00001027,-0.00000208,0.00000095,0.00000438,0.00
 060465,-0.00010678,0.00003245,-0.00479197,0.00265915,-0.00422313,-0.02
 610129,-0.00561034,0.03123578,-0.03052865,0.01400991,-0.12717830,0.027
 25391,0.00214917,-0.01586279,0.03303697,-0.11970071,0.69548179,-0.0000
 5043,-0.00001512,0.00007173,0.00005734,0.00001023,-0.00004874,-0.00013
 197,-0.00000938,0.00004274,0.00008396,0.00000632,-0.00002931,-0.000002
 67,-0.00000504,0.00002400,0.00003352,0.00000233,-0.00001106,-0.0000391
 2,-0.00000496,0.00002312,-0.00000855,0.00000078,-0.00000383,0.00001350
 ,-0.00000082,0.00000392,0.00000599,-0.00000050,0.00000239,0.00002159,-
 0.00003462,0.00016198,0.00111303,0.00021321,-0.00097136,0.01056974,0.0
 0327532,-0.01534157,-0.13071257,-0.02584182,0.12080335,-0.00148530,0.0
 0061653,-0.00294296,-0.01040046,-0.00601695,0.02817790,0.13630728,0.00
 000550,-0.00003236,-0.00001341,0.00000134,0.00000448,0.00000772,-0.000
 00023,0.00017630,0.00004159,-0.00000686,-0.00003081,0.00000547,-0.0000
 0272,0.00001983,-0.00000157,0.00000039,0.00000517,0.00000099,0.0000069
 5,0.00004981,0.00000328,0.00000045,0.00000348,0.00000024,-0.00000223,0
 .00000319,0.00000025,-0.00000093,-0.00000187,-0.00000102,0.00017568,-0
 .00001618,-0.00005997,-0.00024415,-0.00337519,-0.00080280,-0.00321561,
 0.00232392,0.00452565,-0.02548984,-0.04661884,0.04786139,0.00087238,0.
 00567491,0.00178831,0.00046774,0.00356183,-0.00016965,0.02737536,0.036
 35970,-0.00002598,-0.00001364,0.00002879,-0.00000617,0.00000765,-0.000
 03006,-0.00000105,0.00004161,-0.00001022,0.00003293,0.00000541,-0.0000
 5532,0.00001244,-0.00000142,0.00002665,-0.00000144,0.00000105,0.000000
 42,-0.00003292,0.00000331,0.00003500,-0.00000213,0.00000025,0.00000234
 ,0.00001048,0.00000026,0.00000210,0.00000438,-0.00000102,0.00000271,-0
 .00082421,-0.00006113,0.00025356,0.00117561,-0.00080015,0.00021952,0.0
 1515011,0.00456647,-0.01806579,0.11914626,0.04785777,-0.26046195,-0.00
 414534,0.00178690,-0.00236533,-0.00228107,-0.00020912,0.00449360,-0.12
 790150,-0.05321775,0.27418414,0.00015352,-0.00001666,0.00007934,-0.000
 27825,-0.00006591,0.00030846,0.00131599,0.00000936,-0.00003348,-0.0004
 0489,0.00006122,-0.00028840,0.00022815,0.00002458,-0.00011664,-0.00010
 844,-0.00000995,0.00004706,0.00000933,0.00000202,-0.00000969,0.0000020
 5,0.,0.00000035,0.00000286,0.00000034,-0.00000167,0.00000141,0.0000003
 5,-0.00000163,-0.00364838,0.00014924,-0.00071919,0.00754909,-0.0004916
 7,0.00230419,-0.03070856,-0.01480891,0.06935438,-0.04890353,0.00542060
 ,-0.02572927,-0.34418886,0.00622562,-0.03098823,0.06410835,0.00480075,
 -0.02220645,-0.00056277,0.00015960,-0.00074893,0.68769795,-0.00002981,
 0.00001689,0.00003516,0.00003438,-0.00001303,-0.00003473,-0.00014795,-
 0.00055117,-0.00018622,0.00000836,-0.00018846,0.00001395,-0.00003460,0
 .00025178,0.00003566,0.00004168,-0.00006652,-0.00002843,0.00000622,0.0
 0001513,-0.00000186,-0.00000197,-0.00004549,-0.00001117,-0.00000303,0.
 00000295,0.00000246,-0.00000020,-0.00000424,-0.00000175,0.00012313,-0.
 00033559,-0.00008137,-0.00101560,0.00752201,0.00262605,-0.00561103,0.0
 0630777,-0.00544677,0.00573567,-0.00639513,0.00206386,-0.00690124,-0.0
 6399888,0.01403079,-0.00463575,0.00467409,0.01296359,0.00015519,-0.000
 62617,-0.00018665,0.00769902,0.15828312,0.00013977,0.00003495,-0.00013
 982,-0.00016266,-0.00003546,0.00014500,0.00070624,-0.00018511,0.000283
 45,-0.00004018,0.00001358,-0.00025114,0.00016119,0.00003700,0.00008848
 ,-0.00019489,-0.00002869,0.00006113,-0.00002922,-0.00000172,0.00002309
 ,0.00000949,-0.00001125,0.00000482,0.00001412,0.00000248,-0.00000819,0
 .00000088,-0.00000181,0.00000378,-0.00059978,-0.00008244,0.00002999,0.
 00476950,0.00263058,-0.00424462,0.02613836,-0.00550323,0.03116932,-0.0
 2720937,0.00206177,-0.01581767,0.03068591,0.01411130,-0.12711121,0.022
 12517,0.01302112,-0.05359645,-0.00072845,-0.00018648,0.00020608,-0.032
 76137,-0.11979645,0.69537545,-0.00003433,-0.00000973,0.00004509,0.0000
 8890,-0.00000196,0.00001017,-0.00013439,0.00000547,-0.00002755,0.00004
 678,-0.00000691,0.00003306,-0.00000866,0.00000063,-0.00000282,0.000030
 25,0.00000381,-0.00001770,-0.00000763,-0.00000130,0.00000614,-0.000033
 46,0.00000505,-0.00002456,0.00001126,-0.00000096,0.00000454,0.00000601
 ,0.00000071,-0.00000332,0.00002228,0.00003503,-0.00016334,0.00111583,-
 0.00020041,0.00096804,0.01056579,-0.00324553,0.01529486,-0.00147299,-0
 .00063563,0.00293929,-0.13094516,0.02561844,-0.12095157,-0.00056116,-0
 .00015468,0.00072726,0.00059066,-0.00017013,0.00080021,-0.01042708,0.0
 0598042,-0.02818375,0.13655238,-0.00000312,0.00001679,0.00000880,0.000
 00794,-0.00002842,0.00000309,0.00000024,0.00017817,0.00004453,-0.00000
 379,0.00000816,0.00000807,-0.00000041,-0.00004607,-0.00001126,-0.00000
 061,0.00000648,-0.00000140,0.,0.00000352,0.00000086,-0.00000598,0.0000
 4501,0.00000145,0.00000117,0.00000526,0.00000126,0.00000103,0.00000284
 ,-0.00000022,-0.00017719,-0.00001603,-0.00005862,0.00025615,-0.0033736
 5,-0.00080420,0.00324902,0.00231139,0.00456758,-0.00089362,0.00566893,
 0.00179790,0.02526239,-0.04641050,0.04749005,-0.00015915,-0.00062492,-
 0.00018385,0.00017162,0.00035247,0.00029287,-0.00050451,0.00355623,-0.
 00024359,-0.02711856,0.03617224,0.00001438,0.00000890,-0.00002262,-0.0
 0003661,0.00000286,-0.00004207,-0.00000282,0.00004454,-0.00002163,0.00
 001818,0.00000796,-0.00002759,0.00000225,-0.00001134,0.00000485,0.0000
 0282,-0.00000139,0.00001259,-0.00000012,0.00000086,-0.00000031,0.00002
 733,0.00000163,0.00003809,-0.00000544,0.00000125,-0.00000039,-0.000004
 81,-0.00000020,0.00000375,0.00083315,-0.00005745,0.00024593,-0.0011754
 0,-0.00080646,0.00023871,-0.01521913,0.00452653,-0.01808291,0.00415195
 ,0.00179940,-0.00237531,-0.11928208,0.04749326,-0.26021614,0.00074826,
 -0.00018382,0.00020434,-0.00080534,0.00029077,-0.00095639,0.00228639,-
 0.00020389,0.00447706,0.12810501,-0.05282952,0.27396932,0.00004988,0.0
 0008455,-0.00039914,-0.00000258,0.00003796,-0.00017853,-0.00025085,-0.
 00000052,-0.00000018,-0.00001184,-0.00004832,0.00022632,-0.00001057,-0
 .00002833,0.00013504,-0.00020376,-0.00001677,0.00007769,0.00001169,0.0
 0000126,-0.00000569,0.00001504,0.00000063,-0.00000319,-0.00003174,0.00
 000416,-0.00001978,-0.00000850,-0.00000013,0.00000045,0.00212122,0.000
 00306,-0.00000289,-0.00384554,-0.00000353,0.00000647,0.00329638,0.0000
 2304,-0.00005538,-0.02755540,-0.00617955,0.02881446,-0.02770952,0.0060
 7100,-0.02873551,-0.18036896,-0.02522270,0.11776388,-0.00551659,0.0001
 1723,-0.00062842,-0.18051220,0.02495148,-0.11794841,-0.00551691,-0.000
 14853,0.00061925,0.74114112,-0.00001005,-0.00004724,-0.00001736,0.0000
 1023,0.00002842,0.00000633,0.00000049,0.00013683,0.00002453,-0.0000113
 4,0.00002867,0.00000631,0.00001025,-0.00003709,-0.00001227,-0.00000025
 ,0.00002468,0.00001578,0.00000003,0.00000523,0.00000103,-0.00000013,0.
 00000663,0.00000148,-0.00000002,-0.00000206,-0.00000057,-0.00000011,-0
 .00000036,0.00000011,0.00000141,0.00017573,-0.00012278,-0.00000265,-0.
 00179340,-0.00012342,0.00001788,-0.00809852,0.01210025,-0.01577530,0.0
 0809824,-0.00515101,0.01567819,0.00812885,-0.00523606,-0.01169706,-0.0
 7155846,0.04513253,0.00033627,0.00705495,0.00116638,0.01142547,-0.0713
 8982,0.04480979,-0.00037125,0.00705149,0.00116601,0.00077199,0.1549725
 1,0.00004799,-0.00001680,0.00002856,-0.00004844,0.00000655,-0.00000140
 ,-0.00000484,0.00002453,0.00002660,0.00005261,0.00000615,0.00000143,-0
 .00004768,-0.00001257,0.00001915,-0.00000033,0.00001562,-0.00004571,-0
 .00000007,0.00000104,0.00000059,0.00000076,0.00000148,0.00000003,-0.00
 000012,-0.00000055,0.00000044,0.00000048,0.00000013,-0.00000091,0.0000
 0607,-0.00012247,0.00072517,-0.00000029,-0.00012371,-0.00123819,-0.000
 02861,0.01209994,-0.06236872,0.07389833,-0.00509167,0.03139668,-0.0738
 6731,-0.00529508,0.03141578,0.05421994,0.04504992,-0.27323084,-0.00165
 855,0.00116487,0.00182060,-0.05440633,0.04489254,-0.27310756,0.0016650
 1,0.00116747,0.00182554,0.00013089,-0.10759326,0.63752567,0.00004747,0
 .00001323,-0.00006225,-0.00011788,0.00000400,-0.00001963,0.00017901,-0
 .00001762,0.00008395,-0.00007234,-0.00000376,0.00001751,0.00001443,0.0
 0000172,-0.00000812,-0.00004418,-0.00000426,0.00001994,0.00000804,0.00
 000225,-0.00001061,0.00001320,-0.00000233,0.00001111,-0.00001165,0.000
 00073,-0.00000351,-0.00000405,-0.00000010,0.00000045,-0.00043066,-0.00
 000626,0.00002796,-0.00034288,0.00027992,-0.00132039,-0.00504971,-0.00
 033242,0.00148691,-0.01117471,0.00608871,-0.02869046,-0.00073839,-0.00
 017560,0.00082415,-0.12911050,0.02495482,-0.11779353,0.00061629,-0.000
 07114,0.00036320,-0.00118002,-0.00066192,0.00306030,0.00010320,0.00002
 157,-0.00009378,0.01229635,-0.00316237,0.01491152,0.13380761,-0.000006
 44,0.00001171,0.00001509,0.00000741,-0.00000207,-0.00000103,-0.0000178
 9,-0.00000159,0.00000270,0.00000801,-0.00001253,-0.00000343,-0.0000029
 4,-0.00000604,-0.00000266,0.00000761,-0.00000260,-0.00000367,-0.000001
 22,0.00000421,0.00000169,-0.00000121,0.00000373,0.00000003,0.00000109,
 0.00000151,0.00000108,0.00000055,0.00000175,0.00000034,-0.00000217,-0.
 00019449,-0.00003469,-0.00000575,0.00048640,0.00008403,-0.00021707,0.0
 0699695,0.00110359,-0.00041822,0.00313992,-0.00021763,-0.00017516,-0.0
 0060924,-0.00017486,0.02496804,-0.04672901,0.04736964,0.00007622,-0.00
 392709,-0.00101620,-0.00089064,0.00646308,0.00201455,0.00002283,-0.001
 08608,-0.00023103,0.00336632,0.00224090,0.00447462,-0.02681628,0.03675
 644,0.00003052,0.00001513,-0.00005637,-0.00003560,-0.00000108,0.000002
 57,0.00008559,0.00000269,-0.00001317,-0.00003810,-0.00000348,0.0000028
 8,0.00001402,-0.00000263,0.00000584,-0.00003606,-0.00000371,0.00001395
 ,0.00000575,0.00000171,-0.00000344,0.00000575,0.00000003,0.00000363,-0
 .00000521,0.00000108,-0.00000339,-0.00000264,0.00000034,0.00000022,0.0
 0000814,-0.00003464,-0.00003854,0.00002248,0.00008568,0.00010130,0.000
 94364,0.00110323,0.00205567,0.00187966,-0.00017813,0.00394252,0.000821
 64,-0.00017482,0.00018006,-0.11785822,0.04736932,-0.25992096,-0.000328
 50,-0.00101702,0.00063196,0.00413447,0.00201599,-0.00255165,-0.0000996
 0,-0.00023109,-0.00005036,-0.01575753,0.00443489,-0.01774137,0.1266347
 4,-0.05269075,0.27387019,0.00003809,0.00001116,-0.00005225,-0.00007201
 ,0.00000071,-0.00000389,0.00018119,0.00002114,-0.00009822,-0.00011609,
 -0.00000847,0.00003920,0.00001343,0.00000398,-0.00001878,-0.00004366,-
 0.00000291,0.00001347,0.00001323,0.00000262,-0.00001235,0.00001055,-0.
 00000141,0.00000673,-0.00001804,0.00000094,-0.00000457,-0.00000386,0.0
 0000001,-0.00000010,-0.00043355,0.00000464,-0.00002311,-0.00033882,-0.
 00028272,0.00132354,-0.00505303,0.00030310,-0.00149936,-0.00074073,0.0
 0017509,-0.00082322,-0.01114059,-0.00612951,0.02870809,-0.00118512,0.0
 0064046,-0.00305833,0.00010376,-0.00001858,0.00009489,-0.12883950,-0.0
 2514440,0.11756202,0.00061619,0.00008399,-0.00036535,0.01229416,0.0031
 9004,-0.01493091,0.00046572,0.00017592,-0.00082469,0.13351493,0.000006
 62,0.00000201,-0.00001063,-0.00000844,-0.00001506,-0.00000202,0.000018
 16,-0.00000758,0.00000020,-0.00000760,-0.00000154,0.00000168,0.0000021
 4,0.00001030,0.00000295,-0.00000750,-0.00000545,0.00000125,0.00000134,
 0.00000419,-0.00000005,0.00000131,0.00000412,0.00000139,-0.00000135,0.
 00000184,-0.00000047,-0.00000054,0.00000116,0.00000030,0.00000163,-0.0
 0018920,-0.00003343,0.00000343,0.00048486,0.00008795,0.00018440,0.0070
 0145,0.00109963,0.00017515,-0.00061012,-0.00017769,0.00038131,0.003115
 65,-0.00014010,0.00087186,0.00646637,0.00200629,-0.00001977,-0.0010852
 9,-0.00023079,-0.02516049,-0.04682786,0.04768673,-0.00006488,-0.003926
 37,-0.00101714,-0.00333894,0.00223511,0.00443697,-0.00017526,0.0001474
 9,0.00025227,0.02704599,0.03687737,-0.00003102,-0.00001052,0.00004943,
 0.00003945,-0.00000198,-0.00000608,-0.00008468,0.00000023,-0.00000922,
 0.00003509,0.00000159,-0.00000862,-0.00001018,0.00000299,-0.00000311,0
 .00003512,0.00000125,-0.00001102,-0.00000623,-0.00000003,0.00000428,-0
 .00000613,0.00000138,-0.00000210,0.00000618,-0.00000044,0.00000389,0.0
 0000251,0.00000031,-0.00000020,-0.00000857,-0.00003350,-0.00003899,-0.
 00002191,0.00008632,0.00009827,-0.00094149,0.00109999,0.00206132,-0.00
 082452,-0.00017758,0.00018105,-0.00187645,-0.00017989,0.00391890,-0.00
 414542,0.00200493,-0.00255233,0.00010050,-0.00023075,-0.00004974,0.117
 63515,0.04768690,-0.25995537,0.00033422,-0.00101629,0.00063393,0.01574
 255,0.00447694,-0.01775172,0.00082520,0.00025449,-0.00098892,-0.126398
 44,-0.05303461,0.27393341,0.00003919,0.00001184,-0.00005567,-0.0000505
 1,-0.00000223,0.00001021,0.00011657,0.00000092,-0.00000385,-0.00004719
 ,-0.00000032,0.00000130,0.00001369,-0.00000012,0.00000057,-0.00003441,
 -0.00000288,0.00001344,0.00001051,0.00000160,-0.00000754,0.00000984,-0
 .00000145,0.00000694,-0.00000738,0.00000086,-0.00000411,-0.00000385,-0
 .00000007,0.00000029,-0.00011834,-0.00000051,0.00000148,0.00011510,0.0
 0000139,0.00000034,0.00073201,0.00000221,-0.00000028,0.00068534,-0.000
 66323,0.00307632,0.00067845,0.00064858,-0.00308641,-0.01127260,0.00051
 324,-0.00250059,-0.00064391,0.00004393,-0.00021102,-0.01129633,-0.0005
 5346,0.00251054,-0.00064565,-0.00004566,0.00020973,-0.33958552,-0.0004
 1201,0.00006186,0.00076676,-0.00008385,0.00042265,0.00076567,0.0000958
 7,-0.00042165,0.35980087,0.00000062,0.00000615,0.00000104,0.00000050,-
 0.00000450,0.00000051,-0.00000004,0.00004440,0.00001262,-0.00000079,-0
 .00000381,0.00000095,-0.00000043,0.00000303,-0.00000030,-0.00000002,-0
 .00000327,-0.00000060,0.00000091,0.00000149,-0.00000023,-0.00000067,0.
 00000116,-0.00000047,-0.00000012,0.00000145,0.00000032,0.,-0.00000051,
 -0.00000030,-0.00000007,0.00003748,0.00000052,0.00000124,-0.00096019,-
 0.00024650,0.00000249,-0.00091225,0.00006991,-0.00044231,0.00649306,0.
 00240427,0.00042712,0.00649896,0.00239544,-0.00601099,0.00334350,-0.00
 033860,-0.00030055,0.00013011,0.00000521,0.00597040,0.00334999,-0.0003
 3401,0.00029870,0.00013375,0.00000710,-0.00041071,-0.03726415,0.004912
 41,0.00007485,-0.00368154,-0.00093683,-0.00006336,-0.00368132,-0.00093
 768,0.00045348,0.02646809,-0.00000267,0.00000109,0.00000116,-0.0000026
 8,0.00000049,-0.00000669,0.00000063,0.00001263,-0.00001218,0.00000353,
 0.00000095,-0.00000804,0.00000202,-0.00000030,0.00000438,-0.00000009,-
 0.00000060,-0.00000056,-0.00000424,-0.00000022,0.00000248,0.00000322,-
 0.00000047,0.00000331,0.00000049,0.00000032,0.,-0.00000004,-0.00000030
 ,0.00000083,-0.00000042,0.00000050,0.00003515,0.00000077,-0.00024651,0
 .00014528,-0.00000128,0.00006982,-0.00122517,0.00203862,0.00240310,-0.
 00427074,-0.00204536,0.00239668,-0.00426419,0.02815001,-0.00029839,0.0
 0485381,0.00140727,0.00000728,0.00010581,-0.02813770,-0.00037409,0.004
 85563,-0.00140792,0.00000502,0.00010274,0.00005469,0.00491228,-0.05929
 427,-0.00032328,-0.00093777,0.00052236,0.00032613,-0.00093670,0.000521
 74,-0.00006270,-0.00701407,0.05792492,-0.06697617,-0.01009038,0.047362
 86,-0.01950483,-0.00796260,0.03743788,-0.00246445,0.00113605,-0.005407
 75,0.00074494,-0.00035705,0.00169424,-0.00079646,0.00013273,-0.0006601
 0,0.00483818,0.00056980,-0.00268679,0.00000912,-0.00016622,0.00080228,
 0.00016517,-0.00003243,0.00015891,-0.00000038,0.00002056,-0.00009763,0
 .00124194,0.00020489,-0.00094294,-0.00060062,-0.00028802,0.00134975,-0
 .00024606,-0.00000595,0.00003335,0.00028907,0.00002143,-0.00010222,-0.
 00017111,-0.00002117,0.00009834,-0.00012302,0.00001410,-0.00006703,-0.
 00001079,-0.00000140,0.00000676,0.00003767,-0.00000413,0.00001969,-0.0
 0000990,0.00000541,-0.00002539,0.00003789,0.00000599,-0.00002782,-0.00
 009535,0.00000029,-0.00000199,-0.00004112,0.00000484,-0.00002292,-0.00
 003192,-0.00000444,0.00002070,-0.00002831,-0.00000025,0.00000101,0.083
 73649,-0.01003026,-0.02760746,0.02067142,-0.00251734,0.00328479,0.0041
 8341,0.00005428,0.00486539,0.00038123,-0.00043981,-0.00074758,0.000081
 47,0.00156727,0.00447041,0.00096963,-0.00509750,0.00230971,0.00889434,
 0.00005724,-0.00258384,-0.00083247,-0.00003608,-0.00074450,-0.00015554
 ,-0.00023210,0.00003067,0.00030929,-0.00001714,-0.00243986,-0.00057735
 ,-0.00002523,0.00040078,0.00025430,-0.00006913,-0.00033638,-0.00008276
 ,0.00010081,0.00010104,0.00001332,-0.00005345,0.00000810,0.00003273,-0
 .00003888,-0.00001092,-0.00001776,0.00000186,-0.00001012,0.00000366,0.
 00001016,-0.00000635,0.00000271,0.00000018,-0.00000069,-0.00001359,0.0
 0001082,-0.00000070,-0.00000883,-0.00003466,0.00000284,0.00000187,-0.0
 0001247,-0.00000181,-0.00000820,-0.00000841,-0.00000214,0.00000594,-0.
 00000812,-0.00000109,-0.00000074,0.01681797,0.01901972,0.04707940,0.02
 067092,-0.12050440,0.01173183,0.00414897,-0.01533880,-0.00030315,0.000
 38815,0.00311124,0.00208698,0.00008186,-0.00110251,-0.00743441,0.00096
 040,0.00009222,0.02406807,0.00893046,-0.03780666,-0.00025250,-0.000833
 73,0.00117404,0.00017634,-0.00015547,-0.00004194,0.00109500,0.00031079
 ,-0.00136418,0.00010560,-0.00057599,0.00015746,0.00011290,0.00025249,-
 0.00073783,0.00032654,-0.00008197,0.00003691,-0.00047452,0.00001257,0.
 00004057,0.00025112,0.00003308,-0.00013869,0.00018281,-0.00001753,0.00
 006890,-0.00000874,0.00000374,-0.00002673,-0.00004773,0.00000262,-0.00
 001850,-0.00000081,-0.00001359,0.00006039,-0.00005078,-0.00000891,0.00
 003888,0.00016295,0.00000208,-0.00000553,0.00005864,-0.00000814,0.0000
 3502,0.00003950,0.00000599,-0.00002879,0.00003815,-0.00000069,0.000002
 24,-0.07894319,-0.03410809,0.17229667\\-0.00004860,0.00002540,-0.00011
 372,0.00010261,0.00000295,-0.00003093,-0.00007535,-0.00002090,0.000122
 86,-0.00003399,0.00000609,-0.00005532,0.00005583,0.00000927,-0.0000438
 3,-0.00001131,-0.00001814,0.00010266,-0.00001580,-0.00000230,0.0000010
 4,0.00000481,-0.00000228,0.00000730,-0.00000280,-0.00000054,0.00000503
 ,0.00000389,-0.00000119,-0.00000541,0.00005452,0.00001424,-0.00002540,
 0.00001387,-0.00000219,-0.00002192,0.00004156,-0.00000749,0.00003117,-
 0.00005090,0.00000549,-0.00001006,-0.00005621,0.00000454,-0.00000288,0
 .00000847,-0.00000014,-0.00000686,0.00000678,-0.00000091,-0.00000209,0
 .00000952,-0.00000236,0.00000529,0.00000705,-0.00000197,0.00000288,0.0
 0000333,0.00000011,0.00000081,-0.00000091,-0.00000037,-0.00000005,-0.0
 0000044,-0.00000014,-0.00000024,0.00000060,0.00000079,-0.00000078,-0.0
 0001652,-0.00000797,0.00004047\\\@


 Human beings, who are almost unique in having the
 ability to learn from the experience of others, are
 also remarkable for their apparent disinclination to do so.
                               -- Douglas Adams,
                                Last Chance to See
 Job cpu time:       0 days  1 hours 40 minutes 25.8 seconds.
 Elapsed time:       0 days  0 hours  3 minutes 20.9 seconds.
 File lengths (MBytes):  RWF=    243 Int=      0 D2E=      0 Chk=      9 Scr=      1
 Normal termination of Gaussian 16 at Sat Sep 16 13:32:03 2023.
