 Entering Gaussian System, Link 0=g16
 Input=/home/ubuntu/Downloads/molecule_53.gjf
 Output=/home/ubuntu/Downloads/molecule_53.log
 Initial command:
 /home/ubuntu/g16/l1.exe "/home/ubuntu/Scratch/Gau-323621.inp" -scrdir="/home/ubuntu/Scratch/"
 Entering Link 1 = /home/ubuntu/g16/l1.exe PID=    323625.
  
 Copyright (c) 1988-2017, Gaussian, Inc.  All Rights Reserved.
  
 This is part of the Gaussian(R) 16 program.  It is based on
 the Gaussian(R) 09 system (copyright 2009, Gaussian, Inc.),
 the Gaussian(R) 03 system (copyright 2003, Gaussian, Inc.),
 the Gaussian(R) 98 system (copyright 1998, Gaussian, Inc.),
 the Gaussian(R) 94 system (copyright 1995, Gaussian, Inc.),
 the Gaussian 92(TM) system (copyright 1992, Gaussian, Inc.),
 the Gaussian 90(TM) system (copyright 1990, Gaussian, Inc.),
 the Gaussian 88(TM) system (copyright 1988, Gaussian, Inc.),
 the Gaussian 86(TM) system (copyright 1986, Carnegie Mellon
 University), and the Gaussian 82(TM) system (copyright 1983,
 Carnegie Mellon University). Gaussian is a federally registered
 trademark of Gaussian, Inc.
  
 This software contains proprietary and confidential information,
 including trade secrets, belonging to Gaussian, Inc.
  
 This software is provided under written license and may be
 used, copied, transmitted, or stored only in accord with that
 written license.
  
 The following legend is applicable only to US Government
 contracts under FAR:
  
                    RESTRICTED RIGHTS LEGEND
  
 Use, reproduction and disclosure by the US Government is
 subject to restrictions as set forth in subparagraphs (a)
 and (c) of the Commercial Computer Software - Restricted
 Rights clause in FAR 52.227-19.
  
 Gaussian, Inc.
 340 Quinnipiac St., Bldg. 40, Wallingford CT 06492
  
  
 ---------------------------------------------------------------
 Warning -- This program may not be used in any manner that
 competes with the business of Gaussian, Inc. or will provide
 assistance to any competitor of Gaussian, Inc.  The licensee
 of this program is prohibited from giving any competitor of
 Gaussian, Inc. access to this program.  By using this program,
 the user acknowledges that Gaussian, Inc. is engaged in the
 business of creating and licensing software in the field of
 computational chemistry and represents and warrants to the
 licensee that it is not a competitor of Gaussian, Inc. and that
 it will not use this program in any manner prohibited above.
 ---------------------------------------------------------------
  

 Cite this work as:
 Gaussian 16, Revision B.01,
 M. J. Frisch, G. W. Trucks, H. B. Schlegel, G. E. Scuseria, 
 M. A. Robb, J. R. Cheeseman, G. Scalmani, V. Barone, 
 G. A. Petersson, H. Nakatsuji, X. Li, M. Caricato, A. V. Marenich, 
 J. Bloino, B. G. Janesko, R. Gomperts, B. Mennucci, H. P. Hratchian, 
 J. V. Ortiz, A. F. Izmaylov, J. L. Sonnenberg, D. Williams-Young, 
 F. Ding, F. Lipparini, F. Egidi, J. Goings, B. Peng, A. Petrone, 
 T. Henderson, D. Ranasinghe, V. G. Zakrzewski, J. Gao, N. Rega, 
 G. Zheng, W. Liang, M. Hada, M. Ehara, K. Toyota, R. Fukuda, 
 J. Hasegawa, M. Ishida, T. Nakajima, Y. Honda, O. Kitao, H. Nakai, 
 T. Vreven, K. Throssell, J. A. Montgomery, Jr., J. E. Peralta, 
 F. Ogliaro, M. J. Bearpark, J. J. Heyd, E. N. Brothers, K. N. Kudin, 
 V. N. Staroverov, T. A. Keith, R. Kobayashi, J. Normand, 
 K. Raghavachari, A. P. Rendell, J. C. Burant, S. S. Iyengar, 
 J. Tomasi, M. Cossi, J. M. Millam, M. Klene, C. Adamo, R. Cammi, 
 J. W. Ochterski, R. L. Martin, K. Morokuma, O. Farkas, 
 J. B. Foresman, and D. J. Fox, Gaussian, Inc., Wallingford CT, 2016.
 
 ******************************************
 Gaussian 16:  EM64L-G16RevB.01 20-Dec-2017
                22-Sep-2023 
 ******************************************
 %nprocshared=30
 Will use up to   30 processors via shared memory.
 %mem=60GB
 %chk=molecule_53.chk
 ----------------------------------------------------------------------
 # opt=cartesian freq b3lyp/6-31+g(d) nosymm empiricaldispersion=gd3 vo
 lume
 ----------------------------------------------------------------------
 1/10=7,18=10,26=3,38=1/1,3;
 2/12=2,15=1,17=6,18=5,29=2,40=1/2;
 3/5=1,6=6,7=11,11=2,25=1,30=1,71=1,74=-5,124=31/1,2,3;
 4//1;
 5/5=2,38=5/2;
 6/7=2,8=2,9=2,10=2,28=1,44=1/1,4;
 7/7=1,29=1,30=1/1,2,3,16;
 1/10=7,18=10,26=3/3(2);
 2/15=1,29=1/2;
 99/12=1/99;
 2/15=1,29=1/2;
 3/5=1,6=6,7=11,11=2,25=1,30=1,71=1,74=-5,124=31/1,2,3;
 4/5=5,16=3,69=1/1;
 5/5=2,38=5/2;
 7/7=1,30=1/1,2,3,16;
 1/18=10,26=3/3(-5);
 2/15=1,29=1/2;
 6/7=2,8=2,9=2,10=2,19=2,28=1,44=1/1,4;
 99/9=1,12=1/99;
 -------------------
 Title Card Required
 -------------------
 Symbolic Z-matrix:
 Charge =  0 Multiplicity = 1
 C                    -1.00744  -0.55572  -0.3068 
 C                     0.20172  -0.41226  -0.25093 
 C                     1.55623  -0.25266  -0.19494 
 C                     2.76814  -0.11073  -0.1458 
 C                     4.18107   0.05525  -0.0884 
 C                     4.77503   1.27807  -0.46681 
 C                     5.00961  -1.00062   0.34741 
 C                     6.15889   1.43556  -0.40914 
 H                     4.14087   2.09316  -0.80301 
 C                     6.39247  -0.83338   0.40146 
 H                     4.55643  -1.94342   0.63944 
 C                     6.97228   0.38284   0.02431 
 H                     6.60429   2.38244  -0.70337 
 H                     7.01988  -1.6544    0.73886 
 H                     8.05086   0.5094    0.06782 
 C                    -2.45837  -0.71477  -0.33676 
 C                    -3.14068  -0.26913   0.9788 
 H                    -2.70472  -1.76912  -0.53312 
 H                    -2.86253  -0.14277  -1.1825 
 C                    -4.65661  -0.51802   0.99323 
 H                    -2.67285  -0.80852   1.81174 
 H                    -2.93539   0.79741   1.14117 
 H                    -5.034    -0.28238   1.99865 
 H                    -4.85211  -1.59025   0.83824 
 C                    -5.45161   0.29795  -0.03592 
 C                    -6.96934   0.10853   0.08834 
 H                    -5.14465   0.02409  -1.05558 
 H                    -5.20792   1.36527   0.08182 
 C                    -7.76038   0.91804  -0.94578 
 H                    -7.20969  -0.95953  -0.01799 
 H                    -7.28726   0.39457   1.10158 
 H                    -8.84073   0.7668   -0.83363 
 H                    -7.56027   1.99242  -0.84211 
 H                    -7.48628   0.62722  -1.96823 
 

 GradGradGradGradGradGradGradGradGradGradGradGradGradGradGradGradGradGrad
 Berny optimization.
 Initialization pass.
 No Z-matrix variables, so optimization will use Cartesian coordinates.
 Trust Radius=3.00D-01 FncErr=1.00D-07 GrdErr=1.00D-06 EigMax=2.50D+02 EigMin=1.00D-04
 Number of steps in this run=    112 maximum allowed number of steps=    204.
 GradGradGradGradGradGradGradGradGradGradGradGradGradGradGradGradGradGrad

 ---------------------------------------------------------------------------------------------------
                            Z-MATRIX (ANGSTROMS AND DEGREES)
   CD    Cent   Atom    N1       Length/X        N2       Alpha/Y        N3        Beta/Z          J
 ---------------------------------------------------------------------------------------------------
      1      1  C        0  -1.007438         -0.555719         -0.306799
      2      2  C        0   0.201722         -0.412261         -0.250931
      3      3  C        0   1.556225         -0.252659         -0.194940
      4      4  C        0   2.768136         -0.110726         -0.145803
      5      5  C        0   4.181074          0.055249         -0.088404
      6      6  C        0   4.775034          1.278074         -0.466813
      7      7  C        0   5.009614         -1.000623          0.347411
      8      8  C        0   6.158887          1.435558         -0.409143
      9      9  H        0   4.140870          2.093156         -0.803011
     10     10  C        0   6.392468         -0.833383          0.401458
     11     11  H        0   4.556427         -1.943418          0.639436
     12     12  C        0   6.972276          0.382844          0.024313
     13     13  H        0   6.604294          2.382435         -0.703372
     14     14  H        0   7.019880         -1.654399          0.738859
     15     15  H        0   8.050860          0.509404          0.067824
     16     16  C        0  -2.458370         -0.714772         -0.336758
     17     17  C        0  -3.140680         -0.269133          0.978800
     18     18  H        0  -2.704717         -1.769117         -0.533123
     19     19  H        0  -2.862532         -0.142767         -1.182498
     20     20  C        0  -4.656607         -0.518019          0.993227
     21     21  H        0  -2.672854         -0.808519          1.811735
     22     22  H        0  -2.935388          0.797411          1.141173
     23     23  H        0  -5.033998         -0.282381          1.998653
     24     24  H        0  -4.852113         -1.590250          0.838240
     25     25  C        0  -5.451614          0.297953         -0.035920
     26     26  C        0  -6.969338          0.108530          0.088335
     27     27  H        0  -5.144654          0.024091         -1.055580
     28     28  H        0  -5.207920          1.365266          0.081818
     29     29  C        0  -7.760375          0.918042         -0.945777
     30     30  H        0  -7.209692         -0.959529         -0.017991
     31     31  H        0  -7.287264          0.394566          1.101577
     32     32  H        0  -8.840731          0.766801         -0.833634
     33     33  H        0  -7.560272          1.992417         -0.842108
     34     34  H        0  -7.486278          0.627221         -1.968230
 ---------------------------------------------------------------------------------------------------
                         Z-Matrix orientation:                         
 ---------------------------------------------------------------------
 Center     Atomic      Atomic             Coordinates (Angstroms)
 Number     Number       Type             X           Y           Z
 ---------------------------------------------------------------------
      1          6           0       -1.007438   -0.555719   -0.306799
      2          6           0        0.201722   -0.412261   -0.250931
      3          6           0        1.556225   -0.252659   -0.194940
      4          6           0        2.768136   -0.110726   -0.145803
      5          6           0        4.181074    0.055249   -0.088404
      6          6           0        4.775034    1.278074   -0.466813
      7          6           0        5.009614   -1.000623    0.347411
      8          6           0        6.158887    1.435558   -0.409143
      9          1           0        4.140870    2.093156   -0.803011
     10          6           0        6.392468   -0.833383    0.401458
     11          1           0        4.556427   -1.943418    0.639436
     12          6           0        6.972276    0.382844    0.024313
     13          1           0        6.604294    2.382435   -0.703372
     14          1           0        7.019880   -1.654399    0.738859
     15          1           0        8.050860    0.509404    0.067824
     16          6           0       -2.458370   -0.714772   -0.336758
     17          6           0       -3.140680   -0.269133    0.978800
     18          1           0       -2.704717   -1.769117   -0.533123
     19          1           0       -2.862532   -0.142767   -1.182498
     20          6           0       -4.656607   -0.518019    0.993227
     21          1           0       -2.672854   -0.808519    1.811735
     22          1           0       -2.935388    0.797411    1.141173
     23          1           0       -5.033998   -0.282381    1.998653
     24          1           0       -4.852113   -1.590250    0.838240
     25          6           0       -5.451614    0.297953   -0.035920
     26          6           0       -6.969338    0.108530    0.088335
     27          1           0       -5.144654    0.024091   -1.055580
     28          1           0       -5.207920    1.365266    0.081818
     29          6           0       -7.760375    0.918042   -0.945777
     30          1           0       -7.209692   -0.959529   -0.017991
     31          1           0       -7.287264    0.394566    1.101577
     32          1           0       -8.840731    0.766801   -0.833634
     33          1           0       -7.560272    1.992417   -0.842108
     34          1           0       -7.486278    0.627221   -1.968230
 ---------------------------------------------------------------------
                    Distance matrix (angstroms):
                    1          2          3          4          5
     1  C    0.000000
     2  C    1.218921   0.000000
     3  C    2.583936   1.365022   0.000000
     4  C    3.805115   2.586205   1.221183   0.000000
     5  C    5.228923   4.010015   2.644993   1.423810   0.000000
     6  C    6.068392   4.880473   3.574603   2.461596   1.411128
     7  C    6.068842   4.880575   3.574841   2.461585   1.411127
     8  C    7.438540   6.239173   4.907184   3.735978   2.433078
     9  H    5.811010   4.700935   3.543020   2.678324   2.159941
    10  C    7.438907   6.239254   4.907360   3.735975   2.433083
    11  H    5.811855   4.701133   3.543453   2.678310   2.159933
    12  C    8.041540   6.822635   5.457613   4.236431   2.812620
    13  H    8.168750   7.000568   5.717099   4.608996   3.415549
    14  H    8.169353   7.000705   5.717375   4.609000   3.415564
    15  H    9.128395   7.909490   6.544469   5.323286   3.899475
    16  C    1.459931   2.678613   4.043592   5.264760   6.688560
    17  C    2.507113   3.564320   4.841369   6.016970   7.406229
    18  H    2.098646   3.219950   4.535376   5.731701   7.137241
    19  H    2.092547   3.214047   4.529102   5.725398   7.130823
    20  C    3.874006   5.016221   6.330990   7.522638   8.922061
    21  H    2.706604   3.560168   4.713898   5.824366   7.164702
    22  H    2.764882   3.639055   4.802336   5.917027   7.259938
    23  H    4.647904   5.700023   6.945774   8.093297   9.454489
    24  H    4.142812   5.302377   6.627474   7.824674   9.228478
    25  C    4.533523   5.701828   7.031235   8.230637   9.635888
    26  C    6.011789   7.197946   8.537911   9.742756  11.151940
    27  H    4.244221   5.424168   6.761588   7.966060   9.375799
    28  H    4.635219   5.703907   6.960455   8.114668   9.481473
    29  C    6.941356   8.102315   9.419837  10.608858  12.003237
    30  H    6.222092   7.435242   8.796151  10.014682  11.436096
    31  H    6.505596   7.652788   8.961426  10.145065  11.534902
    32  H    7.961601   9.137597  10.466323  11.662288  13.062507
    33  H    7.051183   8.147424   9.411148  10.563336  11.923921
    34  H    6.792280   7.945752   9.256652  10.441207  11.831652
                    6          7          8          9         10
     6  C    0.000000
     7  C    2.431141   0.000000
     8  C    1.393979   2.797889   0.000000
     9  H    1.086072   3.413159   2.158694   0.000000
    10  C    2.797899   1.393978   2.420687   3.883950   0.000000
    11  H    3.413149   1.086057   3.883925   4.306654   2.158670
    12  C    2.422914   2.422894   1.399176   3.409764   1.399151
    13  H    2.149829   3.884872   1.086984   2.482351   3.406905
    14  H    3.884891   2.149843   3.406912   4.970939   1.086992
    15  H    3.407011   3.406982   2.159820   4.307510   2.159781
    16  C    7.504031   7.504704   8.881795   7.186920   8.882363
    17  C    8.194033   8.207376   9.555852   7.859786   9.567268
    18  H    8.076908   7.802360   9.425964   7.864608   9.192813
    19  H    7.801500   8.065186   9.191038   7.361454   9.414929
    20  C    9.711515   9.699784  11.079622   9.350952  11.069404
    21  H    8.063293   7.823136   9.379117   7.853881   9.174397
    22  H    7.890961   8.184500   9.247516   7.451995   9.498187
    23  H   10.233799  10.203755  11.577110   9.882849  11.550704
    24  H   10.129778   9.891523  11.487106   9.855705  11.278485
    25  C   10.282540  10.548485  11.672068   9.789123  11.906028
    26  C   11.815511  12.032981  13.204498  11.321217  13.398623
    27  H   10.015954  10.301824  11.409652   9.516605  11.660335
    28  H    9.998398  10.491233  11.377622   9.418738  11.811233
    29  C   12.549721  12.977913  13.939213  11.959971  14.324297
    30  H   12.200081  12.224837  13.587065  11.780085  13.609210
    31  H   12.195879  12.398731  13.570737  11.709608  13.752567
    32  H   13.630298  14.012520  15.020518  13.049219  15.366730
    33  H   12.361671  12.975950  13.737280  11.701641  14.290226
    34  H   12.370030  12.812470  13.757714  11.776981  14.155154
                   11         12         13         14         15
    11  H    0.000000
    12  C    3.409721   0.000000
    13  H    4.970905   2.159468   0.000000
    14  H    2.482341   2.159445   4.306828   0.000000
    15  H    4.307451   1.086855   2.489084   2.489026   0.000000
    16  C    7.188178   9.501169   9.584309   9.585253  10.588022
    17  C    7.884406  10.178801  10.238410  10.257364  11.255513
    18  H    7.357274   9.929041  10.194217   9.808103  11.010687
    19  H    7.848741   9.922505   9.809536  10.180310  11.004125
    20  C    9.329358  11.703900  11.751552  11.734411  12.782476
    21  H    7.411126   9.881435  10.127854   9.788548  10.944231
    22  H    7.993196   9.979030   9.844805  10.260633  11.042313
    23  H    9.827653  12.185695  12.241406  12.196946  13.250228
    24  H    9.417265  12.015480  12.223259  11.872582  13.095373
    25  C   10.278168  12.424326  12.252978  12.647139  13.504528
    26  C   11.719960  13.944459  13.785533  14.114862  15.025561
    27  H   10.042666  12.170245  11.988478  12.410207  13.252138
    28  H   10.324766  12.219887  11.881900  12.612263  13.286382
    29  C   12.743801  14.774252  14.441154  15.096734  15.848960
    30  H   11.825473  14.245419  14.229008  14.266618  15.331327
    31  H   12.081091  14.300179  14.148669  14.457669  15.373350
    32  H   13.747693  15.840918  15.529843  16.121226  16.917586
    33  H   12.825762  14.647060  14.170614  15.112232  15.707793
    34  H   12.587091  14.597251  14.255696  14.931937  15.670420
                   16         17         18         19         20
    16  C    0.000000
    17  C    1.547525   0.000000
    18  H    1.100404   2.173920   0.000000
    19  H    1.098095   2.182783   1.758297   0.000000
    20  C    2.576784   1.536290   2.775764   2.844872   0.000000
    21  H    2.161207   1.097078   2.534191   3.073212   2.165553
    22  H    2.167608   1.098192   3.073035   2.507726   2.171368
    23  H    3.503565   2.150565   3.747776   3.854151   1.099468
    24  H    2.806615   2.166590   2.554200   3.183869   1.100874
    25  C    3.174213   2.586824   3.473533   2.865697   1.535249
    26  C    4.605145   3.948947   4.700932   4.306277   2.561273
    27  H    2.877281   2.870643   3.072759   2.291731   2.174783
    28  H    3.473009   2.783760   4.058144   3.061618   2.163648
    29  C    5.581061   5.143439   5.740277   5.016993   3.931334
    30  H    4.768289   4.245833   4.606039   4.573945   2.781319
    31  H    5.159230   4.201158   5.324801   5.008391   2.786558
    32  H    6.570881   6.070310   6.646191   6.057052   4.742898
    33  H    5.797728   5.288015   6.149880   5.171425   4.254646
    34  H    5.453669   5.326599   5.537625   4.752818   4.253098
                   21         22         23         24         25
    21  H    0.000000
    22  H    1.759997   0.000000
    23  H    2.426265   2.511053   0.000000
    24  H    2.511566   3.076772   1.757886   0.000000
    25  C    3.515625   2.822481   2.156543   2.165379   0.000000
    26  C    4.719201   4.225610   2.747302   2.816177   1.534538
    27  H    3.876149   3.210078   3.071565   2.505640   1.099514
    28  H    3.760919   2.570816   2.533623   3.071457   1.101093
    29  C    6.038854   5.258366   4.188534   4.234647   2.557876
    30  H    4.894242   4.764470   3.042865   2.586333   2.161578
    31  H    4.821257   4.370661   2.517977   3.152586   2.161676
    32  H    6.893643   6.226867   4.859408   4.925437   3.513158
    33  H    6.226956   5.172136   4.430202   4.795122   2.822691
    34  H    6.286377   5.514341   4.751549   4.442103   2.825261
                   26         27         28         29         30
    26  C    0.000000
    27  H    2.155259   0.000000
    28  H    2.163798   1.759667   0.000000
    29  C    1.533113   2.766442   2.787649   0.000000
    30  H    1.099921   2.511669   3.069483   2.165482   0.000000
    31  H    1.099797   3.062900   2.511143   2.165530   1.758699
    32  H    2.187569   3.776488   3.793880   1.096640   2.511131
    33  H    2.182649   3.123314   2.603943   1.097757   3.084811
    34  H    2.183054   2.584550   3.152510   1.097778   2.529369
                   31         32         33         34
    31  H    0.000000
    32  H    2.509355   0.000000
    33  H    2.530923   1.772507   0.000000
    34  H    3.085036   1.772381   1.771267   0.000000
 Symmetry turned off by external request.
 Stoichiometry    C16H18
 Framework group  C1[X(C16H18)]
 Deg. of freedom    96
 Full point group                 C1      NOp   1
 Rotational constants (GHZ):           2.6107889           0.0966957           0.0947289
 Standard basis: 6-31+G(d) (6D, 7F)
   340 basis functions,   584 primitive gaussians,   340 cartesian basis functions
    57 alpha electrons       57 beta electrons
       nuclear repulsion energy       845.9458141547 Hartrees.
 NAtoms=   34 NActive=   34 NUniq=   34 SFac= 1.00D+00 NAtFMM=   60 NAOKFM=F Big=F
 Integral buffers will be    131072 words long.
 Raffenetti 2 integral format.
 Two-electron integral symmetry is turned off.
 Nuclear repulsion after empirical dispersion term =      845.9229044390 Hartrees.
 One-electron integrals computed using PRISM.
 NBasis=   340 RedAO= T EigKep=  1.48D-06  NBF=   340
 NBsUse=   336 1.00D-06 EigRej=  1.54D-07 NBFU=   336
 ExpMin= 4.38D-02 ExpMax= 3.05D+03 ExpMxC= 4.57D+02 IAcc=3 IRadAn=         5 AccDes= 0.00D+00
 Harris functional with IExCor=  402 and IRadAn=       5 diagonalized for initial guess.
 HarFok:  IExCor=  402 AccDes= 0.00D+00 IRadAn=         5 IDoV= 1 UseB2=F ITyADJ=14
 ICtDFT=  3500011 ScaDFX=  1.000000  1.000000  1.000000  1.000000
 FoFCou: FMM=F IPFlag=           0 FMFlag=      100000 FMFlg1=           0
         NFxFlg=           0 DoJE=T BraDBF=F KetDBF=T FulRan=T
         wScrn=  0.000000 ICntrl=       500 IOpCl=  0 I1Cent=   200000004 NGrid=           0
         NMat0=    1 NMatS0=      1 NMatT0=    0 NMatD0=    1 NMtDS0=    0 NMtDT0=    0
 Symmetry not used in FoFCou.
 Requested convergence on RMS density matrix=1.00D-08 within 128 cycles.
 Requested convergence on MAX density matrix=1.00D-06.
 Requested convergence on             energy=1.00D-06.
 No special actions if energy rises.
 SCF Done:  E(RB3LYP) =  -620.491621838     A.U. after   15 cycles
            NFock= 15  Conv=0.80D-08     -V/T= 2.0102

 **********************************************************************

            Population analysis using the SCF Density.

 **********************************************************************

 Alpha  occ. eigenvalues --  -10.22673 -10.21888 -10.20880 -10.20667 -10.20666
 Alpha  occ. eigenvalues --  -10.20620 -10.20545 -10.20457 -10.20441 -10.20376
 Alpha  occ. eigenvalues --  -10.20308 -10.19715 -10.19108 -10.18823 -10.18799
 Alpha  occ. eigenvalues --  -10.18031  -0.87092  -0.82630  -0.80335  -0.79149
 Alpha  occ. eigenvalues --   -0.76835  -0.75841  -0.74009  -0.70978  -0.66704
 Alpha  occ. eigenvalues --   -0.63664  -0.61726  -0.60126  -0.58876  -0.57860
 Alpha  occ. eigenvalues --   -0.54077  -0.49338  -0.48836  -0.47796  -0.46612
 Alpha  occ. eigenvalues --   -0.46469  -0.44451  -0.43336  -0.43146  -0.42584
 Alpha  occ. eigenvalues --   -0.40823  -0.39172  -0.38884  -0.38279  -0.36917
 Alpha  occ. eigenvalues --   -0.36155  -0.35993  -0.34899  -0.34078  -0.33567
 Alpha  occ. eigenvalues --   -0.33221  -0.32968  -0.32285  -0.28606  -0.26493
 Alpha  occ. eigenvalues --   -0.24204  -0.22271
 Alpha virt. eigenvalues --   -0.05426  -0.01994  -0.01501   0.00376   0.00625
 Alpha virt. eigenvalues --    0.01435   0.01694   0.02344   0.02391   0.02532
 Alpha virt. eigenvalues --    0.03054   0.04011   0.04466   0.04951   0.05147
 Alpha virt. eigenvalues --    0.05631   0.05746   0.06033   0.06513   0.07086
 Alpha virt. eigenvalues --    0.07256   0.08201   0.08248   0.08834   0.09160
 Alpha virt. eigenvalues --    0.09268   0.09525   0.10200   0.10752   0.11175
 Alpha virt. eigenvalues --    0.11834   0.12466   0.12872   0.13028   0.13290
 Alpha virt. eigenvalues --    0.14161   0.14282   0.14403   0.14752   0.15172
 Alpha virt. eigenvalues --    0.15250   0.15556   0.16287   0.16709   0.17189
 Alpha virt. eigenvalues --    0.17427   0.17762   0.17872   0.18588   0.19106
 Alpha virt. eigenvalues --    0.19245   0.19648   0.20372   0.20698   0.20900
 Alpha virt. eigenvalues --    0.21023   0.21367   0.21594   0.21916   0.22239
 Alpha virt. eigenvalues --    0.22664   0.22917   0.23159   0.23735   0.23956
 Alpha virt. eigenvalues --    0.24459   0.25106   0.25916   0.26647   0.26742
 Alpha virt. eigenvalues --    0.27053   0.27681   0.28193   0.28525   0.28852
 Alpha virt. eigenvalues --    0.29177   0.29368   0.29647   0.30492   0.31189
 Alpha virt. eigenvalues --    0.31340   0.32315   0.33129   0.33521   0.34350
 Alpha virt. eigenvalues --    0.34749   0.35675   0.35936   0.36903   0.38192
 Alpha virt. eigenvalues --    0.38373   0.40621   0.41517   0.42617   0.44994
 Alpha virt. eigenvalues --    0.46697   0.50545   0.56130   0.57360   0.59413
 Alpha virt. eigenvalues --    0.60849   0.63710   0.63792   0.64525   0.65681
 Alpha virt. eigenvalues --    0.66143   0.66469   0.68058   0.68962   0.69380
 Alpha virt. eigenvalues --    0.69993   0.70250   0.70837   0.71108   0.71275
 Alpha virt. eigenvalues --    0.71590   0.71998   0.73097   0.73391   0.73717
 Alpha virt. eigenvalues --    0.74083   0.75383   0.75692   0.77262   0.77851
 Alpha virt. eigenvalues --    0.79689   0.81069   0.81402   0.81910   0.82996
 Alpha virt. eigenvalues --    0.84277   0.85119   0.85957   0.87981   0.88340
 Alpha virt. eigenvalues --    0.90239   0.90936   0.91418   0.92457   0.93392
 Alpha virt. eigenvalues --    0.94353   0.95402   0.96464   0.97487   0.98022
 Alpha virt. eigenvalues --    0.98972   1.00164   1.00568   1.00992   1.01767
 Alpha virt. eigenvalues --    1.02603   1.03542   1.04773   1.08531   1.09566
 Alpha virt. eigenvalues --    1.11005   1.11498   1.12183   1.12308   1.12849
 Alpha virt. eigenvalues --    1.13987   1.14805   1.15571   1.17820   1.18604
 Alpha virt. eigenvalues --    1.18842   1.20639   1.22254   1.22855   1.23688
 Alpha virt. eigenvalues --    1.29275   1.29775   1.31785   1.32096   1.38837
 Alpha virt. eigenvalues --    1.40685   1.42375   1.43126   1.43915   1.44838
 Alpha virt. eigenvalues --    1.46444   1.47087   1.47828   1.48543   1.49763
 Alpha virt. eigenvalues --    1.50283   1.51528   1.53512   1.53849   1.58765
 Alpha virt. eigenvalues --    1.60022   1.61836   1.62439   1.69461   1.70392
 Alpha virt. eigenvalues --    1.75675   1.78696   1.80624   1.83456   1.83984
 Alpha virt. eigenvalues --    1.86006   1.86767   1.87700   1.89845   1.90252
 Alpha virt. eigenvalues --    1.90839   1.92060   1.94604   1.95258   1.97784
 Alpha virt. eigenvalues --    1.97918   1.98665   2.00478   2.00747   2.01770
 Alpha virt. eigenvalues --    2.02826   2.03951   2.04517   2.05100   2.09806
 Alpha virt. eigenvalues --    2.10856   2.11421   2.14277   2.16758   2.17971
 Alpha virt. eigenvalues --    2.18135   2.20038   2.23704   2.24953   2.28520
 Alpha virt. eigenvalues --    2.29169   2.29430   2.30123   2.32920   2.34739
 Alpha virt. eigenvalues --    2.36243   2.41362   2.42870   2.43426   2.47532
 Alpha virt. eigenvalues --    2.48459   2.51706   2.56484   2.60104   2.61595
 Alpha virt. eigenvalues --    2.62934   2.62993   2.63311   2.68876   2.72660
 Alpha virt. eigenvalues --    2.74306   2.74354   2.78982   2.79722   2.80655
 Alpha virt. eigenvalues --    2.84321   2.99252   2.99325   3.16898   3.27193
 Alpha virt. eigenvalues --    3.32112   3.44829   3.71961   4.15737   4.19575
 Alpha virt. eigenvalues --    4.22872   4.24076   4.24447   4.28038   4.32405
 Alpha virt. eigenvalues --    4.37250   4.40344   4.41767   4.47360   4.56433
 Alpha virt. eigenvalues --    4.59637   4.70901   4.83274   5.55733
          Condensed to atoms (all electrons):
               1          2          3          4          5          6
     1  C   15.713429   0.499302  -0.004504  -0.204486  -0.650443   0.013535
     2  C    0.499302   8.804801  -3.256711  -0.272546  -1.399298  -0.049053
     3  C   -0.004504  -3.256711  13.756940  -2.300068   1.869257  -0.567842
     4  C   -0.204486  -0.272546  -2.300068  13.358655  -5.577652   1.541194
     5  C   -0.650443  -1.399298   1.869257  -5.577652  17.388451  -3.816335
     6  C    0.013535  -0.049053  -0.567842   1.541194  -3.816335  31.438417
     7  C    0.094851   0.360141  -0.538815   3.217305  -6.124120 -18.527513
     8  C   -0.031275  -0.016759   0.089212  -0.866997   1.758976  -9.117173
     9  H    0.001334   0.002124   0.001118   0.032343  -0.037421   0.326966
    10  C   -0.052646  -0.126757   0.077876  -1.440828   2.536582   5.789576
    11  H    0.001458   0.003184  -0.000502   0.039677  -0.047778   0.024864
    12  C    0.012748  -0.010525   0.109171  -0.191124   0.177761  -0.522009
    13  H   -0.000004  -0.000101  -0.000085  -0.006735   0.001954  -0.035857
    14  H   -0.000005  -0.000100  -0.000047  -0.007036   0.003026   0.002652
    15  H    0.000007   0.000008   0.000594   0.000913   0.000225   0.012156
    16  C   -8.876399   0.724297  -4.588109   0.049551  -0.624280  -0.004683
    17  C   -0.234624   0.059184  -0.047756   0.005806  -0.000269  -0.000493
    18  H   -0.270033  -0.000125  -0.030005  -0.000113  -0.000655  -0.000007
    19  H   -0.260669   0.003862  -0.029367   0.000177  -0.000616   0.000013
    20  C    0.706898  -0.050565   0.097860  -0.004345   0.003639   0.000070
    21  H    0.002040  -0.007077  -0.000274  -0.000233  -0.000007   0.000017
    22  H   -0.004253  -0.014276  -0.000640  -0.000581  -0.000048  -0.000012
    23  H   -0.009520  -0.001287  -0.000193  -0.000020  -0.000002   0.000000
    24  H    0.013066   0.001544   0.000225   0.000029   0.000001   0.000000
    25  C   -0.350508  -0.009977  -0.028484  -0.000140  -0.000869   0.000059
    26  C    0.061770   0.007395   0.002456   0.000445   0.000051   0.000005
    27  H    0.005844   0.002697   0.000018   0.000037   0.000001   0.000000
    28  H    0.023955   0.003137   0.000524   0.000051   0.000003   0.000000
    29  C    0.006763  -0.002422   0.000444  -0.000053   0.000004   0.000000
    30  H    0.003945   0.000114   0.000021   0.000001   0.000000   0.000000
    31  H    0.001434   0.000052   0.000008   0.000000   0.000000   0.000000
    32  H   -0.000080  -0.000004   0.000000   0.000000   0.000000   0.000000
    33  H    0.000733   0.000047   0.000003   0.000000   0.000000   0.000000
    34  H   -0.000308  -0.000058   0.000000   0.000000   0.000000   0.000000
               7          8          9         10         11         12
     1  C    0.094851  -0.031275   0.001334  -0.052646   0.001458   0.012748
     2  C    0.360141  -0.016759   0.002124  -0.126757   0.003184  -0.010525
     3  C   -0.538815   0.089212   0.001118   0.077876  -0.000502   0.109171
     4  C    3.217305  -0.866997   0.032343  -1.440828   0.039677  -0.191124
     5  C   -6.124120   1.758976  -0.037421   2.536582  -0.047778   0.177761
     6  C  -18.527513  -9.117173   0.326966   5.789576   0.024864  -0.522009
     7  C   32.253162   5.571416   0.026994  -9.713824   0.335522  -0.491367
     8  C    5.571416   9.758395  -0.071552  -2.038508  -0.008508   0.638363
     9  H    0.026994  -0.071552   0.525740  -0.008750  -0.000142   0.009741
    10  C   -9.713824  -2.038508  -0.008750  10.098468  -0.074984   0.633943
    11  H    0.335522  -0.008508  -0.000142  -0.074984   0.525634   0.009824
    12  C   -0.491367   0.638363   0.009741   0.633943   0.009824   5.478431
    13  H    0.001848   0.303203  -0.004534   0.003451   0.000016   0.025081
    14  H   -0.038713   0.003240   0.000016   0.304674  -0.004530   0.025085
    15  H    0.014983  -0.008578  -0.000140  -0.009840  -0.000140   0.281469
    16  C    0.053178  -0.007026   0.000181  -0.019623   0.000211   0.002305
    17  C    0.000460   0.000139  -0.000003  -0.000003  -0.000002   0.000001
    18  H    0.000011   0.000000   0.000000  -0.000004   0.000000   0.000000
    19  H   -0.000008  -0.000005   0.000000   0.000001   0.000000   0.000000
    20  C   -0.000035   0.000108   0.000000   0.000030   0.000000  -0.000007
    21  H   -0.000020  -0.000002   0.000000   0.000001   0.000000   0.000000
    22  H    0.000010   0.000000   0.000000  -0.000001   0.000000   0.000000
    23  H    0.000000   0.000000   0.000000   0.000000   0.000000   0.000000
    24  H    0.000000   0.000000   0.000000   0.000000   0.000000   0.000000
    25  C   -0.000017  -0.000015   0.000000   0.000001   0.000000   0.000001
    26  C   -0.000002  -0.000001   0.000000   0.000001   0.000000   0.000000
    27  H    0.000000   0.000000   0.000000   0.000000   0.000000   0.000000
    28  H    0.000000   0.000000   0.000000   0.000000   0.000000   0.000000
    29  C    0.000000   0.000000   0.000000   0.000000   0.000000   0.000000
    30  H    0.000000   0.000000   0.000000   0.000000   0.000000   0.000000
    31  H    0.000000   0.000000   0.000000   0.000000   0.000000   0.000000
    32  H    0.000000   0.000000   0.000000   0.000000   0.000000   0.000000
    33  H    0.000000   0.000000   0.000000   0.000000   0.000000   0.000000
    34  H    0.000000   0.000000   0.000000   0.000000   0.000000   0.000000
              13         14         15         16         17         18
     1  C   -0.000004  -0.000005   0.000007  -8.876399  -0.234624  -0.270033
     2  C   -0.000101  -0.000100   0.000008   0.724297   0.059184  -0.000125
     3  C   -0.000085  -0.000047   0.000594  -4.588109  -0.047756  -0.030005
     4  C   -0.006735  -0.007036   0.000913   0.049551   0.005806  -0.000113
     5  C    0.001954   0.003026   0.000225  -0.624280  -0.000269  -0.000655
     6  C   -0.035857   0.002652   0.012156  -0.004683  -0.000493  -0.000007
     7  C    0.001848  -0.038713   0.014983   0.053178   0.000460   0.000011
     8  C    0.303203   0.003240  -0.008578  -0.007026   0.000139   0.000000
     9  H   -0.004534   0.000016  -0.000140   0.000181  -0.000003   0.000000
    10  C    0.003451   0.304674  -0.009840  -0.019623  -0.000003  -0.000004
    11  H    0.000016  -0.004530  -0.000140   0.000211  -0.000002   0.000000
    12  C    0.025081   0.025085   0.281469   0.002305   0.000001   0.000000
    13  H    0.533403  -0.000159  -0.004666   0.000000   0.000000   0.000000
    14  H   -0.000159   0.533395  -0.004667   0.000000   0.000000   0.000000
    15  H   -0.004666  -0.004667   0.536038   0.000000   0.000000   0.000000
    16  C    0.000000   0.000000   0.000000  19.982050   0.010047   0.652300
    17  C    0.000000   0.000000   0.000000   0.010047   7.098218  -0.049304
    18  H    0.000000   0.000000   0.000000   0.652300  -0.049304   0.513520
    19  H    0.000000   0.000000   0.000000   0.636008  -0.062257  -0.035649
    20  C    0.000000   0.000000   0.000000  -0.743016  -0.775808  -0.021720
    21  H    0.000000   0.000000   0.000000  -0.053817   0.441442  -0.004300
    22  H    0.000000   0.000000   0.000000  -0.044769   0.435422   0.004467
    23  H    0.000000   0.000000   0.000000   0.027041  -0.086353   0.000015
    24  H    0.000000   0.000000   0.000000  -0.011679  -0.053994   0.003703
    25  C    0.000000   0.000000   0.000000   0.396730  -0.200620   0.007492
    26  C    0.000000   0.000000   0.000000  -0.096085  -0.005741  -0.001261
    27  H    0.000000   0.000000   0.000000   0.004660  -0.004348   0.000116
    28  H    0.000000   0.000000   0.000000  -0.023466   0.025690   0.000066
    29  C    0.000000   0.000000   0.000000  -0.012035  -0.109100   0.000457
    30  H    0.000000   0.000000   0.000000  -0.002246  -0.014326   0.000001
    31  H    0.000000   0.000000   0.000000  -0.000858  -0.011810   0.000001
    32  H    0.000000   0.000000   0.000000  -0.000245  -0.000966   0.000000
    33  H    0.000000   0.000000   0.000000   0.001008  -0.003729   0.000000
    34  H    0.000000   0.000000   0.000000  -0.001900  -0.001748   0.000000
              19         20         21         22         23         24
     1  C   -0.260669   0.706898   0.002040  -0.004253  -0.009520   0.013066
     2  C    0.003862  -0.050565  -0.007077  -0.014276  -0.001287   0.001544
     3  C   -0.029367   0.097860  -0.000274  -0.000640  -0.000193   0.000225
     4  C    0.000177  -0.004345  -0.000233  -0.000581  -0.000020   0.000029
     5  C   -0.000616   0.003639  -0.000007  -0.000048  -0.000002   0.000001
     6  C    0.000013   0.000070   0.000017  -0.000012   0.000000   0.000000
     7  C   -0.000008  -0.000035  -0.000020   0.000010   0.000000   0.000000
     8  C   -0.000005   0.000108  -0.000002   0.000000   0.000000   0.000000
     9  H    0.000000   0.000000   0.000000   0.000000   0.000000   0.000000
    10  C    0.000001   0.000030   0.000001  -0.000001   0.000000   0.000000
    11  H    0.000000   0.000000   0.000000   0.000000   0.000000   0.000000
    12  C    0.000000  -0.000007   0.000000   0.000000   0.000000   0.000000
    13  H    0.000000   0.000000   0.000000   0.000000   0.000000   0.000000
    14  H    0.000000   0.000000   0.000000   0.000000   0.000000   0.000000
    15  H    0.000000   0.000000   0.000000   0.000000   0.000000   0.000000
    16  C    0.636008  -0.743016  -0.053817  -0.044769   0.027041  -0.011679
    17  C   -0.062257  -0.775808   0.441442   0.435422  -0.086353  -0.053994
    18  H   -0.035649  -0.021720  -0.004300   0.004467   0.000015   0.003703
    19  H    0.515581  -0.007269   0.004508  -0.004782  -0.000081  -0.000074
    20  C   -0.007269   6.882855  -0.094634  -0.096370   0.456015   0.442110
    21  H    0.004508  -0.094634   0.522311  -0.031952  -0.003563  -0.002890
    22  H   -0.004782  -0.096370  -0.031952   0.521063  -0.002943   0.004539
    23  H   -0.000081   0.456015  -0.003563  -0.002943   0.535495  -0.034657
    24  H   -0.000074   0.442110  -0.002890   0.004539  -0.034657   0.538808
    25  C    0.005462  -0.386284   0.018345   0.022034  -0.076222  -0.103903
    26  C    0.004122   0.180539  -0.001235  -0.003148  -0.002067   0.007256
    27  H    0.000190  -0.064038  -0.000076  -0.000104   0.004806  -0.004957
    28  H    0.000261  -0.060442   0.000039   0.003189  -0.004414   0.004838
    29  C   -0.000643  -0.051990  -0.000143   0.000896  -0.004592  -0.004861
    30  H    0.000009   0.001641   0.000004   0.000001  -0.000563   0.002729
    31  H   -0.000002  -0.010889  -0.000004   0.000010   0.003431  -0.000281
    32  H    0.000000  -0.003845   0.000000   0.000000   0.000000   0.000000
    33  H    0.000000  -0.004097   0.000000  -0.000001   0.000001  -0.000001
    34  H    0.000000  -0.008872   0.000000   0.000000   0.000000   0.000007
              25         26         27         28         29         30
     1  C   -0.350508   0.061770   0.005844   0.023955   0.006763   0.003945
     2  C   -0.009977   0.007395   0.002697   0.003137  -0.002422   0.000114
     3  C   -0.028484   0.002456   0.000018   0.000524   0.000444   0.000021
     4  C   -0.000140   0.000445   0.000037   0.000051  -0.000053   0.000001
     5  C   -0.000869   0.000051   0.000001   0.000003   0.000004   0.000000
     6  C    0.000059   0.000005   0.000000   0.000000   0.000000   0.000000
     7  C   -0.000017  -0.000002   0.000000   0.000000   0.000000   0.000000
     8  C   -0.000015  -0.000001   0.000000   0.000000   0.000000   0.000000
     9  H    0.000000   0.000000   0.000000   0.000000   0.000000   0.000000
    10  C    0.000001   0.000001   0.000000   0.000000   0.000000   0.000000
    11  H    0.000000   0.000000   0.000000   0.000000   0.000000   0.000000
    12  C    0.000001   0.000000   0.000000   0.000000   0.000000   0.000000
    13  H    0.000000   0.000000   0.000000   0.000000   0.000000   0.000000
    14  H    0.000000   0.000000   0.000000   0.000000   0.000000   0.000000
    15  H    0.000000   0.000000   0.000000   0.000000   0.000000   0.000000
    16  C    0.396730  -0.096085   0.004660  -0.023466  -0.012035  -0.002246
    17  C   -0.200620  -0.005741  -0.004348   0.025690  -0.109100  -0.014326
    18  H    0.007492  -0.001261   0.000116   0.000066   0.000457   0.000001
    19  H    0.005462   0.004122   0.000190   0.000261  -0.000643   0.000009
    20  C   -0.386284   0.180539  -0.064038  -0.060442  -0.051990   0.001641
    21  H    0.018345  -0.001235  -0.000076   0.000039  -0.000143   0.000004
    22  H    0.022034  -0.003148  -0.000104   0.003189   0.000896   0.000001
    23  H   -0.076222  -0.002067   0.004806  -0.004414  -0.004592  -0.000563
    24  H   -0.103903   0.007256  -0.004957   0.004838  -0.004861   0.002729
    25  C    6.798237  -0.517323   0.375647   0.341688   0.133180  -0.119007
    26  C   -0.517323   6.595421  -0.017760  -0.001063  -0.500095   0.439740
    27  H    0.375647  -0.017760   0.551586  -0.037974  -0.008841  -0.005489
    28  H    0.341688  -0.001063  -0.037974   0.545335  -0.016083   0.004875
    29  C    0.133180  -0.500095  -0.008841  -0.016083   6.078905  -0.008109
    30  H   -0.119007   0.439740  -0.005489   0.004875  -0.008109   0.543867
    31  H   -0.097940   0.427276   0.004973  -0.005484  -0.005110  -0.037400
    32  H    0.027792  -0.112916  -0.000016  -0.000027   0.439465  -0.002725
    33  H    0.004998  -0.119582  -0.000407   0.003090   0.462005   0.004449
    34  H   -0.001397  -0.108778   0.003163  -0.000388   0.464381  -0.004718
              31         32         33         34
     1  C    0.001434  -0.000080   0.000733  -0.000308
     2  C    0.000052  -0.000004   0.000047  -0.000058
     3  C    0.000008   0.000000   0.000003   0.000000
     4  C    0.000000   0.000000   0.000000   0.000000
     5  C    0.000000   0.000000   0.000000   0.000000
     6  C    0.000000   0.000000   0.000000   0.000000
     7  C    0.000000   0.000000   0.000000   0.000000
     8  C    0.000000   0.000000   0.000000   0.000000
     9  H    0.000000   0.000000   0.000000   0.000000
    10  C    0.000000   0.000000   0.000000   0.000000
    11  H    0.000000   0.000000   0.000000   0.000000
    12  C    0.000000   0.000000   0.000000   0.000000
    13  H    0.000000   0.000000   0.000000   0.000000
    14  H    0.000000   0.000000   0.000000   0.000000
    15  H    0.000000   0.000000   0.000000   0.000000
    16  C   -0.000858  -0.000245   0.001008  -0.001900
    17  C   -0.011810  -0.000966  -0.003729  -0.001748
    18  H    0.000001   0.000000   0.000000   0.000000
    19  H   -0.000002   0.000000   0.000000   0.000000
    20  C   -0.010889  -0.003845  -0.004097  -0.008872
    21  H   -0.000004   0.000000   0.000000   0.000000
    22  H    0.000010   0.000000  -0.000001   0.000000
    23  H    0.003431   0.000000   0.000001   0.000000
    24  H   -0.000281   0.000000  -0.000001   0.000007
    25  C   -0.097940   0.027792   0.004998  -0.001397
    26  C    0.427276  -0.112916  -0.119582  -0.108778
    27  H    0.004973  -0.000016  -0.000407   0.003163
    28  H   -0.005484  -0.000027   0.003090  -0.000388
    29  C   -0.005110   0.439465   0.462005   0.464381
    30  H   -0.037400  -0.002725   0.004449  -0.004718
    31  H    0.542800  -0.002688  -0.004630   0.004417
    32  H   -0.002688   0.515809  -0.028628  -0.028891
    33  H   -0.004630  -0.028628   0.515821  -0.032340
    34  H    0.004417  -0.028891  -0.032340   0.517195
 Mulliken charges:
               1
     1  C   -0.213357
     2  C    0.745752
     3  C    1.387674
     4  C   -1.373229
     5  C    0.539859
     6  C   -0.508549
     7  C   -0.495448
     8  C    0.043343
     9  H    0.195984
    10  C    0.041163
    11  H    0.196195
    12  C   -0.188893
    13  H    0.183186
    14  H    0.183169
    15  H    0.181638
    16  C   -1.429334
    17  C   -0.413155
    18  H    0.231025
    19  H    0.231228
    20  C   -0.387538
    21  H    0.211518
    22  H    0.212248
    23  H    0.199673
    24  H    0.198440
    25  C   -0.238960
    26  C   -0.239419
    27  H    0.190273
    28  H    0.192599
    29  C   -0.862423
    30  H    0.193187
    31  H    0.192694
    32  H    0.197965
    33  H    0.201259
    34  H    0.200236
 Sum of Mulliken charges =   0.00000
 Mulliken charges with hydrogens summed into heavy atoms:
               1
     1  C   -0.213357
     2  C    0.745752
     3  C    1.387674
     4  C   -1.373229
     5  C    0.539859
     6  C   -0.312565
     7  C   -0.299253
     8  C    0.226529
    10  C    0.224332
    12  C   -0.007255
    16  C   -0.967081
    17  C    0.010610
    20  C    0.010575
    25  C    0.143912
    26  C    0.146461
    29  C   -0.262963
 Electronic spatial extent (au):  <R**2>=          11018.5708
 Charge=              0.0000 electrons
 Dipole moment (field-independent basis, Debye):
    X=             -0.7371    Y=              0.0299    Z=              0.2388  Tot=              0.7754
 Quadrupole moment (field-independent basis, Debye-Ang):
   XX=            -76.0960   YY=            -94.3009   ZZ=           -101.4628
   XY=              2.1957   XZ=              0.3723   YZ=             -2.2770
 Traceless Quadrupole moment (field-independent basis, Debye-Ang):
   XX=             14.5239   YY=             -3.6811   ZZ=            -10.8429
   XY=              2.1957   XZ=              0.3723   YZ=             -2.2770
 Octapole moment (field-independent basis, Debye-Ang**2):
  XXX=             97.8198  YYY=              1.0972  ZZZ=              7.0113  XYY=             13.6700
  XXY=              0.4943  XXZ=             12.2421  XZZ=            -22.8541  YZZ=             -0.8199
  YYZ=              1.0723  XYZ=            -18.6821
 Hexadecapole moment (field-independent basis, Debye-Ang**3):
 XXXX=         -13717.5412 YYYY=           -479.5231 ZZZZ=           -342.0827 XXXY=             50.2730
 XXXZ=              9.6742 YYYX=             -3.1620 YYYZ=             55.9103 ZZZX=             -9.7848
 ZZZY=             71.6057 XXYY=          -2448.1804 XXZZ=          -2652.7468 YYZZ=           -143.2285
 XXYZ=            -39.7056 YYXZ=            -11.1327 ZZXY=             -9.2721
 N-N= 8.459229044390D+02 E-N=-3.125615679288D+03  KE= 6.142284330266D+02
 Evaluate density.
 Using the total density.
 Monte-Carlo method of calculating molar volume:
 based on  0.001 e/bohr**3 density envelope.
 Number of points per bohr**3 =   20 CutOff= 1.00D-04
 Using the SCF density.
 There are       458 points.  Will hold       458 in memory.
 LenV=  8052790188 MDV=  8053063680.
 Box volume =12023.901 fraction occupied=0.177
 Integrated density= 7.6336429914367272D+01 error=-3.7663570085632728D+01
 Molar volume = 2126.498 bohr**3/mol (189.766 cm**3/mol)
 Recommended a0 for SCRF calculation =  5.15 angstrom (  9.73 bohr)
 Calling FoFJK, ICntrl=      2127 FMM=F ISym2X=0 I1Cent= 0 IOpClX= 0 NMat=1 NMatS=1 NMatT=0.
 -------------------------------------------------------------------
 Center     Atomic                   Forces (Hartrees/Bohr)
 Number     Number              X              Y              Z
 -------------------------------------------------------------------
      1        6           0.000004608   -0.000032577    0.000015222
      2        6          -0.000003165    0.000017299   -0.000008137
      3        6          -0.000000704    0.000000004    0.000000727
      4        6           0.000001046   -0.000001229   -0.000001577
      5        6          -0.000002960   -0.000003626    0.000001732
      6        6           0.000005793    0.000005596   -0.000001467
      7        6           0.000003456   -0.000000050    0.000000766
      8        6          -0.000002146   -0.000002108    0.000001160
      9        1           0.000001815    0.000000489    0.000000577
     10        6          -0.000006875   -0.000009113    0.000003321
     11        1          -0.000003661   -0.000008751    0.000002797
     12        6           0.000003925    0.000012183   -0.000005036
     13        1           0.000002972    0.000006193   -0.000001465
     14        1          -0.000000543   -0.000002830    0.000000842
     15        1          -0.000001361    0.000002072   -0.000000603
     16        6          -0.000004937    0.000013377   -0.000004468
     17        6           0.000003701    0.000000854   -0.000000829
     18        1           0.000000724    0.000001904   -0.000001143
     19        1           0.000000241    0.000000196    0.000001506
     20        6          -0.000006229   -0.000003763    0.000001411
     21        1           0.000000156    0.000000495   -0.000001990
     22        1          -0.000001395   -0.000003705    0.000000716
     23        1           0.000003031   -0.000001925   -0.000011150
     24        1           0.000001614    0.000011812    0.000002124
     25        6           0.000003401    0.000000750    0.000000367
     26        6          -0.000003549   -0.000000258    0.000000015
     27        1          -0.000000815    0.000001535    0.000006415
     28        1          -0.000001271   -0.000006799   -0.000000739
     29        6           0.000001367    0.000000315    0.000000211
     30        1           0.000001092    0.000004687    0.000000290
     31        1           0.000000956   -0.000001152   -0.000003691
     32        1           0.000000614    0.000000543    0.000000346
     33        1          -0.000000597   -0.000003206    0.000000010
     34        1          -0.000000306    0.000000790    0.000001740
 -------------------------------------------------------------------
 Cartesian Forces:  Max     0.000032577 RMS     0.000005501

 GradGradGradGradGradGradGradGradGradGradGradGradGradGradGradGradGradGrad
 Berny optimization.
 Search for a local minimum.
 Step number   1 out of a maximum of  112
 All quantities printed in internal units (Hartrees-Bohrs-Radians)
 Second derivative matrix not updated -- first step.
 ITU=  0
     Eigenvalues ---    0.00000   0.00007   0.00022   0.00051   0.00082
     Eigenvalues ---    0.00123   0.00172   0.00294   0.00349   0.00447
     Eigenvalues ---    0.00720   0.01226   0.01587   0.01588   0.01721
     Eigenvalues ---    0.01975   0.02325   0.02878   0.03158   0.03788
     Eigenvalues ---    0.03935   0.04057   0.04803   0.05050   0.05134
     Eigenvalues ---    0.05362   0.05729   0.05847   0.06434   0.06523
     Eigenvalues ---    0.06800   0.06851   0.06939   0.07147   0.07323
     Eigenvalues ---    0.07559   0.08079   0.08272   0.08956   0.09562
     Eigenvalues ---    0.09790   0.10765   0.11515   0.12183   0.12457
     Eigenvalues ---    0.12797   0.13425   0.13464   0.13537   0.14900
     Eigenvalues ---    0.15842   0.17130   0.17448   0.19653   0.20101
     Eigenvalues ---    0.23025   0.24819   0.27894   0.29540   0.30278
     Eigenvalues ---    0.31267   0.35661   0.39172   0.40781   0.43529
     Eigenvalues ---    0.49826   0.51443   0.54404   0.58468   0.58834
     Eigenvalues ---    0.64234   0.68422   0.68688   0.72613   0.76921
     Eigenvalues ---    0.82781   0.86196   0.88702   0.89405   0.92303
     Eigenvalues ---    0.96768   0.97847   0.98989   1.01401   1.03061
     Eigenvalues ---    1.07008   1.09358   1.10354   1.21570   1.23401
     Eigenvalues ---    1.44909   1.56455   1.57883   2.19936   2.70687
     Eigenvalues ---   51.71818
 RFO step:  Lambda=-1.53990279D-07 EMin= 3.23756737D-08
 Linear search not attempted -- first point.
 Maximum step size (   0.300) exceeded in Quadratic search.
    -- Step size scaled by   0.347
 B after Tr=     0.000010    0.000546   -0.000702
         Rot=    1.000000    0.000498    0.000016   -0.000031 Ang=   0.06 deg.
 Variable       Old X    -DE/DX   Delta X   Delta X   Delta X     New X
                                 (Linear)    (Quad)   (Total)
    X1       -1.90378   0.00000   0.00000   0.00004   0.00014  -1.90364
    Y1       -1.05016  -0.00003   0.00000   0.00943   0.00926  -1.04090
    Z1       -0.57977   0.00002   0.00000  -0.01781  -0.01754  -0.59730
    X2        0.38120   0.00000   0.00000   0.00002   0.00009   0.38129
    Y2       -0.77906   0.00002   0.00000   0.00800   0.00808  -0.77098
    Z2       -0.47419  -0.00001   0.00000  -0.01362  -0.01354  -0.48773
    X3        2.94084   0.00000   0.00000   0.00001   0.00006   2.94090
    Y3       -0.47746   0.00000   0.00000   0.00641   0.00677  -0.47069
    Z3       -0.36838   0.00000   0.00000  -0.00893  -0.00907  -0.37745
    X4        5.23102   0.00000   0.00000   0.00001   0.00004   5.23106
    Y4       -0.20924   0.00000   0.00000   0.00501   0.00561  -0.20363
    Z4       -0.27553   0.00000   0.00000  -0.00473  -0.00507  -0.28059
    X5        7.90108   0.00000   0.00000   0.00000   0.00001   7.90109
    Y5        0.10441   0.00000   0.00000   0.00340   0.00428   0.10868
    Z5       -0.16706   0.00000   0.00000   0.00016  -0.00040  -0.16746
    X6        9.02351   0.00001   0.00000   0.00695   0.00684   9.03035
    Y6        2.41521   0.00001   0.00000  -0.01546  -0.01528   2.39993
    Z6       -0.88215   0.00000   0.00000  -0.04991  -0.05272  -0.93487
    X7        9.46680   0.00000   0.00000  -0.00696  -0.00686   9.45994
    Y7       -1.89090   0.00000   0.00000   0.02062   0.02247  -1.86843
    Z7        0.65651   0.00000   0.00000   0.05513   0.05658   0.71310
    X8       11.63861   0.00000   0.00000   0.00692   0.00678  11.64539
    Y8        2.71281   0.00000   0.00000  -0.01698  -0.01652   2.69629
    Z8       -0.77317   0.00000   0.00000  -0.04497  -0.04799  -0.82116
    X9        7.82511   0.00000   0.00000   0.01232   0.01214   7.83725
    Y9        3.95549   0.00000   0.00000  -0.02876  -0.02933   3.92616
    Z9       -1.51747   0.00000   0.00000  -0.09230  -0.09666  -1.61413
   X10       12.08001  -0.00001   0.00000  -0.00695  -0.00686  12.07315
   Y10       -1.57487  -0.00001   0.00000   0.01898   0.02110  -1.55376
   Z10        0.75865   0.00000   0.00000   0.05973   0.06096   0.81960
   X11        8.61040   0.00000   0.00000  -0.01233  -0.01213   8.59827
   Y11       -3.67253  -0.00001   0.00000   0.03516   0.03755  -3.63498
   Z11        1.20836   0.00000   0.00000   0.09378   0.09697   1.30533
   X12       13.17569   0.00000   0.00000  -0.00002  -0.00006  13.17564
   Y12        0.72347   0.00001   0.00000   0.00021   0.00164   0.72511
   Z12        0.04594  -0.00001   0.00000   0.00978   0.00877   0.05471
   X13       12.48031   0.00000   0.00000   0.01231   0.01208  12.49239
   Y13        4.50215   0.00001   0.00000  -0.03158  -0.03166   4.47049
   Z13       -1.32918   0.00000   0.00000  -0.08382  -0.08858  -1.41776
   X14       13.26565   0.00000   0.00000  -0.01234  -0.01218  13.25347
   Y14       -3.12636   0.00000   0.00000   0.03235   0.03522  -3.09114
   Z14        1.39624   0.00000   0.00000   0.10229   0.10509   1.50133
   X15       15.21392   0.00000   0.00000  -0.00003  -0.00008  15.21384
   Y15        0.96263   0.00000   0.00000  -0.00103   0.00062   0.96325
   Z15        0.12817   0.00000   0.00000   0.01350   0.01232   0.14049
   X16       -4.64565   0.00000   0.00000   0.00008   0.00019  -4.64545
   Y16       -1.35072   0.00001   0.00000   0.00999   0.00959  -1.34114
   Z16       -0.63638   0.00000   0.00000  -0.02246  -0.02197  -0.65835
   X17       -5.93503   0.00000   0.00000   0.00022   0.00021  -5.93482
   Y17       -0.50859   0.00000   0.00000  -0.03093  -0.02892  -0.53751
   Z17        1.84966   0.00000   0.00000  -0.00853  -0.00888   1.84078
   X18       -5.11117   0.00000   0.00000   0.00030   0.00056  -5.11062
   Y18       -3.34315   0.00000   0.00000   0.01601   0.01518  -3.32797
   Z18       -1.00746   0.00000   0.00000  -0.05507  -0.05262  -1.06008
   X19       -5.40940   0.00000   0.00000  -0.00023  -0.00013  -5.40954
   Y19       -0.26979   0.00000   0.00000   0.03609   0.03406  -0.23573
   Z19       -2.23460   0.00000   0.00000  -0.00466  -0.00530  -2.23989
   X20       -8.79971  -0.00001   0.00000   0.00028   0.00029  -8.79942
   Y20       -0.97891   0.00000   0.00000  -0.03169  -0.02985  -1.00876
   Z20        1.87693   0.00000   0.00000  -0.01597  -0.01594   1.86099
   X21       -5.05096   0.00000   0.00000   0.00049   0.00050  -5.05047
   Y21       -1.52788   0.00000   0.00000  -0.05663  -0.05302  -1.58090
   Z21        3.42368   0.00000   0.00000  -0.02533  -0.02461   3.39907
   X22       -5.54708   0.00000   0.00000   0.00002  -0.00013  -5.54721
   Y22        1.50689   0.00000   0.00000  -0.03592  -0.03355   1.47334
   Z22        2.15650   0.00000   0.00000   0.02449   0.02214   2.17865
   X23       -9.51288   0.00000   0.00000   0.00041   0.00034  -9.51254
   Y23       -0.53362   0.00000   0.00000  -0.06284  -0.05914  -0.59276
   Z23        3.77691  -0.00001   0.00000  -0.00863  -0.00904   3.76787
   X24       -9.16916   0.00000   0.00000   0.00047   0.00062  -9.16855
   Y24       -3.00514   0.00001   0.00000  -0.02693  -0.02543  -3.03057
   Z24        1.58404   0.00000   0.00000  -0.04906  -0.04703   1.53701
   X25      -10.30206   0.00000   0.00000  -0.00008  -0.00011 -10.30216
   Y25        0.56305   0.00000   0.00000  -0.00004  -0.00021   0.56284
   Z25       -0.06788   0.00000   0.00000   0.00942   0.00783  -0.06005
   X26      -13.17014   0.00000   0.00000  -0.00002  -0.00003 -13.17017
   Y26        0.20509   0.00000   0.00000  -0.00421  -0.00433   0.20077
   Z26        0.16693   0.00000   0.00000   0.00383   0.00252   0.16945
   X27       -9.72199   0.00000   0.00000  -0.00021  -0.00014  -9.72213
   Y27        0.04553   0.00000   0.00000   0.03154   0.02949   0.07501
   Z27       -1.99476   0.00001   0.00000   0.00090  -0.00018  -1.99494
   X28       -9.84154   0.00000   0.00000  -0.00029  -0.00044  -9.84199
   Y28        2.57998  -0.00001   0.00000  -0.00364  -0.00352   2.57646
   Z28        0.15461   0.00000   0.00000   0.04236   0.03879   0.19340
   X29      -14.66498   0.00000   0.00000  -0.00039  -0.00043 -14.66541
   Y29        1.73485   0.00000   0.00000   0.02757   0.02544   1.76029
   Z29       -1.78726   0.00000   0.00000   0.02900   0.02608  -1.76118
   X30      -13.62434   0.00000   0.00000   0.00019   0.00032 -13.62402
   Y30       -1.81325   0.00000   0.00000  -0.00097  -0.00135  -1.81459
   Z30       -0.03400   0.00000   0.00000  -0.02913  -0.02845  -0.06245
   X31      -13.77093   0.00000   0.00000   0.00010   0.00000 -13.77093
   Y31        0.74562   0.00000   0.00000  -0.03559  -0.03383   0.71179
   Z31        2.08168   0.00000   0.00000   0.01273   0.01088   2.09256
   X32      -16.70656   0.00000   0.00000  -0.00033  -0.00037 -16.70693
   Y32        1.44904   0.00000   0.00000   0.02388   0.02183   1.47087
   Z32       -1.57534   0.00000   0.00000   0.02453   0.02184  -1.55350
   X33      -14.28684   0.00000   0.00000  -0.00059  -0.00077 -14.28762
   Y33        3.76512   0.00000   0.00000   0.02441   0.02253   3.78765
   Z33       -1.59135   0.00000   0.00000   0.06216   0.05723  -1.53412
   X34      -14.14702   0.00000   0.00000  -0.00052  -0.00047 -14.14749
   Y34        1.18528   0.00000   0.00000   0.05922   0.05519   1.24047
   Z34       -3.71942   0.00000   0.00000   0.01996   0.01758  -3.70184
         Item               Value     Threshold  Converged?
 Maximum Force            0.000033     0.000450     YES
 RMS     Force            0.000006     0.000300     YES
 Maximum Displacement     0.105088     0.001800     NO 
 RMS     Displacement     0.029658     0.001200     NO 
 Predicted change in Energy=-2.742205D-08
 GradGradGradGradGradGradGradGradGradGradGradGradGradGradGradGradGradGrad

                          Input orientation:                          
 ---------------------------------------------------------------------
 Center     Atomic      Atomic             Coordinates (Angstroms)
 Number     Number       Type             X           Y           Z
 ---------------------------------------------------------------------
      1          6           0       -1.007365   -0.550820   -0.316080
      2          6           0        0.201771   -0.407985   -0.258096
      3          6           0        1.556258   -0.249077   -0.199737
      4          6           0        2.768156   -0.107758   -0.148484
      5          6           0        4.181077    0.057513   -0.088618
      6          6           0        4.778654    1.269990   -0.494711
      7          6           0        5.005985   -0.988730    0.377354
      8          6           0        6.162476    1.426817   -0.434537
      9          1           0        4.147293    2.077635   -0.854161
     10          6           0        6.388836   -0.822216    0.433714
     11          1           0        4.550008   -1.923548    0.690752
     12          6           0        6.972246    0.383710    0.028954
     13          1           0        6.610686    2.365683   -0.750246
     14          1           0        7.013433   -1.635761    0.794469
     15          1           0        8.050817    0.509731    0.074343
     16          6           0       -2.458269   -0.709698   -0.348384
     17          6           0       -3.140570   -0.284437    0.974101
     18          1           0       -2.704423   -1.761083   -0.560970
     19          1           0       -2.862603   -0.124741   -1.185301
     20          6           0       -4.656452   -0.533813    0.984792
     21          1           0       -2.672591   -0.836575    1.798711
     22          1           0       -2.935459    0.779658    1.152890
     23          1           0       -5.033819   -0.313674    1.993870
     24          1           0       -4.851786   -1.603708    0.813353
     25          6           0       -5.451670    0.297844   -0.031777
     26          6           0       -6.969353    0.106241    0.089667
     27          1           0       -5.144728    0.039695   -1.055676
     28          1           0       -5.208155    1.363404    0.102342
     29          6           0       -7.760603    0.931506   -0.931975
     30          1           0       -7.209523   -0.960242   -0.033047
     31          1           0       -7.287262    0.376664    1.107336
     32          1           0       -8.840924    0.778351   -0.822078
     33          1           0       -7.560682    2.004339   -0.811821
     34          1           0       -7.486527    0.656428   -1.958928
 ---------------------------------------------------------------------
                    Distance matrix (angstroms):
                    1          2          3          4          5
     1  C    0.000000
     2  C    1.218923   0.000000
     3  C    2.583941   1.365025   0.000000
     4  C    3.805122   2.586210   1.221185   0.000000
     5  C    5.228933   4.010023   2.644999   1.423813   0.000000
     6  C    6.068383   4.880517   3.574690   2.461740   1.411422
     7  C    6.069019   4.880730   3.575015   2.461807   1.411463
     8  C    7.438529   6.239202   4.907239   3.736062   2.433228
     9  H    5.811093   4.701143   3.543348   2.678794   2.160576
    10  C    7.439062   6.239388   4.907500   3.736139   2.433301
    11  H    5.812271   4.701533   3.543919   2.678882   2.160585
    12  C    8.041554   6.822647   5.457623   4.236437   2.812624
    13  H    8.168794   7.000689   5.717278   4.609237   3.415904
    14  H    8.169677   7.001005   5.717700   4.609374   3.416030
    15  H    9.128410   7.909504   6.544479   5.323294   3.899481
    16  C    1.459934   2.678618   4.043599   5.264770   6.688572
    17  C    2.507207   3.564381   4.841419   6.017013   7.406268
    18  H    2.098741   3.220027   4.535423   5.731732   7.137263
    19  H    2.092605   3.214082   4.529142   5.725445   7.130873
    20  C    3.874067   5.016267   6.331032   7.522676   8.922096
    21  H    2.706838   3.560351   4.714034   5.824472   7.164787
    22  H    2.765066   3.639174   4.802439   5.917120   7.260022
    23  H    4.648057   5.700144   6.945876   8.093385   9.454567
    24  H    4.142917   5.302471   6.627549   7.824737   9.228533
    25  C    4.533531   5.701825   7.031244   8.230654   9.635912
    26  C    6.011793   7.197943   8.537918   9.742771  11.151961
    27  H    4.244229   5.424168   6.761600   7.966083   9.375828
    28  H    4.635296   5.703949   6.960506   8.114725   9.481535
    29  C    6.941386   8.102330   9.419865  10.608897  12.003284
    30  H    6.222097   7.435248   8.796162  10.014696  11.436113
    31  H    6.505647   7.652823   8.961465  10.145106  11.534946
    32  H    7.961619   9.137604  10.466342  11.662318  13.062545
    33  H    7.051280   8.147490   9.411223  10.563421  11.924012
    34  H    6.792344   7.945799   9.256709  10.441274  11.831726
                    6          7          8          9         10
     6  C    0.000000
     7  C    2.431870   0.000000
     8  C    1.393980   2.798483   0.000000
     9  H    1.086329   3.414173   2.158845   0.000000
    10  C    2.798569   1.393981   2.421415   3.884878   0.000000
    11  H    3.414130   1.086286   3.884749   4.307946   2.158770
    12  C    2.423131   2.423047   1.399509   3.410225   1.399448
    13  H    2.149926   3.885696   1.087213   2.482353   3.407884
    14  H    3.885822   2.149996   3.407927   4.972127   1.087254
    15  H    3.407179   3.407082   2.160055   4.307894   2.159956
    16  C    7.504240   7.504641   8.881968   7.187383   8.882320
    17  C    8.202911   8.198688   9.563436   7.876221   9.559854
    18  H    8.073923   7.805599   9.423407   7.859245   9.195555
    19  H    7.798140   8.068645   9.188201   7.355185   9.417898
    20  C    9.719252   9.692194  11.086378   9.365219  11.062787
    21  H    8.075794   7.810501   9.389822   7.876621   9.163672
    22  H    7.903326   8.172832   9.258033   7.475184   9.488187
    23  H   10.246250  10.191490  11.588075   9.905677  11.539920
    24  H   10.134818   9.886553  11.491531   9.864903  11.274150
    25  C   10.286832  10.544439  11.675838   9.797145  11.902471
    26  C   11.819961  12.028733  13.208468  11.329475  13.394835
    27  H   10.015079  10.302825  11.408891   9.515012  11.661230
    28  H   10.005076  10.485076  11.383476   9.431300  11.805802
    29  C   12.551444  12.976417  13.940764  11.963179  14.322963
    30  H   12.202601  12.222433  13.589320  11.784744  13.607068
    31  H   12.204545  12.390363  13.578500  11.725605  13.745063
    32  H   13.632380  14.010642  15.022407  13.053082  15.365039
    33  H   12.365235  12.972806  13.740485  11.708280  14.287401
    34  H   12.367500  12.815132  13.755455  11.772259  14.157571
                   11         12         13         14         15
    11  H    0.000000
    12  C    3.410081   0.000000
    13  H    4.971958   2.160115   0.000000
    14  H    2.482346   2.160086   4.308120   0.000000
    15  H    4.307722   1.086857   2.489675   2.489555   0.000000
    16  C    7.188128   9.501186   9.584644   9.585240  10.588040
    17  C    7.868415  10.178839  10.251024  10.245102  11.255550
    18  H    7.363421   9.929052  10.190058   9.812729  11.010696
    19  H    7.855067   9.922560   9.804830  10.185222  11.004181
    20  C    9.315403  11.703936  11.762901  11.723341  12.782512
    21  H    7.387491   9.881499  10.145486   9.770684  10.944290
    22  H    7.972021   9.979110   9.862367  10.244177  11.042391
    23  H    9.805077  12.185764  12.259838  12.178782  13.250293
    24  H    9.408032  12.015526  12.230665  11.865277  13.095417
    25  C   10.270842  12.424362  12.259388  12.641215  13.504567
    26  C   11.712259  13.944492  13.792316  14.108494  15.025596
    27  H   10.044513  12.170285  11.987213  12.411731  13.252181
    28  H   10.313682  12.219958  11.891866  12.603224  13.286455
    29  C   12.741104  14.774313  14.443817  15.094489  15.849025
    30  H   11.821101  14.245443  14.232861  14.263015  15.331352
    31  H   12.065881  14.300229  14.161913  14.444986  15.373401
    32  H   13.744307  15.840971  15.533095  16.118368  16.917644
    33  H   12.820095  14.647161  14.176108  15.107459  15.707897
    34  H   12.591872  14.597334  14.251803  14.936002  15.670506
                   16         17         18         19         20
    16  C    0.000000
    17  C    1.547692   0.000000
    18  H    1.100543   2.174202   0.000000
    19  H    1.098222   2.183068   1.758530   0.000000
    20  C    2.576879   1.536295   2.775967   2.845091   0.000000
    21  H    2.161492   1.097197   2.534526   3.073619   2.165602
    22  H    2.167883   1.098332   3.073445   2.508064   2.171470
    23  H    3.503776   2.150622   3.748104   3.854478   1.099592
    24  H    2.806744   2.166697   2.554349   3.184150   1.101009
    25  C    3.174246   2.586895   3.473700   2.865740   1.535395
    26  C    4.605163   3.948979   4.701048   4.306308   2.561333
    27  H    2.877311   2.870837   3.072886   2.291711   2.175049
    28  H    3.473152   2.783928   4.058458   3.061734   2.163915
    29  C    5.581118   5.143574   5.740439   5.016995   3.931527
    30  H    4.768294   4.245874   4.606080   4.573999   2.781368
    31  H    5.159311   4.201174   5.325000   5.008513   2.786601
    32  H    6.570919   6.070405   6.646319   6.057048   4.743033
    33  H    5.797878   5.288232   6.150169   5.171500   4.254948
    34  H    5.453763   5.326841   5.537794   4.752830   4.253409
                   21         22         23         24         25
    21  H    0.000000
    22  H    1.760225   0.000000
    23  H    2.426295   2.511122   0.000000
    24  H    2.511635   3.077016   1.758107   0.000000
    25  C    3.515803   2.822570   2.156803   2.165642   0.000000
    26  C    4.719311   4.225664   2.747474   2.816333   1.534543
    27  H    3.876446   3.210324   3.071954   2.505964   1.099647
    28  H    3.761204   2.570906   2.533942   3.071854   1.101229
    29  C    6.039091   5.258492   4.188842   4.234937   2.557940
    30  H    4.894321   4.764591   3.043047   2.586381   2.161673
    31  H    4.821321   4.370660   2.518039   3.152752   2.161756
    32  H    6.893827   6.226959   4.859643   4.925653   3.513190
    33  H    6.227286   5.172293   4.430589   4.795550   2.822857
    34  H    6.286723   5.514600   4.751998   4.442478   2.825444
                   26         27         28         29         30
    26  C    0.000000
    27  H    2.155341   0.000000
    28  H    2.163894   1.759896   0.000000
    29  C    1.533261   2.766483   2.787712   0.000000
    30  H    1.100058   2.511777   3.069713   2.165749   0.000000
    31  H    1.099930   3.063107   2.511246   2.165800   1.758930
    32  H    2.187645   3.776513   3.793923   1.096644   2.511323
    33  H    2.182917   3.123479   2.604011   1.097897   3.085213
    34  H    2.183326   2.584617   3.152717   1.097915   2.529698
                   31         32         33         34
    31  H    0.000000
    32  H    2.509553   0.000000
    33  H    2.531254   1.772617   0.000000
    34  H    3.085441   1.772480   1.771501   0.000000
 Symmetry turned off by external request.
 Stoichiometry    C16H18
 Framework group  C1[X(C16H18)]
 Deg. of freedom    96
 Full point group                 C1      NOp   1
 Rotational constants (GHZ):           2.6091494           0.0967153           0.0947087
 Standard basis: 6-31+G(d) (6D, 7F)
   340 basis functions,   584 primitive gaussians,   340 cartesian basis functions
    57 alpha electrons       57 beta electrons
       nuclear repulsion energy       845.8954909428 Hartrees.
 NAtoms=   34 NActive=   34 NUniq=   34 SFac= 1.00D+00 NAtFMM=   60 NAOKFM=F Big=F
 Integral buffers will be    131072 words long.
 Raffenetti 2 integral format.
 Two-electron integral symmetry is turned off.
 Nuclear repulsion after empirical dispersion term =      845.8725806877 Hartrees.
 One-electron integrals computed using PRISM.
 NBasis=   340 RedAO= T EigKep=  1.49D-06  NBF=   340
 NBsUse=   336 1.00D-06 EigRej=  1.54D-07 NBFU=   336
 Initial guess from the checkpoint file:  "molecule_53.chk"
 B after Tr=     0.000013    0.000901   -0.001307
         Rot=    0.999999    0.001149    0.000038   -0.000057 Ang=   0.13 deg.
 ExpMin= 4.38D-02 ExpMax= 3.05D+03 ExpMxC= 4.57D+02 IAcc=3 IRadAn=         5 AccDes= 0.00D+00
 Harris functional with IExCor=  402 and IRadAn=       5 diagonalized for initial guess.
 HarFok:  IExCor=  402 AccDes= 0.00D+00 IRadAn=         5 IDoV= 1 UseB2=F ITyADJ=14
 ICtDFT=  3500011 ScaDFX=  1.000000  1.000000  1.000000  1.000000
 FoFCou: FMM=F IPFlag=           0 FMFlag=      100000 FMFlg1=           0
         NFxFlg=           0 DoJE=T BraDBF=F KetDBF=T FulRan=T
         wScrn=  0.000000 ICntrl=       500 IOpCl=  0 I1Cent=   200000004 NGrid=           0
         NMat0=    1 NMatS0=      1 NMatT0=    0 NMatD0=    1 NMtDS0=    0 NMtDT0=    0
 Symmetry not used in FoFCou.
 Requested convergence on RMS density matrix=1.00D-08 within 128 cycles.
 Requested convergence on MAX density matrix=1.00D-06.
 Requested convergence on             energy=1.00D-06.
 No special actions if energy rises.
 SCF Done:  E(RB3LYP) =  -620.491620987     A.U. after   12 cycles
            NFock= 12  Conv=0.61D-08     -V/T= 2.0102
 Calling FoFJK, ICntrl=      2127 FMM=F ISym2X=0 I1Cent= 0 IOpClX= 0 NMat=1 NMatS=1 NMatT=0.
 -------------------------------------------------------------------
 Center     Atomic                   Forces (Hartrees/Bohr)
 Number     Number              X              Y              Z
 -------------------------------------------------------------------
      1        6          -0.000002470   -0.000031576    0.000014173
      2        6           0.000004486    0.000014774   -0.000006766
      3        6          -0.000014145   -0.000001386   -0.000000580
      4        6           0.000030739   -0.000000952    0.000002775
      5        6           0.000127927   -0.000011878    0.000014712
      6        6          -0.000101562   -0.000107026    0.000031265
      7        6          -0.000140390    0.000108533   -0.000049706
      8        6           0.000150265   -0.000120864    0.000065651
      9        1           0.000076952   -0.000156783    0.000066830
     10        6           0.000108023    0.000117297   -0.000041326
     11        1           0.000025419    0.000146441   -0.000054083
     12        6          -0.000163145    0.000013163   -0.000020966
     13        1          -0.000025965   -0.000149207    0.000052521
     14        1          -0.000076286    0.000156178   -0.000063513
     15        1          -0.000003992    0.000005969   -0.000002446
     16        6          -0.000049877    0.000006712   -0.000008272
     17        6           0.000051204    0.000013885   -0.000002323
     18        1           0.000008527    0.000084997    0.000020214
     19        1           0.000024059   -0.000045478    0.000072011
     20        6          -0.000049033   -0.000012770    0.000003221
     21        1          -0.000019531    0.000040143   -0.000067987
     22        1          -0.000010746   -0.000094637   -0.000019471
     23        1           0.000018734   -0.000016444   -0.000089395
     24        1           0.000010936    0.000098609    0.000011797
     25        6           0.000049060    0.000007178   -0.000005213
     26        6          -0.000051895   -0.000007273    0.000004897
     27        1          -0.000018841    0.000019888    0.000091483
     28        1          -0.000013080   -0.000094536   -0.000008112
     29        6           0.000046960    0.000013574   -0.000009985
     30        1           0.000012323    0.000092962    0.000006611
     31        1           0.000016388   -0.000019965   -0.000087002
     32        1           0.000003401    0.000004353   -0.000002723
     33        1          -0.000009732   -0.000094647   -0.000007217
     34        1          -0.000014714    0.000020764    0.000088922
 -------------------------------------------------------------------
 Cartesian Forces:  Max     0.000163145 RMS     0.000063472

 GradGradGradGradGradGradGradGradGradGradGradGradGradGradGradGradGradGrad
 Berny optimization.
 Search for a local minimum.
 Step number   2 out of a maximum of  112
 All quantities printed in internal units (Hartrees-Bohrs-Radians)
 Update second derivatives using D2CorN and points    2    1
 DE=  8.51D-07 DEPred=-2.74D-08 R=-3.10D+01
 Trust test=-3.10D+01 RLast= 3.00D-01 DXMaxT set to 1.50D-01
 ITU= -1  0
     Eigenvalues ---    0.00003   0.00007   0.00022   0.00051   0.00082
     Eigenvalues ---    0.00123   0.00172   0.00294   0.00349   0.00447
     Eigenvalues ---    0.00720   0.01226   0.01587   0.01588   0.01721
     Eigenvalues ---    0.01975   0.02326   0.02878   0.03158   0.03788
     Eigenvalues ---    0.03934   0.04057   0.04803   0.05050   0.05134
     Eigenvalues ---    0.05362   0.05730   0.05847   0.06434   0.06523
     Eigenvalues ---    0.06799   0.06851   0.06939   0.07147   0.07323
     Eigenvalues ---    0.07558   0.08080   0.08272   0.08954   0.09562
     Eigenvalues ---    0.09792   0.10765   0.11515   0.12183   0.12457
     Eigenvalues ---    0.12797   0.13427   0.13463   0.13535   0.14901
     Eigenvalues ---    0.15843   0.17130   0.17446   0.19653   0.20101
     Eigenvalues ---    0.23021   0.24819   0.27896   0.29540   0.30277
     Eigenvalues ---    0.31267   0.35661   0.39172   0.40781   0.43529
     Eigenvalues ---    0.49827   0.51443   0.54398   0.58471   0.58831
     Eigenvalues ---    0.64239   0.68425   0.68687   0.72622   0.76919
     Eigenvalues ---    0.82767   0.86197   0.88708   0.89399   0.92303
     Eigenvalues ---    0.96773   0.97851   0.98988   1.01389   1.03075
     Eigenvalues ---    1.07007   1.09355   1.10354   1.21570   1.23401
     Eigenvalues ---    1.44909   1.56455   1.57882   2.19936   2.70687
     Eigenvalues ---   51.71818
 RFO step:  Lambda=-6.10282529D-08 EMin= 3.18498787D-05
 Quartic linear search produced a step of -0.82860.
 B after Tr=    -0.000003    0.000009   -0.000036
         Rot=    1.000000    0.000027    0.000001   -0.000002 Ang=   0.00 deg.
 Variable       Old X    -DE/DX   Delta X   Delta X   Delta X     New X
                                 (Linear)    (Quad)   (Total)
    X1       -1.90364   0.00000  -0.00011   0.00001  -0.00010  -1.90375
    Y1       -1.04090  -0.00003  -0.00767   0.00020  -0.00750  -1.04840
    Z1       -0.59730   0.00001   0.01453  -0.00101   0.01354  -0.58376
    X2        0.38129   0.00000  -0.00008   0.00001  -0.00007   0.38122
    Y2       -0.77098   0.00001  -0.00670   0.00009  -0.00662  -0.77760
    Z2       -0.48773  -0.00001   0.01122  -0.00075   0.01048  -0.47725
    X3        2.94090  -0.00001  -0.00005   0.00000  -0.00005   2.94085
    Y3       -0.47069   0.00000  -0.00561   0.00004  -0.00556  -0.47625
    Z3       -0.37745   0.00000   0.00751  -0.00046   0.00705  -0.37040
    X4        5.23106   0.00003  -0.00003  -0.00001  -0.00004   5.23102
    Y4       -0.20363   0.00000  -0.00465   0.00005  -0.00458  -0.20821
    Z4       -0.28059   0.00000   0.00420  -0.00021   0.00397  -0.27662
    X5        7.90109   0.00013   0.00000  -0.00004  -0.00004   7.90105
    Y5        0.10868  -0.00001  -0.00354   0.00012  -0.00339   0.10529
    Z5       -0.16746   0.00001   0.00033   0.00007   0.00038  -0.16708
    X6        9.03035  -0.00010  -0.00567   0.00025  -0.00543   9.02492
    Y6        2.39993  -0.00011   0.01266  -0.00101   0.01165   2.41159
    Z6       -0.93487   0.00003   0.04368  -0.00275   0.04080  -0.89407
[...]
 0001069,-0.00000119,-0.00000074,-0.00000340,-0.00000233,0.00000105,-0.
 00000238,0.00000133,-0.00000047,-0.00000222,-0.00000019,0.00000016,-0.
 00006237,-0.00004854,-0.00001051,-0.00039759,0.00077626,-0.00021107,-0
 .00000745,-0.00000266,0.00000167,0.00002900,0.00002761,-0.00002975,-0.
 00167795,-0.00073240,0.00007055,-0.00025192,-0.00001128,-0.00003764,0.
 00012651,-0.00002282,0.00000420,0.00000703,-0.00009855,0.00023262,-0.0
 0001606,0.00048077,0.00005845,0.00077982,0.00263019,-0.00354704,0.0301
 0498,-0.11290349,0.04130735,0.00008222,-0.00007820,0.00019467,-0.00139
 625,0.00065122,-0.00068847,0.02732524,0.53876159,-0.00005387,0.0000232
 2,-0.00000041,0.00005154,-0.00001193,-0.00002035,-0.00002165,-0.000006
 32,0.00001014,0.00001818,0.00000579,-0.00000625,-0.00002360,-0.0000042
 7,-0.00000059,0.00001106,-0.00000362,0.00000092,0.00000889,0.00000405,
 -0.00000080,-0.00000036,-0.00000254,-0.00000011,-0.00000205,-0.0000003
 8,0.00000209,-0.00000122,0.00000242,-0.00000244,-0.00000229,0.00000153
 ,0.00000099,0.00000857,0.00000080,0.00000005,0.00000209,0.00000213,0.0
 0000037,0.00000205,-0.00000096,0.00000129,0.00000179,0.00000042,0.0000
 0064,-0.00009857,-0.00002244,0.00004571,0.00040051,-0.00011292,0.00079
 566,0.00000373,-0.00002079,0.00000568,-0.00001702,0.00002294,0.0000274
 7,0.00175977,0.00024084,-0.00068535,0.00028035,-0.00000393,0.00002079,
 0.00001158,0.00001276,-0.00003469,-0.00012760,0.00010041,0.00043309,-0
 .00012829,0.00014719,-0.00007999,-0.00233812,-0.00232325,0.00215709,-0
 .03803885,0.04116716,-0.13280897,0.00151365,-0.00042070,0.00079903,0.0
 0032906,0.00010578,-0.00005571,-0.03397218,0.03480787,0.52184554,0.000
 02526,0.00001667,-0.00000684,-0.00000764,0.00002014,-0.00002743,0.0000
 0716,-0.00000915,0.00002199,-0.00000378,0.00000251,-0.00000686,0.00000
 765,0.00000155,0.00000179,-0.00000199,-0.00000048,0.00000086,-0.000003
 53,-0.00000237,0.00000043,0.00000008,0.00000128,-0.00000086,0.00000085
 ,0.00000089,-0.00000080,0.00000034,-0.00000010,0.00000052,0.00000076,-
 0.00000013,-0.00000041,-0.00000223,-0.00000035,0.00000007,-0.00000024,
 -0.00000056,-0.00000013,-0.00000108,0.00000049,-0.00000049,-0.00000073
 ,-0.00000005,-0.00000023,0.00005372,-0.00004201,0.00006095,-0.00010304
 ,0.00013858,0.00011514,-0.00003964,0.00005602,0.00000332,0.00002727,-0
 .00004981,-0.00008524,0.00121774,-0.00164029,0.00038857,-0.00000499,0.
 00012031,0.00000327,0.00024747,0.00024231,0.00006109,-0.00002579,0.000
 10465,-0.00007856,-0.00044059,0.00106721,-0.00029859,-0.00983000,-0.03
 363888,-0.00492139,-0.05948182,-0.05187408,-0.00463859,0.00128469,0.00
 035061,0.00032107,-0.00677915,-0.00073544,0.00062454,0.00333119,0.0185
 2208,0.00170934,0.06920764,0.00001205,0.00005672,0.00000050,-0.0000175
 4,-0.00003085,-0.00000572,0.00000720,0.00001706,0.00000286,-0.00000684
 ,-0.00000276,-0.00000048,0.00001181,0.00000051,0.00000065,-0.00000289,
 -0.00000096,0.00000111,-0.00000643,-0.00000465,0.00000079,-0.00000021,
 0.00000244,-0.00000089,0.00000098,0.00000141,-0.00000119,0.00000063,-0
 .00000016,0.00000115,0.00000138,-0.00000007,-0.00000066,-0.00000415,-0
 .00000068,0.00000011,-0.00000011,-0.00000076,-0.00000016,-0.00000207,0
 .00000105,-0.00000087,-0.00000130,-0.00000024,-0.00000029,-0.00000990,
 -0.00008690,0.00003526,-0.00005487,0.00053882,-0.00003335,-0.00002074,
 0.00003794,-0.00000594,0.00002272,-0.00001633,-0.00005222,0.00061230,0
 .00032260,0.00018815,-0.00011898,0.00000633,-0.00001837,0.00026770,-0.
 00003398,0.00005778,-0.00007704,-0.00005956,-0.00000292,-0.00035814,0.
 00066362,-0.00037136,-0.00150553,-0.00482328,-0.00074900,-0.05204848,-
 0.28351681,-0.02797356,-0.00035953,0.00043343,0.00054101,-0.00082780,0
 .00123199,0.00067376,-0.00290237,-0.01714521,-0.00167653,0.05650043,0.
 31065612,0.00000613,-0.00002136,-0.00001695,-0.00000886,0.00000775,0.0
 0000198,0.00000176,-0.00000099,-0.00000426,-0.00000120,0.00000038,0.00
 000240,0.00000283,0.,0.00000076,-0.00000133,0.00000026,-0.00000022,-0.
 00000173,-0.00000138,0.00000023,0.00000014,0.00000029,-0.00000079,0.00
 000030,0.00000048,0.00000015,0.00000005,-0.00000023,-0.00000051,0.0000
 0030,0.,0.00000046,-0.00000094,-0.00000014,0.,-0.00000025,-0.00000023,
 0.00000014,-0.00000047,0.00000027,0.00000005,-0.00000034,-0.00000002,0
 .00000007,0.00001236,0.00001106,0.00001444,-0.00002268,0.00012202,-0.0
 0010802,0.00000500,-0.00001582,0.00001515,0.00001869,0.00002815,-0.000
 01663,-0.00029688,-0.00055553,0.00004172,-0.00003624,-0.00001555,-0.00
 000839,0.00003551,0.00003708,-0.00002859,0.00003651,-0.00016792,-0.000
 02625,-0.00029211,0.00012694,0.00015242,0.00110320,0.00348928,0.000131
 57,-0.00487786,-0.02856058,-0.05422180,-0.00027417,0.00066422,0.000218
 22,0.00060623,0.00068687,0.00082863,0.00429115,0.02399766,0.00195175,0
 .00807213,0.02802621,0.05554587,0.00003711,0.00004666,-0.00017984,-0.0
 0006522,0.00000905,0.00000629,0.00001966,-0.00001323,0.00000859,-0.000
 01664,0.00000155,0.00000106,0.00002446,0.00000349,-0.00000071,-0.00001
 193,0.00000358,-0.00000245,-0.00001116,-0.00000687,0.00000076,0.000000
 04,0.00000108,-0.00000162,0.00000240,0.00000224,0.00000060,0.00000035,
 -0.00000131,0.00000070,0.00000265,-0.00000093,0.00000112,-0.00000775,-
 0.00000099,-0.00000050,-0.00000240,-0.00000179,0.00000086,-0.00000282,
 0.00000147,-0.00000035,-0.00000217,-0.00000011,0.00000016,0.00005352,-
 0.00008762,0.00018961,0.00007960,-0.00029828,-0.00020132,0.00001383,-0
 .00000987,0.00001217,0.00009945,0.00010764,-0.00024073,0.00103190,-0.0
 0011917,0.00205828,-0.00000796,0.00000051,-0.00004463,0.00000622,-0.00
 001230,0.00003182,-0.00038082,0.00022994,-0.00136049,-0.00002010,-0.00
 001383,-0.00009699,-0.01251870,0.01027504,0.03127945,-0.06812348,0.018
 37675,0.06569181,-0.00675221,-0.00093627,0.00043446,0.00128948,-0.0003
 7167,-0.00028699,0.00466127,-0.00484402,-0.01776692,0.00191376,-0.0015
 7091,-0.00691550,0.07920896,-0.00001062,0.00002916,0.00002010,-0.00000
 457,-0.00000999,-0.00001962,-0.00000180,0.00000260,0.00001534,0.000000
 13,-0.00000210,-0.00000594,-0.00000201,0.00000045,0.00000041,0.0000003
 9,0.00000044,0.00000009,0.00000128,0.00000100,-0.00000008,0.00000015,-
 0.00000039,0.00000009,-0.00000024,-0.00000043,0.00000019,-0.00000003,0
 .00000009,0.00000048,-0.00000032,-0.00000016,-0.00000048,0.00000056,0.
 00000015,0.00000005,0.,0.00000014,-0.00000010,0.00000047,-0.00000036,-
 0.00000005,0.00000036,0.00000002,-0.00000008,-0.00008812,-0.00006401,0
 .00000391,0.00005687,-0.00001134,0.00026909,-0.00000116,0.00000877,-0.
 00000597,0.00000034,0.00000902,-0.00000193,0.00036895,-0.00012761,-0.0
 0050184,0.00006067,-0.00001640,-0.00001006,-0.00003119,-0.00003510,-0.
 00000784,0.00037336,0.00011592,0.00025469,0.00001149,0.00000693,-0.000
 11259,-0.00199560,0.00112739,0.00469743,0.01876795,-0.07004947,-0.0634
 6665,-0.00103910,0.00096715,0.00074471,0.00034296,0.00043802,0.0006639
 3,-0.00480410,0.00475061,0.01825471,0.00950220,-0.00882336,-0.03015395
 ,-0.02230189,0.07169519,-0.00007147,0.00004341,0.00005729,0.00001797,-
 0.00001349,0.00000022,-0.00001128,-0.00000369,0.00000168,0.00000873,0.
 00000245,-0.00000149,-0.00001840,-0.00000141,0.00000098,0.00000774,-0.
 00000169,0.00000132,0.00000789,0.00000540,0.00000068,-0.00000023,-0.00
 000161,0.00000249,-0.00000163,-0.00000217,-0.00000145,-0.00000060,0.00
 000157,-0.00000071,-0.00000189,0.00000029,-0.00000158,0.00000639,0.000
 00100,0.00000078,0.00000153,0.00000122,-0.00000132,0.00000219,-0.00000
 156,-0.00000018,0.00000192,-0.00000003,-0.00000060,-0.00020417,0.00002
 843,-0.00011547,0.00012256,0.00002070,0.00045700,0.00000627,0.00000521
 ,-0.00000341,0.00000341,-0.00004351,0.00003857,-0.00075629,0.00027710,
 0.00053255,0.00010086,-0.00001109,0.00000844,0.00001081,0.00001308,-0.
 00003342,0.00016938,-0.00026577,0.00063811,-0.00001622,0.00004812,-0.0
 0001495,0.00135933,-0.00099503,-0.00351882,0.06592912,-0.06290571,-0.2
 5927009,0.00049180,0.00072744,0.00106590,0.00034440,0.00054646,0.00026
 561,0.00540887,-0.00587334,-0.02119172,0.00070581,-0.00183431,-0.00323
 679,-0.07074564,0.06698882,0.28507922,0.00006491,0.00002144,0.00003311
 ,-0.00007417,0.00000195,-0.00000126,0.00003394,-0.00000111,-0.00000609
 ,-0.00002699,-0.00000141,0.00000367,0.00004936,0.00000575,0.00000170,-
 0.00002116,0.00000507,-0.00000335,-0.00002015,-0.00001078,0.00000215,0
 .00000087,0.00000655,-0.00000211,0.00000462,0.00000352,-0.00000138,0.0
 0000208,-0.00000550,0.00000270,0.00000512,-0.00000246,0.00000061,-0.00
 001743,-0.00000208,-0.00000066,-0.00000410,-0.00000442,0.00000101,-0.0
 0000511,0.00000326,-0.00000180,-0.00000501,-0.00000059,-0.00000035,0.0
 0001098,-0.00004657,-0.00000890,-0.00003203,0.00033786,-0.00043036,-0.
 00000549,0.00000132,-0.00000150,0.00001512,0.00000638,-0.00002372,-0.0
 0087767,-0.00071479,0.00074971,-0.00021372,-0.00001197,-0.00000247,0.0
 0001397,-0.00002796,0.00002998,-0.00000784,-0.00002095,-0.00009850,-0.
 00002007,0.00012080,-0.00000780,-0.00007751,0.00308716,-0.00367568,-0.
 01482005,-0.00327306,0.00308224,0.00043073,-0.00002811,0.00005519,0.00
 035203,-0.00006839,0.00004746,-0.30105941,-0.03765018,0.02893683,0.000
 37189,0.00067402,0.00028406,0.00046330,-0.00036633,-0.00059553,0.32770
 240,-0.00001776,0.00000349,-0.00001905,0.00002224,-0.00000721,0.000001
 00,-0.00000821,0.00000234,0.00000251,0.00000745,0.00000088,-0.00000180
 ,-0.00000869,-0.00000081,0.00000014,0.00000443,-0.00000185,0.00000067,
 0.00000342,0.00000186,-0.00000018,-0.00000030,-0.00000081,0.00000009,-
 0.00000061,-0.00000016,0.00000030,-0.00000043,0.00000088,-0.00000101,-
 0.00000079,0.00000053,0.00000017,0.00000335,0.00000033,0.00000012,0.00
 000091,0.00000066,0.,0.00000076,-0.00000029,0.00000034,0.00000052,0.00
 000015,0.00000012,-0.00000304,0.00001402,0.00003137,0.00010130,-0.0002
 8006,0.00031477,0.00000038,-0.00000149,-0.00000228,-0.00000960,-0.0000
 0488,-0.00000370,0.00108309,0.00076192,-0.00009034,0.00015343,0.000005
 44,0.00000555,-0.00001502,0.00001076,0.00000029,-0.00000852,0.00001745
 ,0.00003253,-0.00006312,-0.00000029,-0.00011516,0.00085549,-0.00212577
 ,0.00284211,0.01906396,0.00241125,-0.00325991,-0.00035487,-0.00010482,
 0.00008733,0.00033225,0.00038002,0.00017467,-0.03826880,-0.05435739,0.
 00387642,0.00000330,0.00030118,-0.00071262,-0.00066803,0.00050585,-0.0
 0036311,0.04026651,0.05523708,0.00002451,-0.00000770,0.00002778,-0.000
 02837,0.00001623,-0.00000166,0.00001296,-0.00001013,0.00000033,-0.0000
 1004,0.00000143,0.00000025,0.00001299,0.00000168,0.00000061,-0.0000062
 4,0.00000235,-0.00000139,-0.00000481,-0.00000237,0.00000054,0.00000044
 ,0.00000126,-0.00000025,0.00000103,0.00000034,-0.00000037,0.00000065,-
 0.00000162,0.00000075,0.00000115,-0.00000069,0.00000009,-0.00000477,-0
 .00000052,-0.00000028,-0.00000129,-0.00000103,0.00000020,-0.00000105,0
 .00000057,-0.00000032,-0.00000092,-0.00000013,-0.00000004,0.00000635,-
 0.00000114,-0.00005955,-0.00011436,0.00033261,-0.00039089,-0.00000184,
 0.00000525,-0.00000066,0.00001149,-0.00000827,-0.00000029,-0.00142255,
 -0.00023840,0.00075959,-0.00018897,-0.00001204,-0.00001049,0.00001786,
 -0.00001795,0.00001047,0.00008002,-0.00011314,0.00001820,0.00000119,0.
 00005861,0.00001084,-0.00102474,0.00304629,-0.00349114,-0.02393109,-0.
 00469000,0.00279814,-0.00026638,0.00023122,0.00034817,0.00031166,0.000
 00025,-0.00011454,0.02965438,0.00390077,-0.05182516,0.00069028,-0.0002
 4484,0.00076100,0.00016969,-0.00076447,0.00045962,-0.03024976,-0.00656
 354,0.05356677,-0.00001449,-0.00001739,0.00001036,0.00001343,0.0000141
 3,-0.00000654,-0.00000725,-0.00000630,-0.00000013,0.00000573,0.0000012
 4,0.00000138,-0.00001246,-0.00000140,-0.00000121,0.00000516,-0.0000006
 9,0.00000110,0.00000539,0.00000283,-0.00000095,-0.00000020,-0.00000183
 ,0.00000072,-0.00000136,-0.00000118,0.00000019,-0.00000034,0.00000135,
 -0.00000009,-0.00000128,0.00000055,-0.00000035,0.00000438,0.00000058,0
 .00000021,0.00000107,0.00000117,-0.00000041,0.00000136,-0.00000092,0.0
 0000037,0.00000141,0.00000008,0.00000002,-0.00001114,0.00001242,-0.000
 02098,0.00000471,-0.00009703,0.00005793,0.00000774,-0.00000653,0.00000
 114,-0.00000435,0.00000547,0.00001896,-0.00001818,0.00006720,-0.000162
 41,0.00004045,-0.00000734,0.00000373,-0.00003958,-0.00001201,-0.000015
 11,0.00002698,-0.00000046,0.00005460,-0.00003516,-0.00021019,0.0000302
 7,0.00118399,0.00139126,0.00053622,0.00272928,0.01771150,0.00234959,-0
 .00005420,-0.00000878,0.00003201,-0.00029662,-0.00039015,-0.00027431,-
 0.05855011,-0.04838256,-0.00465762,-0.00140560,0.00219968,-0.00258317,
 0.00041316,-0.00075930,0.00051183,-0.00496012,-0.03248072,-0.00438599,
 0.05983518,-0.00001959,0.00000708,-0.00001241,0.00002688,0.00000879,0.
 00000374,-0.00000768,-0.00000519,-0.00000500,0.00000825,0.00000494,0.0
 0000319,-0.00001159,-0.00000191,-0.00000101,0.00000762,-0.00000363,0.0
 0000217,0.00000392,0.00000115,-0.00000011,-0.00000075,-0.00000044,0.00
 000040,-0.00000118,-0.00000020,-0.00000049,-0.00000020,0.00000202,-0.0
 0000038,-0.00000099,0.00000109,-0.00000072,0.00000451,0.00000034,0.000
 00037,0.00000198,0.00000123,-0.00000053,0.00000049,-0.00000037,0.,0.00
 000088,0.00000005,-0.00000011,0.00002011,-0.00002095,0.00002167,0.0000
 0783,-0.00001841,0.00005002,-0.00000673,0.00001842,-0.00000325,-0.0000
 0906,-0.00001751,-0.00000112,0.00024777,0.00045232,0.00012354,0.000033
 54,-0.00000365,0.00000703,0.00004517,0.00002159,0.00000975,-0.00003713
 ,-0.00003156,-0.00002547,-0.00020176,0.00022161,-0.00015717,-0.0010152
 3,0.00024688,-0.00054615,-0.00314257,-0.01785093,-0.00182427,0.0000274
 7,-0.00004077,0.00000603,0.00110947,0.00052253,0.00014996,-0.04774656,
 -0.29393225,-0.02781314,0.00215587,-0.00039547,0.00317330,-0.00020404,
 0.00071440,0.00049669,-0.00109891,-0.00354039,-0.00057619,0.05147428,0
 .32164935,0.00000280,0.00000090,-0.00000197,-0.00000266,0.00000119,-0.
 00000223,0.00000167,0.00000136,0.00000240,-0.00000126,-0.00000047,-0.0
 0000155,0.00000320,0.00000028,0.00000005,-0.00000057,-0.00000065,0.000
 00014,-0.00000152,-0.00000094,-0.00000012,-0.00000016,0.00000059,-0.00
 000056,0.00000027,0.00000057,0.00000029,0.00000015,-0.00000017,0.00000
 021,0.00000040,0.00000008,0.00000011,-0.00000110,-0.00000023,-0.000000
 12,0.,-0.00000017,0.00000029,-0.00000055,0.00000041,-0.00000009,-0.000
 00046,0.,0.00000009,0.00000258,-0.00000159,0.00000527,0.00001153,-0.00
 012071,0.00002117,-0.00000029,0.00000557,-0.00000687,-0.00000338,-0.00
 001004,-0.00000494,0.00012259,0.00003572,-0.00009585,0.00001571,0.0000
 1090,-0.00000362,-0.00003855,-0.00000504,0.00000679,0.00002274,0.00003
 398,-0.00002533,0.00004050,-0.00016711,-0.00000537,0.00107420,0.000069
 77,0.00055871,0.00438148,0.02424691,0.00250085,-0.00010264,-0.00014896
 ,-0.00002241,-0.00034953,-0.00042906,0.00012950,-0.00460177,-0.0282865
 9,-0.05206251,-0.00302883,0.00295120,-0.00273212,0.00085468,-0.0001755
 8,0.00067667,0.00074723,0.00442606,-0.00042298,0.00791902,0.02804746,0
 .05392768,-0.00002082,-0.00000591,0.00002892,0.00002181,-0.00000034,-0
 .00001950,-0.00000924,-0.00000008,0.00001134,0.00000767,-0.00000002,-0
 .00000461,-0.00001354,-0.00000107,0.00000003,0.00000579,-0.00000102,0.
 00000037,0.00000597,0.00000339,-0.00000055,-0.00000013,-0.00000196,0.0
 0000064,-0.00000139,-0.00000109,0.00000061,-0.00000029,0.00000095,-0.0
 0000095,-0.00000143,0.00000073,0.00000006,0.00000486,0.00000055,0.0000
 0004,0.00000113,0.00000131,-0.00000011,0.00000156,-0.00000083,0.000000
 65,0.00000144,0.00000022,0.00000024,-0.00002680,0.00001514,-0.00003363
 ,-0.00000058,-0.00002606,0.00012501,0.00000182,-0.00000024,-0.00000057
 ,-0.00000789,-0.00001130,0.00002316,0.00000049,0.00017684,-0.00016044,
 0.00004540,-0.00000010,0.00000678,-0.00000676,0.00000192,-0.00001022,-
 0.00009311,0.00001054,0.00021255,0.00001272,-0.00003911,0.00001211,0.0
 0130714,-0.00070816,-0.00124681,0.00400293,-0.00545304,-0.01680717,-0.
 00035248,0.00030116,0.00030311,-0.00006037,-0.00001352,0.00002268,-0.0
 6629277,0.01774207,0.06220122,0.00043437,-0.00041510,0.00083737,-0.001
 39776,0.00191825,-0.00279543,-0.00727329,0.01000577,0.03064650,0.00113
 304,-0.00167206,-0.00706750,0.06857051,0.00000199,-0.00001979,-0.00000
 491,-0.00000038,0.00001349,0.00000935,-0.00000019,-0.00000788,-0.00000
 726,0.00000031,0.00000187,0.00000432,-0.00000277,0.00000007,-0.0000005
 1,0.00000009,0.00000097,0.00000003,0.00000158,0.00000121,-0.00000013,0
 .00000006,-0.00000067,0.00000080,-0.00000021,-0.00000082,-0.00000064,-
 0.00000017,0.00000010,0.,-0.00000032,-0.00000019,-0.00000020,0.0000008
 9,0.00000026,0.00000017,-0.00000007,0.00000003,-0.00000043,0.00000058,
 -0.00000045,0.,0.00000044,-0.00000004,-0.00000019,0.00002016,0.0000292
 8,-0.00001528,-0.00000538,-0.00000568,-0.00011829,0.00000321,-0.000009
 70,0.00000794,-0.00000041,0.00000736,0.00000503,-0.00018173,-0.0000512
 3,0.00015551,-0.00002369,-0.00000435,0.00000697,-0.00000134,-0.0000006
 7,-0.00000403,0.00002916,-0.00005066,-0.00010776,-0.00000218,-0.000036
 55,0.00001683,-0.00081524,0.00034117,-0.00009769,-0.00490415,0.0052452
 5,0.01841192,0.00012560,0.00013430,-0.00032359,0.00010045,-0.00003678,
 -0.00013382,0.01759579,-0.06874457,-0.06635269,-0.00081341,0.00067082,
 -0.00016592,0.00240413,-0.00123258,0.00311013,-0.00120600,0.00077014,0
 .00565528,0.00950104,-0.00801016,-0.03048561,-0.02182782,0.07099646,0.
 00000177,0.00000455,0.00004625,-0.00001658,-0.00000092,-0.00001748,0.0
 0000417,0.00000018,0.00001629,-0.00000489,-0.00000107,-0.00000628,0.00
 000500,0.00000161,0.00000193,-0.00000288,0.00000161,0.00000020,-0.0000
 0164,-0.00000009,0.00000099,0.00000021,0.00000077,0.00000088,0.0000004
 7,-0.00000065,-0.00000173,0.00000036,-0.00000080,0.00000100,0.00000049
 ,-0.00000078,-0.00000126,-0.00000209,0.,0.00000040,-0.00000054,-0.0000
 0073,-0.00000077,-0.00000020,-0.00000010,-0.00000084,-0.00000023,-0.00
 000026,-0.00000064,-0.00005901,0.00000485,-0.00005494,-0.00000206,0.00
 004636,0.00003817,-0.00000245,0.00001510,-0.00000740,0.00000365,-0.000
 02017,-0.00000318,-0.00026511,0.00018073,0.00034948,-0.00002011,0.0000
 0734,-0.00000414,-0.00000283,-0.00000100,0.00000391,0.00017450,-0.0001
 0341,0.00031667,0.00002419,0.00000833,-0.00003064,0.00130337,-0.000530
 41,0.00028980,0.00571800,-0.00631806,-0.02189480,-0.00122635,0.0001604
 8,0.00056219,-0.00004665,0.00001273,-0.00000699,0.06157340,-0.06591455
 ,-0.26932325,0.00031407,0.00049212,0.00073431,-0.00289743,0.00331321,-
 0.00189514,0.00113359,-0.00066387,-0.00244334,0.00057966,-0.00112779,-
 0.00244160,-0.06628586,0.07043467,0.29577196\\-0.00000390,0.00003446,-
 0.00001440,0.00000177,-0.00001786,0.00000796,0.00000020,-0.00000058,-0
 .00000019,-0.00000054,0.00000035,0.00000026,0.00000415,-0.00000075,0.0
 0000018,-0.00000169,-0.00000172,0.00000037,-0.00000422,0.00000174,-0.0
 0000088,0.00000329,-0.00000150,0.00000008,0.00000249,-0.00000372,0.000
 00122,0.00000326,0.00000267,-0.00000056,0.00000086,0.00000354,-0.00000
 102,-0.00000452,0.00000013,-0.00000041,-0.00000096,-0.00000351,0.00000
 097,-0.00000228,0.00000372,-0.00000148,-0.00000019,0.00000046,-0.00000
 035,0.00000127,-0.00001684,0.00000578,0.00000031,0.00000011,0.00000115
 ,0.00000033,0.00000152,0.00000084,-0.00000015,-0.00000119,0.00000117,0
 .00000006,0.00000051,0.00000064,-0.00000012,0.00000102,-0.00000130,-0.
 00000040,-0.00000164,-0.00000032,0.00000021,-0.00000039,-0.00000175,0.
 00000027,0.00000190,0.00000050,0.00000011,0.00000019,-0.00000012,-0.00
 000046,-0.00000042,0.00000033,0.00000013,0.00000016,0.00000176,-0.0000
 0013,-0.00000192,-0.00000010,0.00000059,0.00000015,-0.00000047,0.00000
 019,0.00000181,0.00000032,0.00000044,-0.00000044,-0.00000165,0.0000001
 5,-0.00000011,-0.00000009,-0.00000019,-0.00000210,-0.00000017,-0.00000
 032,0.00000022,0.00000172\\\@


 HO!  SUCH BUGS AND GOBLINS IN MY LIFE!

                            -- HAMLET, ACT 5, SCENE 2
 Job cpu time:       0 days  2 hours 23 minutes 53.2 seconds.
 Elapsed time:       0 days  0 hours  5 minutes 37.4 seconds.
 File lengths (MBytes):  RWF=    408 Int=      0 D2E=      0 Chk=     12 Scr=      1
 Normal termination of Gaussian 16 at Fri Sep 22 18:34:38 2023.
