 Entering Gaussian System, Link 0=/home/ubuntu/g16/g16
 Input=/home/ubuntu/ml products/molecule_75.gjf
 Output=/home/ubuntu/ml products/molecule_75.log
 Initial command:
 /home/ubuntu/g16/l1.exe "/home/ubuntu/Scratch/Gau-111846.inp" -scrdir="/home/ubuntu/Scratch/"
 Entering Link 1 = /home/ubuntu/g16/l1.exe PID=    111848.
  
 Copyright (c) 1988-2017, Gaussian, Inc.  All Rights Reserved.
  
 This is part of the Gaussian(R) 16 program.  It is based on
 the Gaussian(R) 09 system (copyright 2009, Gaussian, Inc.),
 the Gaussian(R) 03 system (copyright 2003, Gaussian, Inc.),
 the Gaussian(R) 98 system (copyright 1998, Gaussian, Inc.),
 the Gaussian(R) 94 system (copyright 1995, Gaussian, Inc.),
 the Gaussian 92(TM) system (copyright 1992, Gaussian, Inc.),
 the Gaussian 90(TM) system (copyright 1990, Gaussian, Inc.),
 the Gaussian 88(TM) system (copyright 1988, Gaussian, Inc.),
 the Gaussian 86(TM) system (copyright 1986, Carnegie Mellon
 University), and the Gaussian 82(TM) system (copyright 1983,
 Carnegie Mellon University). Gaussian is a federally registered
 trademark of Gaussian, Inc.
  
 This software contains proprietary and confidential information,
 including trade secrets, belonging to Gaussian, Inc.
  
 This software is provided under written license and may be
 used, copied, transmitted, or stored only in accord with that
 written license.
  
 The following legend is applicable only to US Government
 contracts under FAR:
  
                    RESTRICTED RIGHTS LEGEND
  
 Use, reproduction and disclosure by the US Government is
 subject to restrictions as set forth in subparagraphs (a)
 and (c) of the Commercial Computer Software - Restricted
 Rights clause in FAR 52.227-19.
  
 Gaussian, Inc.
 340 Quinnipiac St., Bldg. 40, Wallingford CT 06492
  
  
 ---------------------------------------------------------------
 Warning -- This program may not be used in any manner that
 competes with the business of Gaussian, Inc. or will provide
 assistance to any competitor of Gaussian, Inc.  The licensee
 of this program is prohibited from giving any competitor of
 Gaussian, Inc. access to this program.  By using this program,
 the user acknowledges that Gaussian, Inc. is engaged in the
 business of creating and licensing software in the field of
 computational chemistry and represents and warrants to the
 licensee that it is not a competitor of Gaussian, Inc. and that
 it will not use this program in any manner prohibited above.
 ---------------------------------------------------------------
  

 Cite this work as:
 Gaussian 16, Revision B.01,
 M. J. Frisch, G. W. Trucks, H. B. Schlegel, G. E. Scuseria, 
 M. A. Robb, J. R. Cheeseman, G. Scalmani, V. Barone, 
 G. A. Petersson, H. Nakatsuji, X. Li, M. Caricato, A. V. Marenich, 
 J. Bloino, B. G. Janesko, R. Gomperts, B. Mennucci, H. P. Hratchian, 
 J. V. Ortiz, A. F. Izmaylov, J. L. Sonnenberg, D. Williams-Young, 
 F. Ding, F. Lipparini, F. Egidi, J. Goings, B. Peng, A. Petrone, 
 T. Henderson, D. Ranasinghe, V. G. Zakrzewski, J. Gao, N. Rega, 
 G. Zheng, W. Liang, M. Hada, M. Ehara, K. Toyota, R. Fukuda, 
 J. Hasegawa, M. Ishida, T. Nakajima, Y. Honda, O. Kitao, H. Nakai, 
 T. Vreven, K. Throssell, J. A. Montgomery, Jr., J. E. Peralta, 
 F. Ogliaro, M. J. Bearpark, J. J. Heyd, E. N. Brothers, K. N. Kudin, 
 V. N. Staroverov, T. A. Keith, R. Kobayashi, J. Normand, 
 K. Raghavachari, A. P. Rendell, J. C. Burant, S. S. Iyengar, 
 J. Tomasi, M. Cossi, J. M. Millam, M. Klene, C. Adamo, R. Cammi, 
 J. W. Ochterski, R. L. Martin, K. Morokuma, O. Farkas, 
 J. B. Foresman, and D. J. Fox, Gaussian, Inc., Wallingford CT, 2016.
 
 ******************************************
 Gaussian 16:  EM64L-G16RevB.01 20-Dec-2017
                16-Sep-2023 
 ******************************************
 %nprocshared=30
 Will use up to   30 processors via shared memory.
 %mem=30GB
 %chk=molecule_75.chk
 ---------------------------------------------------------
 # opt freq b3lyp/6-31+g(d) empiricaldispersion=gd3 volume
 ---------------------------------------------------------
 1/18=20,19=15,26=3,38=1/1,3;
 2/9=110,12=2,17=6,18=5,40=1/2;
 3/5=1,6=6,7=11,11=2,25=1,30=1,71=1,74=-5,124=31/1,2,3;
 4//1;
 5/5=2,38=5/2;
 6/7=2,8=2,9=2,10=2,28=1,44=1/1,4;
 7//1,2,3,16;
 1/18=20,19=15,26=3/3(2);
 2/9=110/2;
 99//99;
 2/9=110/2;
 3/5=1,6=6,7=11,11=2,25=1,30=1,71=1,74=-5,124=31/1,2,3;
 4/5=5,16=3,69=1/1;
 5/5=2,38=5/2;
 7//1,2,3,16;
 1/18=20,19=15,26=3/3(-5);
 2/9=110/2;
 6/7=2,8=2,9=2,10=2,19=2,28=1,44=1/1,4;
 99/9=1/99;
 -------------
 ML molecule75
 -------------
 Symbolic Z-matrix:
 Charge =  0 Multiplicity = 1
 C                    -4.74942  -0.23058  -0.40002 
 C                    -4.8202    0.23854  -1.71867 
 C                    -4.55025   1.58484  -1.99888 
 C                    -4.20951   2.46203  -0.96044 
 C                    -4.13873   1.99291   0.35822 
 C                    -4.40868   0.64661   0.63842 
 H                    -5.08036  -0.43121  -2.51155 
 H                    -3.87857   2.66266   1.15109 
 H                    -4.35464   0.28843   1.64524 
 O                    -3.91049   3.9533   -1.27081 
 C                    -3.81752   4.69985  -2.77936 
 C                    -4.13168   3.88761  -3.87731 
 C                    -3.30395   5.98751  -2.98454 
 C                    -3.93225   4.36302  -5.18043 
 C                    -3.10452   6.46292  -4.28767 
 C                    -3.41867   5.65068  -5.38561 
 H                    -4.17211   3.74285  -6.01874 
 H                    -2.7124    7.44608  -4.44432 
 H                    -4.60429   1.94302  -3.0057 
 H                    -4.5238    2.90445  -3.72065 
 N                    -5.03258  -1.64279  -0.1061 
 O                    -4.12167  -2.42275  -0.12371 
 O                    -6.16321  -1.95858   0.13958 
 H                    -3.06408   6.60768  -2.14623 
 Cl                   -3.19953   6.17311  -6.81762 
 
 Add virtual bond connecting atoms H20        and H19        Dist= 2.27D+00.

 GradGradGradGradGradGradGradGradGradGradGradGradGradGradGradGradGradGrad
 Berny optimization.
 Initialization pass.
                           ----------------------------
                           !    Initial Parameters    !
                           ! (Angstroms and Degrees)  !
 --------------------------                            --------------------------
 ! Name  Definition              Value          Derivative Info.                !
 --------------------------------------------------------------------------------
 ! R1    R(1,2)                  1.4014         estimate D2E/DX2                !
 ! R2    R(1,6)                  1.4014         estimate D2E/DX2                !
 ! R3    R(1,21)                 1.47           estimate D2E/DX2                !
 ! R4    R(2,3)                  1.4014         estimate D2E/DX2                !
 ! R5    R(2,7)                  1.07           estimate D2E/DX2                !
 ! R6    R(3,4)                  1.4014         estimate D2E/DX2                !
 ! R7    R(3,19)                 1.07           estimate D2E/DX2                !
 ! R8    R(4,5)                  1.4014         estimate D2E/DX2                !
 ! R9    R(4,10)                 1.5523         estimate D2E/DX2                !
 ! R10   R(5,6)                  1.4014         estimate D2E/DX2                !
 ! R11   R(5,8)                  1.07           estimate D2E/DX2                !
 ! R12   R(6,9)                  1.07           estimate D2E/DX2                !
 ! R13   R(11,12)                1.4014         estimate D2E/DX2                !
 ! R14   R(11,13)                1.4014         estimate D2E/DX2                !
 ! R15   R(12,14)                1.4014         estimate D2E/DX2                !
 ! R16   R(12,20)                1.07           estimate D2E/DX2                !
 ! R17   R(13,15)                1.4014         estimate D2E/DX2                !
 ! R18   R(13,24)                1.07           estimate D2E/DX2                !
 ! R19   R(14,16)                1.4014         estimate D2E/DX2                !
 ! R20   R(14,17)                1.07           estimate D2E/DX2                !
 ! R21   R(15,16)                1.4014         estimate D2E/DX2                !
 ! R22   R(15,18)                1.07           estimate D2E/DX2                !
 ! R23   R(16,25)                1.54           estimate D2E/DX2                !
 ! R24   R(19,20)                1.2008         estimate D2E/DX2                !
 ! R25   R(21,22)                1.1993         estimate D2E/DX2                !
 ! R26   R(21,23)                1.1993         estimate D2E/DX2                !
 ! A1    A(2,1,6)              120.0            estimate D2E/DX2                !
 ! A2    A(2,1,21)             120.0            estimate D2E/DX2                !
 ! A3    A(6,1,21)             120.0            estimate D2E/DX2                !
 ! A4    A(1,2,3)              120.0            estimate D2E/DX2                !
 ! A5    A(1,2,7)              120.0            estimate D2E/DX2                !
 ! A6    A(3,2,7)              120.0            estimate D2E/DX2                !
 ! A7    A(2,3,4)              120.0            estimate D2E/DX2                !
 ! A8    A(2,3,19)             120.0            estimate D2E/DX2                !
 ! A9    A(4,3,19)             120.0            estimate D2E/DX2                !
 ! A10   A(3,4,5)              120.0            estimate D2E/DX2                !
 ! A11   A(3,4,10)             120.0            estimate D2E/DX2                !
 ! A12   A(5,4,10)             120.0            estimate D2E/DX2                !
 ! A13   A(4,5,6)              120.0            estimate D2E/DX2                !
 ! A14   A(4,5,8)              120.0            estimate D2E/DX2                !
 ! A15   A(6,5,8)              120.0            estimate D2E/DX2                !
 ! A16   A(1,6,5)              120.0            estimate D2E/DX2                !
 ! A17   A(1,6,9)              120.0            estimate D2E/DX2                !
 ! A18   A(5,6,9)              120.0            estimate D2E/DX2                !
 ! A19   A(12,11,13)           120.0            estimate D2E/DX2                !
 ! A20   A(11,12,14)           120.0            estimate D2E/DX2                !
 ! A21   A(11,12,20)           120.0            estimate D2E/DX2                !
 ! A22   A(14,12,20)           120.0            estimate D2E/DX2                !
 ! A23   A(11,13,15)           120.0            estimate D2E/DX2                !
 ! A24   A(11,13,24)           120.0            estimate D2E/DX2                !
 ! A25   A(15,13,24)           120.0            estimate D2E/DX2                !
 ! A26   A(12,14,16)           120.0            estimate D2E/DX2                !
 ! A27   A(12,14,17)           120.0            estimate D2E/DX2                !
 ! A28   A(16,14,17)           120.0            estimate D2E/DX2                !
 ! A29   A(13,15,16)           120.0            estimate D2E/DX2                !
 ! A30   A(13,15,18)           120.0            estimate D2E/DX2                !
 ! A31   A(16,15,18)           120.0            estimate D2E/DX2                !
 ! A32   A(14,16,15)           120.0            estimate D2E/DX2                !
 ! A33   A(14,16,25)           120.0            estimate D2E/DX2                !
 ! A34   A(15,16,25)           120.0            estimate D2E/DX2                !
 ! A35   A(3,19,20)            145.574          estimate D2E/DX2                !
 ! A36   A(12,20,19)           147.929          estimate D2E/DX2                !
 ! A37   A(1,21,22)            118.3934         estimate D2E/DX2                !
 ! A38   A(1,21,23)            118.3927         estimate D2E/DX2                !
 ! A39   A(22,21,23)           123.2139         estimate D2E/DX2                !
 ! D1    D(6,1,2,3)              0.0001         estimate D2E/DX2                !
 ! D2    D(6,1,2,7)           -179.9998         estimate D2E/DX2                !
 ! D3    D(21,1,2,3)          -179.9999         estimate D2E/DX2                !
 ! D4    D(21,1,2,7)             0.0002         estimate D2E/DX2                !
 ! D5    D(2,1,6,5)             -0.0001         estimate D2E/DX2                !
 ! D6    D(2,1,6,9)            179.9998         estimate D2E/DX2                !
 ! D7    D(21,1,6,5)           179.9999         estimate D2E/DX2                !
 ! D8    D(21,1,6,9)            -0.0002         estimate D2E/DX2                !
 ! D9    D(2,1,21,22)           90.3367         estimate D2E/DX2                !
 ! D10   D(2,1,21,23)          -89.6634         estimate D2E/DX2                !
 ! D11   D(6,1,21,22)          -89.6633         estimate D2E/DX2                !
 ! D12   D(6,1,21,23)           90.3367         estimate D2E/DX2                !
 ! D13   D(1,2,3,4)              0.0001         estimate D2E/DX2                !
 ! D14   D(1,2,3,19)          -179.9999         estimate D2E/DX2                !
 ! D15   D(7,2,3,4)            179.9999         estimate D2E/DX2                !
 ! D16   D(7,2,3,19)            -0.0001         estimate D2E/DX2                !
 ! D17   D(2,3,4,5)             -0.0002         estimate D2E/DX2                !
 ! D18   D(2,3,4,10)           179.9998         estimate D2E/DX2                !
 ! D19   D(19,3,4,5)           179.9998         estimate D2E/DX2                !
 ! D20   D(19,3,4,10)           -0.0002         estimate D2E/DX2                !
 ! D21   D(2,3,19,20)          176.508          estimate D2E/DX2                !
 ! D22   D(4,3,19,20)           -3.492          estimate D2E/DX2                !
 ! D23   D(3,4,5,6)              0.0001         estimate D2E/DX2                !
 ! D24   D(3,4,5,8)           -180.0            estimate D2E/DX2                !
 ! D25   D(10,4,5,6)          -179.9999         estimate D2E/DX2                !
 ! D26   D(10,4,5,8)             0.0            estimate D2E/DX2                !
 ! D27   D(4,5,6,1)              0.0            estimate D2E/DX2                !
 ! D28   D(4,5,6,9)           -179.9999         estimate D2E/DX2                !
 ! D29   D(8,5,6,1)           -179.9999         estimate D2E/DX2                !
 ! D30   D(8,5,6,9)              0.0002         estimate D2E/DX2                !
 ! D31   D(13,11,12,14)          0.0002         estimate D2E/DX2                !
 ! D32   D(13,11,12,20)       -179.9998         estimate D2E/DX2                !
 ! D33   D(12,11,13,15)          0.0            estimate D2E/DX2                !
 ! D34   D(12,11,13,24)        180.0            estimate D2E/DX2                !
 ! D35   D(11,12,14,16)         -0.0002         estimate D2E/DX2                !
 ! D36   D(11,12,14,17)        179.9998         estimate D2E/DX2                !
 ! D37   D(20,12,14,16)        179.9998         estimate D2E/DX2                !
 ! D38   D(20,12,14,17)         -0.0002         estimate D2E/DX2                !
 ! D39   D(11,12,20,19)        -26.6215         estimate D2E/DX2                !
 ! D40   D(14,12,20,19)        153.3785         estimate D2E/DX2                !
 ! D41   D(11,13,15,16)         -0.0001         estimate D2E/DX2                !
 ! D42   D(11,13,15,18)        179.9999         estimate D2E/DX2                !
 ! D43   D(24,13,15,16)        179.9999         estimate D2E/DX2                !
 ! D44   D(24,13,15,18)         -0.0001         estimate D2E/DX2                !
 ! D45   D(12,14,16,15)          0.0001         estimate D2E/DX2                !
 ! D46   D(12,14,16,25)       -179.9999         estimate D2E/DX2                !
 ! D47   D(17,14,16,15)       -179.9999         estimate D2E/DX2                !
 ! D48   D(17,14,16,25)          0.0001         estimate D2E/DX2                !
 ! D49   D(13,15,16,14)          0.0001         estimate D2E/DX2                !
 ! D50   D(13,15,16,25)       -179.9999         estimate D2E/DX2                !
 ! D51   D(18,15,16,14)       -180.0            estimate D2E/DX2                !
 ! D52   D(18,15,16,25)          0.0            estimate D2E/DX2                !
 ! D53   D(3,19,20,12)          24.9605         estimate D2E/DX2                !
 --------------------------------------------------------------------------------
 Trust Radius=3.00D-01 FncErr=1.00D-07 GrdErr=1.00D-06 EigMax=2.50D+02 EigMin=1.00D-04
 Number of steps in this run=    128 maximum allowed number of steps=    150.
 GradGradGradGradGradGradGradGradGradGradGradGradGradGradGradGradGradGrad

                          Input orientation:                          
 ---------------------------------------------------------------------
 Center     Atomic      Atomic             Coordinates (Angstroms)
 Number     Number       Type             X           Y           Z
 ---------------------------------------------------------------------
      1          6           0       -4.749416   -0.230579   -0.400021
      2          6           0       -4.820199    0.238538   -1.718672
      3          6           0       -4.550247    1.584841   -1.998879
      4          6           0       -4.209510    2.462026   -0.960435
      5          6           0       -4.138728    1.992910    0.358216
      6          6           0       -4.408682    0.646607    0.638423
      7          1           0       -5.080361   -0.431212   -2.511547
      8          1           0       -3.878568    2.662660    1.151091
      9          1           0       -4.354640    0.288426    1.645243
     10          8           0       -3.910486    3.953296   -1.270814
     11          6           0       -3.817523    4.699853   -2.779363
     12          6           0       -4.131676    3.887607   -3.877310
     13          6           0       -3.303947    5.987511   -2.984541
     14          6           0       -3.932249    4.363019   -5.180435
     15          6           0       -3.104523    6.462923   -4.287666
     16          6           0       -3.418674    5.650677   -5.385613
     17          1           0       -4.172109    3.742850   -6.018741
     18          1           0       -2.712397    7.446079   -4.444324
     19          1           0       -4.604292    1.943023   -3.005698
     20          1           0       -4.523805    2.904453   -3.720651
     21          7           0       -5.032581   -1.642786   -0.106098
     22          8           0       -4.121672   -2.422755   -0.123715
     23          8           0       -6.163210   -1.958585    0.139583
     24          1           0       -3.064084    6.607678   -2.146234
     25         17           0       -3.199525    6.173108   -6.817619
 ---------------------------------------------------------------------
                    Distance matrix (angstroms):
                    1          2          3          4          5
     1  C    0.000000
     2  C    1.401400   0.000000
     3  C    2.427296   1.401400   0.000000
     4  C    2.802800   2.427296   1.401400   0.000000
     5  C    2.427296   2.802800   2.427296   1.401400   0.000000
     6  C    1.401400   2.427296   2.802800   2.427296   1.401400
     7  H    2.146700   1.070000   2.146700   3.396345   3.872800
     8  H    3.396345   3.872800   3.396345   2.146700   1.070000
     9  H    2.146700   3.396345   3.872800   3.396345   2.146700
    10  O    4.355100   3.850660   2.559092   1.552300   2.559092
    11  C    5.553274   4.694012   3.293833   2.910330   4.156335
    12  C    5.425182   4.295286   3.001072   3.247537   4.640001
    13  C    6.887218   6.078827   4.680630   4.164864   5.275199
    14  C    6.679914   5.457435   4.268781   4.636706   6.027993
    15  C    7.913434   6.948831   5.578920   5.319647   6.529535
    16  C    7.824077   6.685954   5.411233   5.511362   6.847577
    17  H    6.905899   5.584874   4.578131   5.218081   6.612790
    18  H    8.912739   7.988783   6.611506   6.262556   7.405125
    19  H    3.396345   2.146700   1.070000   2.146700   3.396345
    20  H    4.572298   3.347069   2.169464   2.813062   4.197184
    21  N    1.470000   2.486942   3.772644   4.272800   3.772644
    22  O    2.296964   3.180300   4.445306   4.956703   4.441919
    23  O    2.296952   3.175553   4.441907   4.956691   4.445293
    24  H    7.256126   6.620627   5.240161   4.461452   5.359405
    25  Cl   9.197550   7.990304   6.789469   7.007053   8.357557
                    6          7          8          9         10
     6  C    0.000000
     7  H    3.396345   0.000000
     8  H    2.146700   4.942800   0.000000
     9  H    1.070000   4.280590   2.471400   0.000000
    10  O    3.850660   4.704459   2.744520   4.704459   0.000000
    11  C    5.334748   5.290965   4.427454   6.271070   1.685736
    12  C    5.565309   4.627906   5.181638   6.595635   2.616688
    13  C    6.547638   6.676779   5.337441   7.417441   2.728146
    14  C    6.920825   5.605869   6.556091   7.960565   3.931091
    15  C    7.732834   7.388345   6.679913   8.653706   4.006145
    16  C    7.893659   6.928985   7.201962   8.891721   4.478231
    17  H    7.345783   5.527036   7.256685   8.408509   4.759784
    18  H    8.657051   8.449532   7.453169   9.540010   4.868893
    19  H    3.872800   2.471400   4.280590   4.942800   2.744520
    20  H    4.910464   3.591427   4.920231   5.972021   2.734581
    21  N    2.486942   2.693767   4.631321   2.693766   5.825100
    22  O    3.175565   3.253778   5.248398   3.245611   6.481856
    23  O    3.180288   3.245600   5.253441   3.253766   6.481845
    24  H    6.715403   7.331085   5.205661   7.481563   2.920360
    25  Cl   9.359318   8.105358   8.734110  10.372261   6.016649
                   11         12         13         14         15
    11  C    0.000000
    12  C    1.401400   0.000000
    13  C    1.401400   2.427296   0.000000
    14  C    2.427296   1.401400   2.802800   0.000000
    15  C    2.427296   2.802800   1.401400   2.427296   0.000000
    16  C    2.802800   2.427296   2.427296   1.401400   1.401400
    17  H    3.396345   2.146700   3.872800   1.070000   3.396345
    18  H    3.396345   3.872800   2.146700   3.396345   1.070000
    19  H    2.875821   2.182769   4.248439   3.322273   4.931759
    20  H    2.146700   1.070000   3.396345   2.146700   3.872800
    21  N    6.989404   6.754177   8.336368   7.939100   9.322309
    22  O    7.607662   7.342360   8.921075   8.464811   9.865514
    23  O    7.639194   7.378382   9.004220   8.558180   9.993893
    24  H    2.146700   3.396345   1.070000   3.872800   2.146700
    25  Cl   4.342800   3.838989   3.838989   2.548270   2.548270
                   16         17         18         19         20
    16  C    0.000000
    17  H    2.146700   0.000000
    18  H    2.146700   4.280590   0.000000
    19  H    4.562498   3.536183   5.994376   0.000000
    20  H    3.396345   2.471400   4.942800   1.200826   0.000000
    21  N    9.147271   8.043931  10.334937   4.631321   5.831057
    22  O    9.662406   8.530449  10.864972   5.253453   6.440404
    23  O    9.795975   8.625300  11.016716   5.248386   6.421697
    24  H    3.396345   4.942800   2.471400   4.986976   4.280590
    25  Cl   1.540000   2.736837   2.736837   5.864957   4.693509
                   21         22         23         24         25
    21  N    0.000000
    22  O    1.199341   0.000000
    23  O    1.199337   2.110132   0.000000
    24  H    8.723949   9.314387   9.392040   0.000000
    25  Cl  10.463880  10.933781  11.104526   4.693509   0.000000
 Stoichiometry    C12H8ClNO3
 Framework group  C1[X(C12H8ClNO3)]
 Deg. of freedom    69
 Full point group                 C1      NOp   1
 Largest Abelian subgroup         C1      NOp   1
 Largest concise Abelian subgroup C1      NOp   1
                         Standard orientation:                         
 ---------------------------------------------------------------------
 Center     Atomic      Atomic             Coordinates (Angstroms)
 Number     Number       Type             X           Y           Z
 ---------------------------------------------------------------------
      1          6           0       -3.619306   -0.160624    0.025644
      2          6           0       -2.465248   -0.939642   -0.133112
      3          6           0       -1.206153   -0.325916   -0.177176
      4          6           0       -1.101115    1.066827   -0.062482
      5          6           0       -2.255173    1.845845    0.096273
      6          6           0       -3.514269    1.232120    0.140336
      7          1           0       -2.545447   -2.003032   -0.220684
      8          1           0       -2.174975    2.909236    0.183844
      9          1           0       -4.395418    1.826918    0.261546
     10          8           0        0.293557    1.746638   -0.111287
     11          6           0        1.806507    1.005697   -0.172097
     12          6           0        1.792597   -0.391845   -0.275081
     13          6           0        3.017079    1.681143    0.033352
     14          6           0        2.989259   -1.113940   -0.172612
     15          6           0        4.213741    0.959048    0.135818
     16          6           0        4.199831   -0.438494    0.032837
     17          1           0        2.978639   -2.180995   -0.251239
     18          1           0        5.138040    1.474766    0.292683
     19          1           0       -0.325004   -0.920713   -0.298391
     20          1           0        0.868299   -0.907563   -0.431949
     21          7           0       -4.940035   -0.804392    0.071867
     22          8           0       -5.373383   -1.141056    1.138303
     23          8           0       -5.531479   -0.967244   -0.958707
     24          1           0        3.027699    2.748197    0.111983
     25         17           0        5.514845   -1.232005    0.145438
 ---------------------------------------------------------------------
 Rotational constants (GHZ):           1.3305733           0.1379166           0.1274758
 Standard basis: 6-31+G(d) (6D, 7F)
 There are   343 symmetry adapted cartesian basis functions of A   symmetry.
 There are   343 symmetry adapted basis functions of A   symmetry.
   343 basis functions,   600 primitive gaussians,   343 cartesian basis functions
    64 alpha electrons       64 beta electrons
       nuclear repulsion energy      1143.5309919335 Hartrees.
 NAtoms=   25 NActive=   25 NUniq=   25 SFac= 1.00D+00 NAtFMM=   60 NAOKFM=F Big=F
 Integral buffers will be    131072 words long.
 Raffenetti 2 integral format.
 Two-electron integral symmetry is turned on.
 Nuclear repulsion after empirical dispersion term =     1143.5098814254 Hartrees.
 One-electron integrals computed using PRISM.
 NBasis=   343 RedAO= T EigKep=  1.38D-06  NBF=   343
 NBsUse=   342 1.00D-06 EigRej=  3.85D-07 NBFU=   342
 ExpMin= 4.38D-02 ExpMax= 2.52D+04 ExpMxC= 3.78D+03 IAcc=3 IRadAn=         5 AccDes= 0.00D+00
 Harris functional with IExCor=  402 and IRadAn=       5 diagonalized for initial guess.
 HarFok:  IExCor=  402 AccDes= 0.00D+00 IRadAn=         5 IDoV= 1 UseB2=F ITyADJ=14
 ICtDFT=  3500011 ScaDFX=  1.000000  1.000000  1.000000  1.000000
 FoFCou: FMM=F IPFlag=           0 FMFlag=      100000 FMFlg1=           0
         NFxFlg=           0 DoJE=T BraDBF=F KetDBF=T FulRan=T
         wScrn=  0.000000 ICntrl=       500 IOpCl=  0 I1Cent=   200000004 NGrid=           0
         NMat0=    1 NMatS0=      1 NMatT0=    0 NMatD0=    1 NMtDS0=    0 NMtDT0=    0
 Petite list used in FoFCou.
 Requested convergence on RMS density matrix=1.00D-08 within 128 cycles.
 Requested convergence on MAX density matrix=1.00D-06.
 Requested convergence on             energy=1.00D-06.
 No special actions if energy rises.
 SCF Done:  E(RB3LYP) =  -1202.52678266     A.U. after   16 cycles
            NFock= 16  Conv=0.57D-08     -V/T= 2.0068

 **********************************************************************

            Population analysis using the SCF Density.

 **********************************************************************

 Orbital symmetries:
       Occupied  (A) (A) (A) (A) (A) (A) (A) (A) (A) (A) (A) (A)
                 (A) (A) (A) (A) (A) (A) (A) (A) (A) (A) (A) (A)
                 (A) (A) (A) (A) (A) (A) (A) (A) (A) (A) (A) (A)
                 (A) (A) (A) (A) (A) (A) (A) (A) (A) (A) (A) (A)
                 (A) (A) (A) (A) (A) (A) (A) (A) (A) (A) (A) (A)
                 (A) (A) (A) (A)
       Virtual   (A) (A) (A) (A) (A) (A) (A) (A) (A) (A) (A) (A)
                 (A) (A) (A) (A) (A) (A) (A) (A) (A) (A) (A) (A)
                 (A) (A) (A) (A) (A) (A) (A) (A) (A) (A) (A) (A)
                 (A) (A) (A) (A) (A) (A) (A) (A) (A) (A) (A) (A)
                 (A) (A) (A) (A) (A) (A) (A) (A) (A) (A) (A) (A)
                 (A) (A) (A) (A) (A) (A) (A) (A) (A) (A) (A) (A)
                 (A) (A) (A) (A) (A) (A) (A) (A) (A) (A) (A) (A)
                 (A) (A) (A) (A) (A) (A) (A) (A) (A) (A) (A) (A)
                 (A) (A) (A) (A) (A) (A) (A) (A) (A) (A) (A) (A)
                 (A) (A) (A) (A) (A) (A) (A) (A) (A) (A) (A) (A)
                 (A) (A) (A) (A) (A) (A) (A) (A) (A) (A) (A) (A)
                 (A) (A) (A) (A) (A) (A) (A) (A) (A) (A) (A) (A)
                 (A) (A) (A) (A) (A) (A) (A) (A) (A) (A) (A) (A)
                 (A) (A) (A) (A) (A) (A) (A) (A) (A) (A) (A) (A)
                 (A) (A) (A) (A) (A) (A) (A) (A) (A) (A) (A) (A)
                 (A) (A) (A) (A) (A) (A) (A) (A) (A) (A) (A) (A)
                 (A) (A) (A) (A) (A) (A) (A) (A) (A) (A) (A) (A)
                 (A) (A) (A) (A) (A) (A) (A) (A) (A) (A) (A) (A)
                 (A) (A) (A) (A) (A) (A) (A) (A) (A) (A) (A) (A)
                 (A) (A) (A) (A) (A) (A) (A) (A) (A) (A) (A) (A)
                 (A) (A) (A) (A) (A) (A) (A) (A) (A) (A) (A) (A)
                 (A) (A) (A) (A) (A) (A) (A) (A) (A) (A) (A) (A)
                 (A) (A) (A) (A) (A) (A) (A) (A) (A) (A) (A) (A)
                 (A) (A)
 The electronic state is 1-A.
 Alpha  occ. eigenvalues -- -101.57770 -19.20611 -19.20609 -19.20358 -14.59451
 Alpha  occ. eigenvalues --  -10.29542 -10.29510 -10.27128 -10.26728 -10.24087
 Alpha  occ. eigenvalues --  -10.23955 -10.23580 -10.23316 -10.23023 -10.22858
 Alpha  occ. eigenvalues --  -10.22833 -10.22747  -9.49829  -7.26165  -7.25252
 Alpha  occ. eigenvalues --   -7.25171  -1.27588  -1.09167  -0.98951  -0.96819
 Alpha  occ. eigenvalues --   -0.90356  -0.87236  -0.82168  -0.79501  -0.78683
 Alpha  occ. eigenvalues --   -0.75017  -0.71010  -0.67231  -0.65183  -0.62368
 Alpha  occ. eigenvalues --   -0.61588  -0.57935  -0.56673  -0.55170  -0.53364
 Alpha  occ. eigenvalues --   -0.53115  -0.50929  -0.50829  -0.48818  -0.47993
 Alpha  occ. eigenvalues --   -0.47349  -0.45698  -0.44657  -0.44405  -0.41972
 Alpha  occ. eigenvalues --   -0.41440  -0.41191  -0.38384  -0.37922  -0.34923
 Alpha  occ. eigenvalues --   -0.33809  -0.33560  -0.33314  -0.32795  -0.31528
 Alpha  occ. eigenvalues --   -0.29314  -0.28881  -0.27218  -0.24528
 Alpha virt. eigenvalues --   -0.08376  -0.05377  -0.05174  -0.04368  -0.04168
 Alpha virt. eigenvalues --   -0.03188  -0.00603   0.00239   0.00971   0.01686
 Alpha virt. eigenvalues --    0.02607   0.03943   0.03993   0.04532   0.04820
 Alpha virt. eigenvalues --    0.04984   0.05425   0.05711   0.06980   0.07278
 Alpha virt. eigenvalues --    0.07627   0.07933   0.08287   0.08758   0.09644
 Alpha virt. eigenvalues --    0.10708   0.10807   0.11484   0.11577   0.11937
 Alpha virt. eigenvalues --    0.12184   0.12415   0.12457   0.13361   0.13491
 Alpha virt. eigenvalues --    0.13874   0.14333   0.14540   0.14791   0.15194
 Alpha virt. eigenvalues --    0.15722   0.15870   0.16562   0.16868   0.18107
 Alpha virt. eigenvalues --    0.18512   0.18858   0.19029   0.19343   0.19847
 Alpha virt. eigenvalues --    0.19934   0.20558   0.20658   0.21320   0.21816
 Alpha virt. eigenvalues --    0.22176   0.23216   0.23359   0.23601   0.23877
 Alpha virt. eigenvalues --    0.24430   0.24777   0.25099   0.25561   0.26106
 Alpha virt. eigenvalues --    0.26466   0.26640   0.27374   0.27906   0.28075
 Alpha virt. eigenvalues --    0.28717   0.29490   0.29810   0.29980   0.30563
 Alpha virt. eigenvalues --    0.31462   0.31605   0.32209   0.32724   0.33446
 Alpha virt. eigenvalues --    0.33730   0.35415   0.35635   0.36843   0.37476
 Alpha virt. eigenvalues --    0.38037   0.39219   0.40021   0.40237   0.40589
 Alpha virt. eigenvalues --    0.41340   0.43487   0.44318   0.45947   0.47136
 Alpha virt. eigenvalues --    0.48990   0.49318   0.54701   0.55842   0.58615
 Alpha virt. eigenvalues --    0.59032   0.59739   0.60886   0.63734   0.64463
 Alpha virt. eigenvalues --    0.65450   0.65931   0.66348   0.67071   0.68775
 Alpha virt. eigenvalues --    0.69158   0.69776   0.70347   0.71210   0.71501
 Alpha virt. eigenvalues --    0.73805   0.74156   0.74798   0.75151   0.75659
 Alpha virt. eigenvalues --    0.76286   0.76590   0.78274   0.79011   0.81043
 Alpha virt. eigenvalues --    0.81336   0.82823   0.83865   0.86299   0.86867
 Alpha virt. eigenvalues --    0.88424   0.88904   0.90009   0.92055   0.92855
 Alpha virt. eigenvalues --    0.93055   0.94590   0.95721   0.96182   0.98249
 Alpha virt. eigenvalues --    0.99305   1.00889   1.02853   1.05666   1.07740
 Alpha virt. eigenvalues --    1.08824   1.09168   1.10381   1.12546   1.13065
 Alpha virt. eigenvalues --    1.14306   1.15356   1.16725   1.17193   1.17774
 Alpha virt. eigenvalues --    1.18885   1.19233   1.20582   1.21165   1.22202
 Alpha virt. eigenvalues --    1.23171   1.24698   1.25892   1.26545   1.27993
 Alpha virt. eigenvalues --    1.28041   1.28537   1.30458   1.31799   1.33066
 Alpha virt. eigenvalues --    1.34104   1.35895   1.38841   1.38921   1.39779
 Alpha virt. eigenvalues --    1.41887   1.42232   1.43634   1.44222   1.45067
 Alpha virt. eigenvalues --    1.45683   1.46254   1.46694   1.47718   1.49592
 Alpha virt. eigenvalues --    1.53645   1.60740   1.61385   1.64869   1.65510
 Alpha virt. eigenvalues --    1.68351   1.71132   1.76608   1.77402   1.78770
 Alpha virt. eigenvalues --    1.79476   1.79563   1.79695   1.81151   1.82439
 Alpha virt. eigenvalues --    1.84367   1.85631   1.88612   1.89145   1.93866
 Alpha virt. eigenvalues --    1.95003   1.96289   1.96728   1.98529   2.00919
 Alpha virt. eigenvalues --    2.01537   2.03192   2.06443   2.07069   2.09720
 Alpha virt. eigenvalues --    2.10511   2.10828   2.11790   2.12250   2.12934
 Alpha virt. eigenvalues --    2.14059   2.14538   2.16716   2.20245   2.23030
 Alpha virt. eigenvalues --    2.24560   2.24894   2.25738   2.26552   2.27597
 Alpha virt. eigenvalues --    2.29364   2.35510   2.40696   2.41881   2.45771
 Alpha virt. eigenvalues --    2.48727   2.57237   2.59032   2.59400   2.60137
 Alpha virt. eigenvalues --    2.61102   2.65347   2.69745   2.71082   2.71404
 Alpha virt. eigenvalues --    2.73145   2.76336   2.77043   2.78492   2.80058
 Alpha virt. eigenvalues --    2.83411   2.88235   2.91664   2.97302   2.98582
 Alpha virt. eigenvalues --    3.02095   3.04125   3.08100   3.16840   3.36344
 Alpha virt. eigenvalues --    3.39276   4.13763   4.22407   4.24016   4.25483
 Alpha virt. eigenvalues --    4.27522   4.30021   4.32607   4.34932   4.35978
 Alpha virt. eigenvalues --    4.37449   4.39694   4.42099   4.45006   4.51166
 Alpha virt. eigenvalues --    4.54617   4.69444   4.74248
          Condensed to atoms (all electrons):
               1          2          3          4          5          6
     1  C   13.539021  -3.436565  -0.262238  -2.580983  -0.655490  -0.838728
     2  C   -3.436565  23.180455  -6.099207   1.856013  -0.761348  -8.147359
     3  C   -0.262238  -6.099207  13.536573  -0.950121  -1.362323   0.825410
     4  C   -2.580983   1.856013  -0.950121  11.438326  -2.772289  -0.831444
     5  C   -0.655490  -0.761348  -1.362323  -2.772289  12.100405  -0.083311
     6  C   -0.838728  -8.147359   0.825410  -0.831444  -0.083311  14.700925
     7  H   -0.008582   0.317903  -0.014394   0.025934  -0.029724   0.005124
     8  H    0.023440  -0.031918   0.062195   0.011456   0.313049  -0.078061
     9  H    0.003596  -0.006738   0.006632   0.015954  -0.098806   0.376279
    10  O   -0.021124   0.029559  -0.135919   0.301726  -0.181954   0.045014
    11  C   -0.051377  -0.166184   0.019738  -0.409499   0.645738  -0.037993
    12  C   -0.050484   0.052069  -0.063331   0.040016  -0.430724   0.274269
    13  C   -0.020163  -0.471526  -0.493262   0.346165   0.403809  -0.044492
    14  C    0.059507   0.076295   0.357436  -0.183175  -0.667873   0.071521
    15  C    0.011644   0.047293   0.172401  -0.023526  -0.066384  -0.018516
    16  C   -0.011759  -0.009135  -0.103636  -0.028189   0.050628   0.005742
    17  H    0.000185   0.004827  -0.002234  -0.003008  -0.000518   0.000034
    18  H    0.000001   0.000062   0.000362   0.000228  -0.000063   0.000001
    19  H   -0.014572   0.046057   0.065069   0.042468   0.051231   0.019864
    20  H    0.000170  -0.002589  -0.031856   0.034520   0.008013   0.003407
    21  N   -0.369247   0.320135  -0.200648  -0.079256   0.166960  -0.278037
    22  O    0.291096  -0.185683   0.055033   0.004110  -0.033224  -0.100379
    23  O    0.282580  -0.181181   0.031936   0.001523  -0.023583  -0.083192
    24  H    0.000017  -0.000152   0.002441  -0.001668  -0.002357  -0.000195
    25  Cl  -0.000057  -0.000129  -0.002097  -0.001185  -0.000292   0.000089
               7          8          9         10         11         12
     1  C   -0.008582   0.023440   0.003596  -0.021124  -0.051377  -0.050484
     2  C    0.317903  -0.031918  -0.006738   0.029559  -0.166184   0.052069
     3  C   -0.014394   0.062195   0.006632  -0.135919   0.019738  -0.063331
     4  C    0.025934   0.011456   0.015954   0.301726  -0.409499   0.040016
     5  C   -0.029724   0.313049  -0.098806  -0.181954   0.645738  -0.430724
     6  C    0.005124  -0.078061   0.376279   0.045014  -0.037993   0.274269
     7  H    0.512391   0.000014  -0.000156  -0.000237  -0.002759  -0.002175
     8  H    0.000014   0.497587  -0.004955  -0.004118  -0.002649   0.001043
     9  H   -0.000156  -0.004955   0.501162  -0.000088   0.000601   0.000510
    10  O   -0.000237  -0.004118  -0.000088   8.371565   0.286759  -0.001771
    11  C   -0.002759  -0.002649   0.000601   0.286759  10.778419  -1.092861
    12  C   -0.002175   0.001043   0.000510  -0.001771  -1.092861  12.896194
    13  C   -0.000530  -0.000111  -0.000070  -0.253017  -3.733928  -0.432290
    14  C    0.003198  -0.000185   0.000046  -0.005959   0.859338  -6.302324
    15  C    0.000034  -0.000127  -0.000001   0.036706   0.537577  -0.062217
    16  C    0.000182   0.000023   0.000002  -0.016214  -1.526602   0.848943
    17  H    0.000000   0.000000   0.000000  -0.000159   0.025914  -0.014668
    18  H    0.000000   0.000000   0.000000  -0.000106   0.043785  -0.023229
    19  H   -0.008375  -0.000193   0.000014  -0.011030   0.039903   0.022810
    20  H    0.000296   0.000004   0.000000  -0.011082   0.062861   0.036357
    21  N   -0.000999   0.000610  -0.002249   0.000260   0.003521  -0.004028
    22  O    0.000066  -0.000064   0.000608   0.000000   0.000667   0.000254
    23  O    0.000285  -0.000062   0.000478  -0.000018   0.000206   0.000460
    24  H    0.000000   0.000000   0.000000  -0.001819   0.020652   0.059141
    25  Cl   0.000000   0.000000   0.000000  -0.000183  -0.033488   0.001900
              13         14         15         16         17         18
     1  C   -0.020163   0.059507   0.011644  -0.011759   0.000185   0.000001
     2  C   -0.471526   0.076295   0.047293  -0.009135   0.004827   0.000062
     3  C   -0.493262   0.357436   0.172401  -0.103636  -0.002234   0.000362
     4  C    0.346165  -0.183175  -0.023526  -0.028189  -0.003008   0.000228
     5  C    0.403809  -0.667873  -0.066384   0.050628  -0.000518  -0.000063
     6  C   -0.044492   0.071521  -0.018516   0.005742   0.000034   0.000001
     7  H   -0.000530   0.003198   0.000034   0.000182   0.000000   0.000000
     8  H   -0.000111  -0.000185  -0.000127   0.000023   0.000000   0.000000
     9  H   -0.000070   0.000046  -0.000001   0.000002   0.000000   0.000000
    10  O   -0.253017  -0.005959   0.036706  -0.016214  -0.000159  -0.000106
    11  C   -3.733928   0.859338   0.537577  -1.526602   0.025914   0.043785
    12  C   -0.432290  -6.302324  -0.062217   0.848943  -0.014668  -0.023229
    13  C   12.189281  -1.285086  -1.081768   1.041025  -0.049180  -0.086725
    14  C   -1.285086  14.990457  -0.963512  -1.148769   0.266582   0.067136
    15  C   -1.081768  -0.963512   7.733528  -0.178505   0.069775   0.322838
    16  C    1.041025  -1.148769  -0.178505   7.087905  -0.008105  -0.033930
    17  H   -0.049180   0.266582   0.069775  -0.008105   0.515881  -0.000167
    18  H   -0.086725   0.067136   0.322838  -0.033930  -0.000167   0.503328
    19  H    0.001679  -0.056578   0.003960   0.005309   0.000306   0.000000
    20  H    0.029539   0.106365   0.006538  -0.031323  -0.008789   0.000012
    21  N    0.000329  -0.001234  -0.000050   0.000084   0.000000   0.000000
    22  O    0.000064  -0.000242  -0.000006   0.000019   0.000000   0.000000
    23  O    0.000037   0.000142   0.000000  -0.000007   0.000000   0.000000
    24  H    0.320811  -0.035143  -0.083682   0.012687   0.000015  -0.005136
    25  Cl   0.078064  -0.079851  -0.103526  -0.197482   0.003601   0.006056
              19         20         21         22         23         24
     1  C   -0.014572   0.000170  -0.369247   0.291096   0.282580   0.000017
     2  C    0.046057  -0.002589   0.320135  -0.185683  -0.181181  -0.000152
     3  C    0.065069  -0.031856  -0.200648   0.055033   0.031936   0.002441
     4  C    0.042468   0.034520  -0.079256   0.004110   0.001523  -0.001668
     5  C    0.051231   0.008013   0.166960  -0.033224  -0.023583  -0.002357
     6  C    0.019864   0.003407  -0.278037  -0.100379  -0.083192  -0.000195
     7  H   -0.008375   0.000296  -0.000999   0.000066   0.000285   0.000000
     8  H   -0.000193   0.000004   0.000610  -0.000064  -0.000062   0.000000
     9  H    0.000014   0.000000  -0.002249   0.000608   0.000478   0.000000
    10  O   -0.011030  -0.011082   0.000260   0.000000  -0.000018  -0.001819
    11  C    0.039903   0.062861   0.003521   0.000667   0.000206   0.020652
    12  C    0.022810   0.036357  -0.004028   0.000254   0.000460   0.059141
    13  C    0.001679   0.029539   0.000329   0.000064   0.000037   0.320811
    14  C   -0.056578   0.106365  -0.001234  -0.000242   0.000142  -0.035143
    15  C    0.003960   0.006538  -0.000050  -0.000006   0.000000  -0.083682
    16  C    0.005309  -0.031323   0.000084   0.000019  -0.000007   0.012687
    17  H    0.000306  -0.008789   0.000000   0.000000   0.000000   0.000015
    18  H    0.000000   0.000012   0.000000   0.000000   0.000000  -0.005136
    19  H    0.648386  -0.001859   0.001349  -0.000051  -0.000074   0.000004
    20  H   -0.001859   0.643838   0.000055  -0.000004  -0.000002  -0.000215
    21  N    0.001349   0.000055   7.205467   0.243597   0.255925   0.000000
    22  O   -0.000051  -0.000004   0.243597   7.858163  -0.119057   0.000000
    23  O   -0.000074  -0.000002   0.255925  -0.119057   7.854042   0.000000
    24  H    0.000004  -0.000215   0.000000   0.000000   0.000000   0.501088
    25  Cl  -0.000075   0.002625   0.000000   0.000000   0.000000   0.001277
              25
     1  C   -0.000057
     2  C   -0.000129
     3  C   -0.002097
     4  C   -0.001185
     5  C   -0.000292
     6  C    0.000089
     7  H    0.000000
     8  H    0.000000
     9  H    0.000000
    10  O   -0.000183
    11  C   -0.033488
    12  C    0.001900
    13  C    0.078064
    14  C   -0.079851
    15  C   -0.103526
    16  C   -0.197482
    17  H    0.003601
    18  H    0.006056
    19  H   -0.000075
    20  H    0.002625
    21  N    0.000000
    22  O    0.000000
    23  O    0.000000
    24  H    0.001277
    25  Cl  17.064965
 Mulliken charges:
               1
     1  C    0.110110
     2  C   -0.430953
     3  C    0.586042
     4  C   -0.254098
     5  C   -0.569569
     6  C    0.214026
     7  H    0.202503
     8  H    0.213022
     9  H    0.207180
    10  O   -0.426792
    11  C   -0.268337
    12  C    0.246136
    13  C   -0.458655
    14  C   -0.128093
    15  C   -0.360474
    16  C    0.241106
    17  H    0.199709
    18  H    0.205545
    19  H    0.144398
    20  H    0.153120
    21  N   -0.262543
    22  O   -0.014966
    23  O   -0.020437
    24  H    0.212234
    25  Cl   0.259787
 Sum of Mulliken charges =   0.00000
 Mulliken charges with hydrogens summed into heavy atoms:
               1
     1  C    0.110110
     2  C   -0.228451
     3  C    0.730440
     4  C   -0.254098
     5  C   -0.356547
     6  C    0.421206
    10  O   -0.426792
    11  C   -0.268337
    12  C    0.399256
    13  C   -0.246421
    14  C    0.071616
    15  C   -0.154929
    16  C    0.241106
    21  N   -0.262543
    22  O   -0.014966
    23  O   -0.020437
    25  Cl   0.259787
 Electronic spatial extent (au):  <R**2>=           7534.8538
 Charge=              0.0000 electrons
 Dipole moment (field-independent basis, Debye):
    X=              4.4205    Y=              0.8140    Z=             -0.0391  Tot=              4.4950
 Quadrupole moment (field-independent basis, Debye-Ang):
   XX=           -123.8370   YY=            -96.7358   ZZ=           -112.4045
   XY=             -8.4200   XZ=              0.3850   YZ=              2.6040
 Traceless Quadrupole moment (field-independent basis, Debye-Ang):
   XX=            -12.8446   YY=             14.2566   ZZ=             -1.4121
   XY=             -8.4200   XZ=              0.3850   YZ=              2.6040
 Octapole moment (field-independent basis, Debye-Ang**2):
  XXX=            188.0533  YYY=             -5.9404  ZZZ=              1.4909  XYY=             -0.6693
  XXY=             91.0568  XXZ=              7.0057  XZZ=             10.7550  YZZ=             -2.8327
  YYZ=              1.2176  XYZ=             -2.7389
 Hexadecapole moment (field-independent basis, Debye-Ang**3):
 XXXX=          -9643.6815 YYYY=           -904.7708 ZZZZ=           -214.0101 XXXY=           -295.1053
 XXXZ=              9.7862 YYYX=              3.0279 YYYZ=             11.0804 ZZZX=              6.5902
 ZZZY=             -1.9545 XXYY=          -1521.1851 XXZZ=          -1612.4657 YYZZ=           -211.4428
 XXYZ=             32.0834 YYXZ=              4.5763 ZZXY=            -14.1205
 N-N= 1.143509881425D+03 E-N=-5.107341483758D+03  KE= 1.194408081406D+03
 Evaluate density.
 Using the total density.
 Monte-Carlo method of calculating molar volume:
 based on  0.001 e/bohr**3 density envelope.
 Number of points per bohr**3 =   20 CutOff= 1.00D-04
 Using the SCF density.
 There are       449 points.  Will hold       449 in memory.
 LenV=  4026258045 MDV=  4026531840.
 Box volume =11327.257 fraction occupied=0.151
 Integrated density= 1.1586565575545991D+02 error=-1.2134344244540088D+01
 Molar volume = 1715.487 bohr**3/mol (153.088 cm**3/mol)
 Recommended a0 for SCRF calculation =  4.83 angstrom (  9.12 bohr)
 Calling FoFJK, ICntrl=      2127 FMM=F ISym2X=0 I1Cent= 0 IOpClX= 0 NMat=1 NMatS=1 NMatT=0.
 ***** Axes restored to original set *****
 -------------------------------------------------------------------
 Center     Atomic                   Forces (Hartrees/Bohr)
 Number     Number              X              Y              Z
 -------------------------------------------------------------------
      1        6           0.004497599    0.023015572   -0.006068758
      2        6           0.002584348    0.003441010    0.013570319
      3        6          -0.001091668   -0.013681252    0.019155148
      4        6           0.008244036    0.052624692   -0.041672952
      5        6          -0.000425513    0.004811295   -0.010070638
      6        6          -0.002130749    0.000569525   -0.015422508
      7        1          -0.002881083   -0.007135528   -0.008838467
      8        1           0.002816679    0.007325905    0.007784354
      9        1           0.000867673   -0.002834253    0.010990460
     10        8          -0.003639336   -0.010034386   -0.022349007
     11        6          -0.003710769   -0.058625805    0.029269891
     12        6           0.003975094    0.019689921   -0.005547773
     13        6          -0.004413723   -0.013068900    0.015294699
     14        6          -0.000743201    0.003696714    0.025517476
     15        6          -0.010503272   -0.020336505    0.015871054
     16        6          -0.019672667   -0.048038273    0.129489137
     17        1          -0.002627974   -0.006417215   -0.008985865
     18        1           0.003803433    0.010215862   -0.000598123
     19        1          -0.002466566   -0.022260850    0.012488452
     20        1           0.000664197    0.018288937   -0.017492462
     21        7           0.004570200    0.022702602   -0.004564694
     22        8           0.047250567   -0.024262255   -0.003728092
     23        8          -0.052454887   -0.001624632    0.009036570
     24        1           0.003807877    0.006180558    0.009384094
     25       17           0.023679705    0.055757258   -0.152512315
 -------------------------------------------------------------------
 Cartesian Forces:  Max     0.152512315 RMS     0.030155799

 GradGradGradGradGradGradGradGradGradGradGradGradGradGradGradGradGradGrad
 Berny optimization.
 FormGI is forming the generalized inverse of G from B-inverse, IUseBI=4.
 Internal  Forces:  Max     0.433367620 RMS     0.065800719
 Search for a local minimum.
 Step number   1 out of a maximum of  128
 All quantities printed in internal units (Hartrees-Bohrs-Radians)
 Mixed Optimization -- RFO/linear search
 Second derivative matrix not updated -- first step.
 ITU=  0
     Eigenvalues ---    0.00230   0.00499   0.00499   0.00766   0.00766
     Eigenvalues ---    0.01667   0.01714   0.01787   0.02070   0.02070
     Eigenvalues ---    0.02070   0.02070   0.02070   0.02070   0.02070
     Eigenvalues ---    0.02070   0.02070   0.02070   0.02070   0.02070
     Eigenvalues ---    0.02070   0.02070   0.10923   0.16000   0.16000
     Eigenvalues ---    0.16000   0.16000   0.16000   0.16000   0.16000
     Eigenvalues ---    0.16000   0.16000   0.16000   0.22000   0.22000
     Eigenvalues ---    0.22835   0.22981   0.23883   0.24000   0.25000
     Eigenvalues ---    0.25000   0.25000   0.25000   0.25000   0.27457
     Eigenvalues ---    0.35740   0.37230   0.37230   0.37230   0.37230
     Eigenvalues ---    0.37230   0.37230   0.37230   0.37230   0.41268
     Eigenvalues ---    0.41268   0.41640   0.42077   0.45389   0.45389
     Eigenvalues ---    0.45389   0.45389   0.45389   0.45389   0.45389
     Eigenvalues ---    0.45389   0.64821   1.05155   1.05157
 RFO step:  Lambda=-6.27612070D-01 EMin= 2.30000000D-03
 Linear search not attempted -- first point.
 Maximum step size (   0.300) exceeded in Quadratic search.
    -- Step size scaled by   0.341
 Iteration  1 RMS(Cart)=  0.21506696 RMS(Int)=  0.01691513
 Iteration  2 RMS(Cart)=  0.24277761 RMS(Int)=  0.00871920
 Iteration  3 RMS(Cart)=  0.07885793 RMS(Int)=  0.00056779
 Iteration  4 RMS(Cart)=  0.00117766 RMS(Int)=  0.00002756
 Iteration  5 RMS(Cart)=  0.00000037 RMS(Int)=  0.00002756
 Variable       Old X    -DE/DX   Delta X   Delta X   Delta X     New X
                                 (Linear)    (Quad)   (Total)
    R1        2.64826  -0.00411   0.00000  -0.00119  -0.00118   2.64708
    R2        2.64826   0.01385   0.00000   0.00467   0.00466   2.65292
    R3        2.77790   0.00333   0.00000   0.00115   0.00115   2.77905
    R4        2.64826  -0.02281   0.00000  -0.00739  -0.00737   2.64089
    R5        2.02201   0.01172   0.00000   0.00399   0.00399   2.02600
    R6        2.64826  -0.03204   0.00000  -0.01040  -0.01039   2.63787
    R7        2.02201  -0.06707   0.00000  -0.02287  -0.02287   1.99914
    R8        2.64826  -0.01691   0.00000  -0.00544  -0.00544   2.64282
    R9        2.93342  -0.00587   0.00000  -0.00222  -0.00222   2.93120
   R10        2.64826   0.00804   0.00000   0.00273   0.00271   2.65097
   R11        2.02201   0.01104   0.00000   0.00376   0.00376   2.02577
   R12        2.02201   0.01133   0.00000   0.00386   0.00386   2.02587
   R13        2.64826  -0.01773   0.00000  -0.00586  -0.00585   2.64241
   R14        2.64826  -0.02279   0.00000  -0.00732  -0.00733   2.64094
   R15        2.64826  -0.01920   0.00000  -0.00619  -0.00617   2.64209
   R16        2.02201  -0.05753   0.00000  -0.01961  -0.01961   2.00239
   R17        2.64826   0.00843   0.00000   0.00279   0.00278   2.65104
   R18        2.02201   0.01179   0.00000   0.00402   0.00402   2.02603
   R19        2.64826   0.01057   0.00000   0.00347   0.00347   2.65173
   R20        2.02201   0.01135   0.00000   0.00387   0.00387   2.02588
   R21        2.64826   0.02566   0.00000   0.00836   0.00835   2.65661
   R22        2.02201   0.01087   0.00000   0.00371   0.00371   2.02571
   R23        2.91018   0.16410   0.00000   0.04385   0.04385   2.95403
   R24        2.26923  -0.05016   0.00000  -0.02321  -0.02321   2.24602
   R25        2.26643   0.05172   0.00000   0.01050   0.01050   2.27693
   R26        2.26642   0.05173   0.00000   0.01050   0.01050   2.27692
    A1        2.09440   0.00857   0.00000   0.00386   0.00384   2.09824
    A2        2.09440  -0.00422   0.00000  -0.00190  -0.00190   2.09250
    A3        2.09440  -0.00435   0.00000  -0.00195  -0.00195   2.09245
    A4        2.09440  -0.04291   0.00000  -0.01736  -0.01734   2.07705
    A5        2.09440   0.02171   0.00000   0.00879   0.00878   2.10318
    A6        2.09440   0.02120   0.00000   0.00857   0.00856   2.10296
    A7        2.09440   0.05136   0.00000   0.02001   0.02005   2.11444
    A8        2.09440   0.15514   0.00000   0.06826   0.06824   2.16264
    A9        2.09440  -0.20649   0.00000  -0.08827  -0.08829   2.00611
   A10        2.09440  -0.00480   0.00000  -0.00238  -0.00236   2.09203
   A11        2.09440  -0.03281   0.00000  -0.01249  -0.01250   2.08190
   A12        2.09440   0.03761   0.00000   0.01487   0.01486   2.10925
   A13        2.09440  -0.02068   0.00000  -0.00819  -0.00822   2.08618
   A14        2.09440   0.00975   0.00000   0.00384   0.00385   2.09825
   A15        2.09440   0.01093   0.00000   0.00435   0.00436   2.09876
   A16        2.09440   0.00847   0.00000   0.00407   0.00403   2.09843
   A17        2.09440  -0.00317   0.00000  -0.00157  -0.00155   2.09284
   A18        2.09440  -0.00530   0.00000  -0.00250  -0.00248   2.09192
   A19        2.09440  -0.00639   0.00000  -0.00326  -0.00325   2.09115
   A20        2.09440   0.04437   0.00000   0.01731   0.01734   2.11173
   A21        2.09440  -0.17381   0.00000  -0.07429  -0.07430   2.02009
   A22        2.09440   0.12944   0.00000   0.05697   0.05696   2.15135
   A23        2.09440  -0.01571   0.00000  -0.00632  -0.00634   2.08806
   A24        2.09440   0.00763   0.00000   0.00306   0.00307   2.09747
   A25        2.09440   0.00808   0.00000   0.00326   0.00327   2.09766
   A26        2.09440  -0.02805   0.00000  -0.01128  -0.01126   2.08314
   A27        2.09440   0.01418   0.00000   0.00570   0.00570   2.10009
   A28        2.09440   0.01387   0.00000   0.00557   0.00556   2.09996
   A29        2.09440   0.01780   0.00000   0.00769   0.00767   2.10206
   A30        2.09440  -0.00992   0.00000  -0.00429  -0.00427   2.09012
   A31        2.09440  -0.00788   0.00000  -0.00341  -0.00339   2.09100
   A32        2.09440  -0.01203   0.00000  -0.00415  -0.00416   2.09024
   A33        2.09440   0.00633   0.00000   0.00220   0.00220   2.09660
   A34        2.09440   0.00570   0.00000   0.00195   0.00196   2.09635
   A35        2.54074  -0.43337   0.00000  -0.18758  -0.18758   2.35317
   A36        2.58185  -0.38190   0.00000  -0.16530  -0.16530   2.41655
   A37        2.06635  -0.00957   0.00000  -0.00372  -0.00372   2.06264
   A38        2.06634  -0.00955   0.00000  -0.00371  -0.00371   2.06263
   A39        2.15049   0.01912   0.00000   0.00743   0.00743   2.15791
    D1        0.00000  -0.00032   0.00000  -0.00017  -0.00017  -0.00017
    D2       -3.14159   0.00001   0.00000   0.00000   0.00000  -3.14159
    D3       -3.14159  -0.00029   0.00000  -0.00015  -0.00015   3.14144
    D4        0.00000   0.00004   0.00000   0.00002   0.00002   0.00002
    D5        0.00000  -0.00027   0.00000  -0.00014  -0.00014  -0.00014
    D6        3.14159   0.00013   0.00000   0.00007   0.00007  -3.14153
    D7        3.14159  -0.00031   0.00000  -0.00016  -0.00016   3.14143
    D8        0.00000   0.00009   0.00000   0.00005   0.00005   0.00004
    D9        1.57667  -0.00001   0.00000   0.00000  -0.00001   1.57667
   D10       -1.56492   0.00007   0.00000   0.00004   0.00004  -1.56488
   D11       -1.56492   0.00003   0.00000   0.00001   0.00001  -1.56490
   D12        1.57667   0.00010   0.00000   0.00006   0.00006   1.57673
   D13        0.00000   0.00085   0.00000   0.00045   0.00045   0.00045
   D14       -3.14159  -0.00023   0.00000  -0.00012  -0.00015   3.14145
   D15        3.14159   0.00052   0.00000   0.00027   0.00028  -3.14131
   D16        0.00000  -0.00056   0.00000  -0.00030  -0.00031  -0.00032
   D17        0.00000  -0.00078   0.00000  -0.00041  -0.00041  -0.00042
   D18        3.14159  -0.00166   0.00000  -0.00088  -0.00087   3.14072
   D19        3.14159   0.00030   0.00000   0.00016   0.00013  -3.14146
   D20        0.00000  -0.00059   0.00000  -0.00031  -0.00032  -0.00033
   D21        3.08065  -0.00545   0.00000  -0.00294  -0.00294   3.07770
   D22       -0.06095  -0.00653   0.00000  -0.00351  -0.00351  -0.06445
   D23        0.00000   0.00019   0.00000   0.00010   0.00009   0.00009
   D24       -3.14159  -0.00010   0.00000  -0.00005  -0.00005   3.14154
   D25       -3.14159   0.00107   0.00000   0.00056   0.00056  -3.14104
   D26        0.00000   0.00079   0.00000   0.00041   0.00041   0.00041
   D27        0.00000   0.00034   0.00000   0.00018   0.00018   0.00018
   D28       -3.14159  -0.00006   0.00000  -0.00003  -0.00003   3.14157
   D29       -3.14159   0.00062   0.00000   0.00033   0.00033  -3.14127
   D30        0.00000   0.00022   0.00000   0.00012   0.00012   0.00012
   D31        0.00000   0.00399   0.00000   0.00211   0.00209   0.00209
   D32       -3.14159  -0.00487   0.00000  -0.00258  -0.00239   3.13921
   D33        0.00000  -0.00095   0.00000  -0.00051  -0.00045  -0.00045
   D34        3.14159  -0.00043   0.00000  -0.00023  -0.00021   3.14139
   D35        0.00000  -0.00440   0.00000  -0.00233  -0.00234  -0.00234
   D36        3.14159  -0.00363   0.00000  -0.00192  -0.00196   3.13963
   D37        3.14159   0.00446   0.00000   0.00236   0.00248  -3.13911
   D38        0.00000   0.00523   0.00000   0.00277   0.00287   0.00286
   D39       -0.46463   0.03048   0.00000   0.01638   0.01633  -0.44830
   D40        2.67696   0.02162   0.00000   0.01169   0.01174   2.68870
   D41        0.00000  -0.00167   0.00000  -0.00088  -0.00090  -0.00091
   D42        3.14159  -0.00002   0.00000  -0.00001  -0.00003   3.14156
   D43        3.14159  -0.00220   0.00000  -0.00116  -0.00115   3.14044
   D44        0.00000  -0.00055   0.00000  -0.00029  -0.00028  -0.00028
   D45        0.00000   0.00178   0.00000   0.00094   0.00096   0.00096
   D46       -3.14159   0.00113   0.00000   0.00060   0.00059  -3.14100
   D47       -3.14159   0.00100   0.00000   0.00053   0.00058  -3.14102
   D48        0.00000   0.00036   0.00000   0.00019   0.00021   0.00021
   D49        0.00000   0.00126   0.00000   0.00067   0.00065   0.00065
   D50       -3.14159   0.00191   0.00000   0.00101   0.00102  -3.14058
   D51       -3.14159  -0.00039   0.00000  -0.00021  -0.00023   3.14137
   D52        0.00000   0.00026   0.00000   0.00014   0.00014   0.00014
   D53        0.43564  -0.02849   0.00000  -0.01542  -0.01542   0.42022
         Item               Value     Threshold  Converged?
 Maximum Force            0.433368     0.000450     NO 
 RMS     Force            0.065801     0.000300     NO 
 Maximum Displacement     1.792999     0.001800     NO 
 RMS     Displacement     0.530702     0.001200     NO 
 Predicted change in Energy=-2.059499D-01
 GradGradGradGradGradGradGradGradGradGradGradGradGradGradGradGradGradGrad

                          Input orientation:                          
 ---------------------------------------------------------------------
 Center     Atomic      Atomic             Coordinates (Angstroms)
 Number     Number       Type             X           Y           Z
 ---------------------------------------------------------------------
      1          6           0       -4.669515    0.006800   -0.438200
      2          6           0       -4.870725    0.191582   -1.812076
      3          6           0       -4.674397    1.461711   -2.360925
      4          6           0       -4.283173    2.539641   -1.564963
      5          6           0       -4.082125    2.355605   -0.193260
      6          6           0       -4.276344    1.085459    0.369726
      7          1           0       -5.170999   -0.628989   -2.433306
      8          1           0       -3.781610    3.179415    0.423339
      9          1           0       -4.123688    0.938440    1.420612
     10          8           0       -4.076489    3.930570   -2.219629
     11          6           0       -3.988272    4.103326   -2.711261
     12          6           0       -4.287457    3.633504   -3.993839
     13          6           0       -3.378833    5.350957   -2.552921
     14          6           0       -3.983803    4.392950   -5.127775
     15          6           0       -3.071807    6.121623   -3.684229
     16          6           0       -3.372140    5.646307   -4.972717
     17          1           0       -4.216300    4.021560   -6.106193
     18          1           0       -2.604360    7.078895   -3.564972
     19          1           0       -4.803951    1.688084   -3.386168
     20          1           0       -4.746576    2.679585   -4.039064
     21          7           0       -4.870772   -1.321552    0.159854
     22          8           0       -3.927565   -2.069222    0.215793
     23          8           0       -5.969730   -1.601834    0.566674
     24          1           0       -3.147041    5.716927   -1.572210
     25         17           0       -3.025433    6.510822   -6.228111
 ---------------------------------------------------------------------
                    Distance matrix (angstroms):
                    1          2          3          4          5
     1  C    0.000000
     2  C    1.400773   0.000000
     3  C    2.411153   1.397500   0.000000
     4  C    2.798952   2.433036   1.395903   0.000000
     5  C    2.433497   2.815218   2.418389   1.398520   0.000000
     6  C    1.403863   2.431577   2.785044   2.420271   1.402835
     7  H    2.153175   1.072114   2.150088   3.403303   3.887320
     8  H    3.405306   3.887210   3.391121   2.148073   1.071992
     9  H    2.149666   3.400902   3.857087   3.391598   2.148178
    10  O    4.349844   3.844079   2.544155   1.551126   2.566460
    11  C    4.734175   4.109622   2.751660   1.961141   3.066539
    12  C    5.093281   4.116687   2.744597   2.663831   4.014921
    13  C    5.890494   5.421600   4.103850   3.114064   3.877468
    14  C    6.457602   5.425125   4.089565   4.027159   5.339465
    15  C    7.104958   6.473519   5.102372   4.334662   5.233593
    16  C    7.351806   6.479925   5.101781   4.700441   5.846025
    17  H    6.960592   5.791066   4.559574   4.777377   6.144606
    18  H    8.003505   7.459500   6.106353   5.236724   5.988464
    19  H    3.396366   2.172957   1.057900   2.076812   3.340850
    20  H    4.485079   3.341414   2.074748   2.521012   3.916206
    21  N    1.470610   2.485575   3.760245   4.269552   3.777319
    22  O    2.299579   3.180101   4.434492   4.953702   4.446381
    23  O    2.299573   3.175312   4.431031   4.953803   4.449930
    24  H    6.017429   5.792932   4.589308   3.374314   3.751582
    25  Cl   8.861623   7.927122   6.570215   6.252771   7.402827
                    6          7          8          9         10
     6  C    0.000000
     7  H    3.405397   0.000000
     8  H    2.152275   4.959311   0.000000
     9  H    1.072045   4.290266   2.476599   0.000000
    10  O    3.852189   4.693953   2.763415   4.712370   0.000000
    11  C    4.322382   4.885786   3.274452   5.206459   0.528515
    12  C    5.053054   4.624365   4.469176   6.050328   1.811237
    13  C    5.248035   6.243871   3.706204   5.984488   1.617191
    14  C    6.422430   5.821467   5.685808   7.405038   2.946134
    15  C    6.576352   7.179288   5.102207   7.350595   2.820487
    16  C    7.082416   7.004558   5.947322   7.975180   3.319541
    17  H    7.110684   6.002429   6.597950   8.134310   3.890142
    18  H    7.361974   8.202426   5.700744   8.054167   3.726803
    19  H    3.840348   2.532094   4.216823   4.912216   2.630354
    20  H    4.711665   3.702061   4.592823   5.764342   2.307450
    21  N    2.488191   2.700789   4.638362   2.693550   5.820448
    22  O    3.177633   3.261614   5.254766   3.245933   6.476956
    23  O    3.182434   3.253349   5.260110   3.254239   6.477295
    24  H    5.147518   6.716289   3.289964   5.722304   2.115205
    25  Cl   8.633122   8.365459   7.477423   9.526835   4.881634
                   11         12         13         14         15
    11  C    0.000000
    12  C    1.398303   0.000000
    13  C    1.397523   2.418985   0.000000
    14  C    2.433813   1.398133   2.813119   0.000000
    15  C    2.420764   2.786467   1.402871   2.429788   0.000000
    16  C    2.806171   2.418136   2.437763   1.403238   1.405819
    17  H    3.403564   2.148881   3.885149   1.072047   3.403826
    18  H    3.390878   3.858428   2.147050   3.399929   1.071961
    19  H    2.637086   2.102543   4.017698   3.319961   4.769217
    20  H    2.089287   1.059620   3.348965   2.168579   3.844266
    21  N    6.200920   6.491995   7.355774   7.835897   8.568203
    22  O    6.831667   7.097296   7.938888   8.385497   9.112213
    23  O    6.871672   7.144024   8.048971   8.503417   9.280082
    24  H    2.146815   3.391974   1.072127   3.885245   2.151758
    25  Cl   4.369363   3.855339   3.870038   2.571885   2.573900
                   16         17         18         19         20
    16  C    0.000000
    17  H    2.153410   0.000000
    18  H    2.150243   4.289924   0.000000
    19  H    4.498304   3.631663   5.825034   0.000000
    20  H    3.400326   2.520934   4.916074   1.188545   0.000000
    21  N    8.782951   8.260782   9.464590   4.651521   5.801331
    22  O    9.314425   8.783422   9.986646   5.278213   6.428511
    23  O    9.485139   8.900799  10.185837   5.273288   6.406206
    24  H    3.408680   4.957275   2.473976   4.718831   4.227212
    25  Cl   1.563204   2.762147   2.755416   5.873548   4.736310
                   21         22         23         24         25
    21  N    0.000000
    22  O    1.204898   0.000000
    23  O    1.204894   2.124149   0.000000
    24  H    7.450603   8.026848   8.130600   0.000000
    25  Cl  10.274116  10.768235  10.984224   4.724666   0.000000
 Stoichiometry    C12H8ClNO3
 Framework group  C1[X(C12H8ClNO3)]
 Deg. of freedom    69
 Full point group                 C1      NOp   1
 Largest Abelian subgroup         C1      NOp   1
 Largest concise Abelian subgroup C1      NOp   1
                         Standard orientation:                         
 ---------------------------------------------------------------------
 Center     Atomic      Atomic             Coordinates (Angstroms)
 Number     Number       Type             X           Y           Z
 ---------------------------------------------------------------------
      1          6           0       -3.416802   -0.080843    0.039569
      2          6           0       -2.484161   -1.113370   -0.122399
      3          6           0       -1.128910   -0.791076   -0.233881
      4          6           0       -0.695774    0.535058   -0.185838
      5          6           0       -1.626559    1.566240   -0.024096
      6          6           0       -2.989929    1.255648    0.088597
      7          1           0       -2.805139   -2.135600   -0.160442
      8          1           0       -1.300233    2.586660    0.013603
      9          1           0       -3.707966    2.041959    0.212769
     10          8           0        0.819059    0.843523   -0.312802
     11          6           0        1.264234    0.567005   -0.244349
     12          6           0        1.613830   -0.783881   -0.334577
     13          6           0        2.250564    1.524708    0.006705
     14          6           0        2.940074   -1.196559   -0.174732
     15          6           0        3.584584    1.121177    0.166707
     16          6           0        3.933232   -0.237776    0.077158
     17          1           0        3.195877   -2.235315   -0.244268
     18          1           0        4.342678    1.854182    0.359312
     19          1           0       -0.360231   -1.507219   -0.358081
     20          1           0        0.815431   -1.454205   -0.524362
     21          7           0       -4.847881   -0.397893    0.158678
     22          8           0       -5.299227   -0.586270    1.259850
     23          8           0       -5.503955   -0.454905   -0.850325
     24          1           0        1.989031    2.562078    0.076848
     25         17           0        5.421906   -0.679063    0.258053
 ---------------------------------------------------------------------
 Rotational constants (GHZ):           1.9000504           0.1515784           0.1440605
 Standard basis: 6-31+G(d) (6D, 7F)
 There are   343 symmetry adapted cartesian basis functions of A   symmetry.
 There are   343 symmetry adapted basis functions of A   symmetry.
   343 basis functions,   600 primitive gaussians,   343 cartesian basis functions
    64 alpha electrons       64 beta electrons
       nuclear repulsion energy      1229.7598744793 Hartrees.
 NAtoms=   25 NActive=   25 NUniq=   25 SFac= 1.00D+00 NAtFMM=   60 NAOKFM=F Big=F
 Integral buffers will be    131072 words long.
 Raffenetti 2 integral format.
 Two-electron integral symmetry is turned on.
 Nuclear repulsion after empirical dispersion term =     1229.7383813928 Hartrees.
 One-electron integrals computed using PRISM.
 NBasis=   343 RedAO= T EigKep=  1.17D-06  NBF=   343
 NBsUse=   341 1.00D-06 EigRej=  9.10D-07 NBFU=   341
 Initial guess from the checkpoint file:  "molecule_75.chk"
 B after Tr=     0.000000    0.000000    0.000000
         Rot=    0.998643    0.052007    0.000205    0.002877 Ang=   5.97 deg.
 ExpMin= 4.38D-02 ExpMax= 2.52D+04 ExpMxC= 3.78D+03 IAcc=3 IRadAn=         5 AccDes= 0.00D+00
 Harris functional with IExCor=  402 and IRadAn=       5 diagonalized for initial guess.
 HarFok:  IExCor=  402 AccDes= 0.00D+00 IRadAn=         5 IDoV= 1 UseB2=F ITyADJ=14
 ICtDFT=  3500011 ScaDFX=  1.000000  1.000000  1.000000  1.000000
 FoFCou: FMM=F IPFlag=           0 FMFlag=      100000 FMFlg1=           0
         NFxFlg=           0 DoJE=T BraDBF=F KetDBF=T FulRan=T
         wScrn=  0.000000 ICntrl=       500 IOpCl=  0 I1Cent=   200000004 NGrid=           0
         NMat0=    1 NMatS0=      1 NMatT0=    0 NMatD0=    1 NMtDS0=    0 NMtDT0=    0
 Petite list used in FoFCou.
 Requested convergence on RMS density matrix=1.00D-08 within 128 cycles.
 Requested convergence on MAX density matrix=1.00D-06.
 Requested convergence on             energy=1.00D-06.
 No special actions if energy rises.
 EnCoef did     3 forward-backward iterations
 EnCoef did     4 forward-backward iterations
 EnCoef did     2 forward-backward iterations
 Restarting incremental Fock formation.
 SCF Done:  E(RB3LYP) =  -1197.19064435     A.U. after   22 cycles
            NFock= 22  Conv=0.63D-08     -V/T= 1.9915
 Calling FoFJK, ICntrl=      2127 FMM=F ISym2X=0 I1Cent= 0 IOpClX= 0 NMat=1 NMatS=1 NMatT=0.
 ***** Axes restored to original set *****
 -------------------------------------------------------------------
 Center     Atomic                   Forces (Hartrees/Bohr)
 Number     Number              X              Y              Z
 -------------------------------------------------------------------
      1        6           0.003453832    0.023098914   -0.011024105
      2        6           0.004055714    0.001428945    0.015359114
      3        6           0.000121035   -0.007266935    0.012633472
      4        6          -0.028795540   -0.079804677    0.068785938
      5        6          -0.004732350   -0.002532069   -0.018028088
      6        6          -0.000469669   -0.003080778   -0.008430159
      7        1          -0.003032960   -0.007036964   -0.006376219
      8        1           0.002263612    0.008461890    0.007503799
      9        1           0.001881067   -0.001193246    0.009794522
     10        8          -2.922179326   -5.854428149   15.987215466
     11        6           2.830833368    5.652212517  -15.775205137
     12        6          -0.002144782    0.013570889   -0.151199800
     13        6           0.128201873    0.273448263   -0.150576184
     14        6           0.003860274    0.003159357    0.033386573
     15        6          -0.006265491   -0.015809188    0.029725686
     16        6          -0.029489660   -0.071772632    0.089517672
     17        1          -0.002219688   -0.003272378   -0.010173154
     18        1           0.006118936    0.013848754   -0.003059606
     19        1          -0.005594169   -0.036147547    0.005168016
     20        1          -0.002347044    0.022772583   -0.023529108
     21        7           0.001805429    0.011544365   -0.004471064
     22        8           0.037684595   -0.015180120   -0.003795831
     23        8          -0.039928773    0.002313592    0.009539280
     24        1          -0.006449584   -0.010976325    0.016613176
     25       17           0.033369302    0.082640939   -0.119374259
 -------------------------------------------------------------------
 Cartesian Forces:  Max    15.987215466 RMS     2.798615836

 GradGradGradGradGradGradGradGradGradGradGradGradGradGradGradGradGradGrad
 Berny optimization.
 Using GEDIIS/GDIIS optimizer.
 FormGI is forming the generalized inverse of G from B-inverse, IUseBI=4.
 Internal  Forces:  Max    82.745311515 RMS    11.730192048
 Search for a local minimum.
 Step number   2 out of a maximum of  128
 All quantities printed in internal units (Hartrees-Bohrs-Radians)
 Mixed Optimization -- RFO/linear search
 Update second derivatives using D2CorX and points    2    1
 DE=  5.34D+00 DEPred=-2.06D-01 R=-2.59D+01
 Trust test=-2.59D+01 RLast= 3.01D-01 DXMaxT set to 1.50D-01
 ITU= -1  0
 Use linear search instead of GDIIS.
     Eigenvalues ---    0.00226   0.00492   0.00501   0.00766   0.00766
     Eigenvalues ---    0.01668   0.01728   0.01794   0.02066   0.02070
     Eigenvalues ---    0.02070   0.02070   0.02070   0.02070   0.02070
     Eigenvalues ---    0.02070   0.02070   0.02070   0.02070   0.02070
     Eigenvalues ---    0.02070   0.02070   0.10927   0.15539   0.16000
     Eigenvalues ---    0.16000   0.16000   0.16000   0.16000   0.16000
     Eigenvalues ---    0.16000   0.16000   0.21832   0.21958   0.22808
     Eigenvalues ---    0.22954   0.23875   0.23990   0.24531   0.24974
     Eigenvalues ---    0.25000   0.25000   0.25000   0.27191   0.35738
     Eigenvalues ---    0.36608   0.37078   0.37230   0.37230   0.37230
     Eigenvalues ---    0.37230   0.37230   0.37230   0.41093   0.41140
     Eigenvalues ---    0.41575   0.41744   0.45172   0.45327   0.45389
     Eigenvalues ---    0.45389   0.45389   0.45389   0.45389   0.45389
     Eigenvalues ---    0.59967   1.03841   1.05156 455.38301
 RFO could not converge Lambda in  999 iterations.
 Quartic linear search produced a step of -0.47633.
 Iteration  1 RMS(Cart)=  0.20256426 RMS(Int)=  0.00548846
 Iteration  2 RMS(Cart)=  0.05881075 RMS(Int)=  0.00042769
 Iteration  3 RMS(Cart)=  0.00104526 RMS(Int)=  0.00000678
 Iteration  4 RMS(Cart)=  0.00000012 RMS(Int)=  0.00000678
 Variable       Old X    -DE/DX   Delta X   Delta X   Delta X     New X
                                 (Linear)    (Quad)   (Total)
    R1        2.64708  -1.40806   0.00056   0.00000   0.00056   2.64764
    R2        2.65292  -4.69374  -0.00222   0.00000  -0.00221   2.65070
    R3        2.77905   0.00177  -0.00055   0.00000  -0.00055   2.77850
    R4        2.64089   3.34702   0.00351   0.00000   0.00351   2.64440
    R5        2.02600   0.00993  -0.00190   0.00000  -0.00190   2.02410
    R6        2.63787   8.44235   0.00495   0.00000   0.00494   2.64282
    R7        1.99914  16.46954   0.01089   0.00000   0.01089   2.01003
    R8        2.64282   1.38825   0.00259   0.00000   0.00259   2.64541
    R9        2.93120 -12.38672   0.00106   0.00000   0.00106   2.93226
   R10        2.65097  -3.32524  -0.00129   0.00000  -0.00129   2.64969
   R11        2.02577   0.01145  -0.00179   0.00000  -0.00179   2.02398
   R12        2.02587   0.01003  -0.00184   0.00000  -0.00184   2.02403
   R13        2.64241  -9.98291   0.00279   0.00000   0.00278   2.64519
   R14        2.64094   0.41093   0.00349   0.00000   0.00349   2.64443
   R15        2.64209   1.85551   0.00294   0.00000   0.00294   2.64503
   R16        2.00239   5.94091   0.00934   0.00000   0.00934   2.01174
   R17        2.65104  -1.85642  -0.00132   0.00000  -0.00132   2.64972
   R18        2.02603   0.01006  -0.00191   0.00000  -0.00191   2.02411
   R19        2.65173  -0.12319  -0.00165   0.00000  -0.00165   2.65008
   R20        2.02588   0.01090  -0.00184   0.00000  -0.00184   2.02403
   R21        2.65661  -1.96494  -0.00398   0.00000  -0.00397   2.65264
   R22        2.02571   0.01470  -0.00176   0.00000  -0.00176   2.02395
   R23        2.95403   0.14897  -0.02089   0.00000  -0.02089   2.93314
   R24        2.24602  13.93861   0.01105   0.00000   0.01105   2.25708
   R25        2.27693   0.03874  -0.00500   0.00000  -0.00500   2.27192
   R26        2.27692   0.03910  -0.00500   0.00000  -0.00500   2.27192
    A1        2.09824  -0.06995  -0.00183   0.00000  -0.00183   2.09641
    A2        2.09250   0.03567   0.00090   0.00000   0.00090   2.09340
    A3        2.09245   0.03428   0.00093   0.00000   0.00093   2.09337
    A4        2.07705   8.04447   0.00826   0.00000   0.00826   2.08531
    A5        2.10318  -4.02134  -0.00418   0.00000  -0.00418   2.09900
    A6        2.10296  -4.02305  -0.00408   0.00000  -0.00408   2.09888
    A7        2.11444 -11.29484  -0.00955   0.00000  -0.00956   2.10488
    A8        2.16264 -32.49047  -0.03250   0.00000  -0.03250   2.13014
    A9        2.00611  43.78601   0.04205   0.00000   0.04206   2.04817
   A10        2.09203   1.24368   0.00113   0.00000   0.00112   2.09315
   A11        2.08190  15.90371   0.00595   0.00000   0.00595   2.08785
   A12        2.10925 -17.14638  -0.00708   0.00000  -0.00708   2.10218
   A13        2.08618   4.12419   0.00391   0.00000   0.00392   2.09010
   A14        2.09825  -2.06126  -0.00184   0.00000  -0.00184   2.09641
   A15        2.09876  -2.06286  -0.00208   0.00000  -0.00208   2.09668
   A16        2.09843  -2.04701  -0.00192   0.00000  -0.00191   2.09652
   A17        2.09284   1.02390   0.00074   0.00000   0.00074   2.09358
   A18        2.09192   1.02322   0.00118   0.00000   0.00118   2.09309
   A19        2.09115   5.22027   0.00155   0.00000   0.00154   2.09269
   A20        2.11173  -5.56236  -0.00826   0.00000  -0.00826   2.10347
   A21        2.02009  19.26602   0.03539   0.00000   0.03540   2.05549
   A22        2.15135 -13.70561  -0.02713   0.00000  -0.02713   2.12423
[...]
 1141754,0.03085323,-0.00001761,0.00014056,0.00000013,0.00002443,-0.000
 01419,0.00002425,-0.00003129,0.00010889,0.00007673,-0.00005051,-0.0009
 1269,0.00005867,0.00005939,0.00022214,-0.00012313,0.00004858,-0.000115
 54,-0.00002642,-0.00000487,0.00000783,-0.00000475,-0.00001924,-0.00000
 640,0.00000746,-0.00000730,0.00000827,-0.00000346,-0.00088307,0.000774
 33,-0.00161875,0.00220592,0.00351918,-0.00144085,-0.02022710,-0.000756
 63,-0.01547561,0.00075576,0.00010576,-0.00031939,-0.14735490,0.0035886
 5,-0.20485978,0.00133483,0.00184529,0.00089740,0.00610711,0.00095661,0
 .00655623,0.15590423,-0.00733988,0.21462798,0.00000531,-0.00003952,-0.
 00000668,0.00000219,0.00000076,-0.00000248,-0.00000110,-0.00000933,-0.
 00001953,-0.00000587,0.00024986,-0.00003725,0.00000785,-0.00007026,0.0
 0003885,-0.00000862,0.00003901,0.00001662,-0.00000231,-0.00000177,0.00
 000117,-0.00000035,0.00000284,-0.00000569,-0.00000139,-0.00000263,-0.0
 0000080,-0.00020775,-0.00024015,0.00008008,0.00248905,-0.00163196,-0.0
 0032745,0.00046941,0.00052518,-0.00031744,-0.00061278,-0.00138495,-0.0
 0017534,-0.00069594,-0.00072362,-0.00423576,-0.29218026,-0.10454833,0.
 04741975,-0.01580806,-0.00881939,0.00695785,-0.00070242,-0.00041640,0.
 00030101,0.30659659,-0.00002035,-0.00009683,0.00005048,0.00003729,0.00
 006708,-0.00003775,0.00005081,-0.00018248,0.00001879,-0.00018600,0.000
 47421,-0.00008247,-0.00003309,-0.00008512,0.00003713,0.00002152,0.0000
 2790,0.00000133,-0.00000426,-0.00000954,0.00000459,-0.00000427,0.00000
 194,-0.00001277,0.00000360,-0.00000386,0.00000094,-0.00028583,-0.00061
 430,0.00054718,-0.00114818,0.00592053,0.00303885,0.00045736,-0.0005769
 9,-0.00016177,-0.01004872,-0.00052233,0.00146295,-0.00105822,0.0045505
 0,0.00115537,-0.10545144,-0.08081187,0.02639370,0.00016948,0.00273311,
 0.00111805,0.00000535,0.00024481,0.00002473,0.11453258,0.07455327,-0.0
 0000678,0.00011293,0.00000023,-0.00002063,-0.00001512,0.00000891,-0.00
 001836,0.00009460,0.00006718,0.00020389,-0.00073908,-0.00005321,-0.000
 02195,0.00022729,-0.00012255,0.00000016,-0.00009610,-0.00005421,0.0000
 0027,0.00000549,-0.00000080,0.00000774,-0.00000240,0.00001439,0.000008
 73,0.00001211,0.00000224,0.00145319,0.00137443,-0.00081162,-0.00124202
 ,0.00287369,-0.00323018,-0.00012769,0.00006099,-0.00111719,0.02679806,
 0.01080333,-0.00118423,-0.00335690,0.00148371,-0.00305313,0.04989672,0
 .02718771,-0.06679724,-0.02130807,-0.00877650,0.00711383,-0.00111864,-
 0.00046219,0.00052001,-0.05075426,-0.03141832,0.06814537,0.00638205,0.
 00043198,0.00163593,0.00227253,0.00008377,-0.00017573,-0.06746124,-0.0
 2137178,0.09422271,0.00053870,-0.00316153,0.00797118,0.00414342,0.0017
 5845,0.00217181,-0.00055706,0.00034251,-0.00032540,-0.00386453,-0.0003
 7390,-0.00174818,-0.00005533,-0.00019553,0.00034588,-0.00051476,-0.000
 05048,-0.00018364,-0.00218095,-0.00034157,-0.00117852,-0.00047954,-0.0
 0006113,0.00020960,0.00012301,-0.00003640,-0.00007852,0.00034453,0.000
 07990,-0.00014040,0.00013032,0.00006631,-0.00051868,-0.00010546,-0.000
 11811,0.00041921,-0.00024621,0.00000766,-0.00013823,0.00000722,0.00001
 745,-0.00002335,-0.00000927,-0.00002921,0.00001519,0.06127548,0.000832
 71,-0.00466304,0.00007300,-0.01045144,-0.00415908,0.02888482,-0.021529
 89,-0.07553261,0.06469646,0.00728761,0.01175830,-0.02089429,0.00141034
 ,-0.00354527,-0.00226017,0.00017839,-0.00113305,-0.00033792,-0.0002994
 1,0.00085916,-0.00034503,0.00037003,0.00038934,-0.00116283,-0.00005480
 ,0.00004809,0.00003576,-0.00077262,0.00083125,0.00185212,0.00047082,-0
 .00246957,-0.00103724,0.00060800,-0.00125236,0.00065601,-0.00015262,-0
 .00045570,0.00019051,0.00023173,-0.00000297,-0.00016865,-0.00005748,-0
 .00007852,0.00001650,-0.00019914,-0.00014071,0.00032331,-0.00001696,0.
 00002900,-0.00001839,0.00001338,0.00000363,-0.00000314,0.02271780,0.07
 938019,0.00160967,0.00100398,0.00252523,0.00173110,0.00097915,-0.00250
 524,0.09447258,0.06386064,-0.29577122,0.00632998,0.00661737,-0.0146938
 1,0.00222463,-0.00317728,-0.00027925,-0.00032597,-0.00065473,0.0003312
 0,-0.00174165,0.00000591,0.00016117,0.00023515,0.00043533,-0.00064481,
 -0.00018012,0.00002558,-0.00010153,-0.00103079,0.00112593,-0.00021599,
 -0.00039665,0.00102768,0.00021634,0.00002763,0.00097744,0.00018212,-0.
 00046541,0.00028363,0.00026343,-0.00011112,0.00004328,0.00003684,-0.00
 008999,-0.00000073,0.00006958,0.00008415,-0.00007060,-0.00002233,0.,0.
 00000298,-0.00002367,0.00000244,0.00000205,-0.00000326,-0.10274880,-0.
 07199714,0.31074990,-0.00006948,-0.00009844,0.00010997,0.00010204,0.00
 019324,-0.00007197,0.00025156,-0.00013198,0.00009062,-0.00013157,0.000
 23649,-0.00066085,0.00000871,0.00015031,-0.00006596,0.00002397,-0.0000
 5781,-0.00000220,-0.00000736,0.00000788,-0.00000030,-0.00002508,-0.000
 00549,-0.00000152,0.00000143,0.00000552,-0.00000087,0.00141372,0.00141
 934,0.00117455,-0.01620455,-0.00964158,0.00822118,-0.29146357,-0.10188
 679,0.04880615,-0.00083857,-0.00067605,-0.00430678,-0.00069768,-0.0011
 7149,-0.00028447,0.00044135,0.00059589,-0.00041949,0.00232168,-0.00156
 908,-0.00013319,0.00026052,0.00130408,0.00066134,-0.00009560,0.0001463
 9,0.00011165,-0.00026774,-0.00009400,0.00009641,0.30578749,0.00003541,
 0.00002653,-0.00005845,-0.00001543,-0.00012416,-0.00001865,-0.00019311
 ,-0.00003778,0.00010917,0.00011290,0.00025424,0.00046073,-0.00012472,-
 0.00017724,0.00003611,-0.00000362,0.00007837,0.00002187,0.00000013,-0.
 00002037,0.00000313,0.00000274,0.00001110,-0.00002338,0.00001354,-0.00
 000479,0.00000628,0.00168430,-0.00344701,-0.00109787,-0.00059613,0.004
 36123,0.00076889,-0.10226727,-0.07840085,0.02710495,-0.00106118,0.0043
 6255,0.00110369,-0.00978882,-0.00077805,0.00126221,0.00049565,-0.00064
 468,0.00001864,-0.00149825,0.00558428,0.00324191,0.00147120,-0.0033782
 6,-0.00124976,0.00014864,-0.00051080,-0.00017583,0.00019860,0.00013623
 ,-0.00013515,0.11175444,0.07254462,0.00004835,-0.00013861,0.00001378,-
 0.00004478,-0.00001479,-0.00007800,-0.00011375,-0.00002702,0.00005293,
 -0.00034663,0.00081282,-0.00013817,0.00003528,-0.00012871,0.00011169,-
 0.00002713,0.00013484,-0.00000146,0.00000002,-0.00001839,0.00000905,-0
 .00001325,-0.00000193,-0.00003159,0.00000012,-0.00000293,-0.00000217,0
 .00162726,-0.00193830,0.00195037,-0.02115606,-0.00821270,0.00848123,0.
 05040787,0.02753323,-0.06864706,-0.00340438,0.00144492,-0.00306405,0.0
 2697128,0.01051671,-0.00121943,-0.00013043,0.00001550,-0.00108019,-0.0
 0057834,0.00310500,-0.00318057,0.00020747,-0.00141956,0.00037051,0.000
 10168,-0.00017397,0.00006219,0.00009925,0.00000253,-0.00003900,-0.0536
 3003,-0.03174900,0.06691675,-0.07788279,0.00192486,0.01217211,-0.00314
 237,-0.01139940,-0.00277581,0.00610853,-0.00024184,0.00548648,-0.00195
 238,-0.00006727,0.00121303,0.00600351,0.00321385,0.00390410,-0.0021268
 0,0.00570551,-0.00876406,-0.00413394,-0.00022865,-0.00015341,0.0011738
 0,0.00067150,0.00017069,-0.00392520,0.00048056,-0.00004969,-0.00036152
 ,0.00051210,-0.00029303,-0.00047420,-0.00015081,0.00010390,0.00012558,
 -0.00005214,-0.00004551,0.00005761,0.00009744,0.00000649,-0.00000381,0
 .00002974,-0.00007002,-0.00000022,-0.00004225,0.00005412,-0.00007092,-
 0.00000741,0.00000507,0.00001059,-0.00000293,-0.00001505,0.00000496,-0
 .00002017,-0.00000155,0.00118040,-0.00051303,0.00046599,-0.00000315,-0
 .00000439,0.00000891,0.31178244,0.00228743,-0.12039103,0.00283383,-0.0
 0976723,-0.02430991,0.02977387,-0.00074100,0.01431286,0.00149117,-0.00
 013728,-0.01447931,0.00146232,0.00365029,0.00764909,-0.01069585,0.0039
 2026,-0.04688710,-0.00272373,0.00100215,-0.00008776,-0.00374652,-0.000
 11078,-0.00000197,0.00053244,-0.00078894,0.00091096,0.00136032,0.00179
 306,0.01437908,-0.00643752,-0.00201147,-0.00280527,0.00686226,0.000384
 71,0.00053246,-0.00114419,0.00001985,0.00024666,-0.00103521,-0.0000917
 5,0.00000399,-0.00013627,0.00005655,0.00020542,-0.00030809,-0.00013100
 ,-0.00049825,0.00123511,-0.00001728,0.00011388,-0.00016556,0.00006264,
 0.00011393,-0.00013631,0.00025375,0.00056600,-0.00049283,0.00026468,-0
 .00013513,0.00021377,-0.05152486,0.65890647,0.01189273,0.00368070,-0.1
 0601350,-0.00293755,0.03431566,-0.00354685,0.00557966,-0.00091685,-0.0
 0672522,0.00126745,0.00264210,-0.00489516,0.00391294,-0.00830217,-0.00
 092034,-0.00836039,-0.00780383,0.01889923,-0.00035530,-0.00021276,-0.0
 0314961,0.00030778,-0.00151827,0.00075043,0.00018274,-0.00215922,-0.00
 405146,-0.00069822,-0.00404021,0.00150856,0.00042599,0.00071313,-0.001
 79968,-0.00007808,-0.00016002,0.00031281,-0.00000430,-0.00004958,0.000
 32770,0.00002873,-0.00003174,0.00002158,-0.00001191,-0.00009953,0.0000
 6361,0.00003210,0.00013394,-0.00030539,-0.00001027,0.00001083,0.000043
 17,-0.00002031,-0.00000452,0.00004438,0.00032778,0.00160821,0.00010279
 ,-0.00008063,0.00006740,-0.00002356,-0.22741253,0.05976046,0.82913486,
 0.01303067,-0.01121689,0.01454854,0.00390294,0.00008198,-0.00009265,-0
 .00079708,-0.00109466,-0.00079094,0.00027589,0.00145152,-0.00013938,-0
 .00055101,-0.00130028,0.00010798,0.00054731,0.00407775,0.00221541,0.00
 050652,0.00037193,-0.00036704,-0.00003736,-0.00008789,-0.00000331,0.00
 032692,-0.00019010,-0.00104377,-0.00012858,-0.00130199,0.00035076,0.00
 024775,0.00024801,-0.00053579,-0.00007720,-0.00004099,0.00008306,-0.00
 000645,-0.00004649,0.00008466,0.00001280,-0.00001465,0.00002756,-0.000
 00109,-0.00000741,0.00000055,0.00003084,0.00004858,-0.00009529,-0.0000
 0509,-0.00000438,0.00001832,-0.00000630,-0.00000004,0.00001135,-0.0005
 1667,-0.00012233,-0.00016263,-0.00002344,0.00001822,-0.00001086,-0.120
 18172,-0.02991374,0.12904753,0.09519570,-0.01549774,-0.01469238,0.0478
 8492,0.00240802,-0.00486128,-0.00479842,-0.00060117,-0.00307956,0.0018
 1572,-0.00051442,0.00352419,0.00106433,-0.00069478,0.00025019,0.001808
 60,-0.00019502,-0.00470414,0.00174336,-0.00010567,0.00017526,0.0003797
 1,0.00003712,-0.00008075,-0.00008884,-0.00057396,-0.00436649,0.0023633
 0,-0.00043578,-0.00356500,0.00171740,0.00049011,0.00071492,-0.00179942
 ,-0.00010188,-0.00019018,0.00027378,0.00004397,-0.00010934,0.00026335,
 0.00000361,-0.00000978,0.00001741,-0.00000071,-0.00004502,0.00008983,0
 .00005339,0.00015581,-0.00040649,0.00000366,-0.00002253,0.00004626,-0.
 00002115,-0.00002481,0.00003918,-0.00004845,-0.00070023,0.00013344,-0.
 00009520,0.00006000,-0.00005660,-0.03164680,-0.15793182,0.10100469,0.0
 2959019,0.15420372,0.01539519,0.03640272,-0.03069645,-0.00058049,0.001
 33484,0.00517097,-0.00081021,0.00346131,0.00061250,0.00014681,-0.00457
 024,0.00046133,-0.00010289,0.00331274,-0.00127824,0.00301696,-0.009831
 16,-0.00459840,-0.00032478,-0.00094569,0.00130426,-0.00002538,0.000237
 91,-0.00002141,-0.00095181,0.00131034,0.00231143,0.00030440,0.00414447
 ,-0.00129385,-0.00051074,-0.00073336,0.00178777,0.00013223,0.00021908,
 -0.00029050,-0.00005639,0.00005209,-0.00029601,-0.00003708,0.00001185,
 -0.00001005,0.00000466,0.00008078,-0.00008505,-0.00002573,-0.00015007,
 0.00036413,0.00000616,0.00000734,-0.00004804,0.00001853,0.00001687,-0.
 00004421,-0.00018270,0.00031589,-0.00015424,0.00009022,-0.00007384,0.0
 0002896,0.12939680,0.09628622,-0.44271266,-0.18896067,-0.10352705,0.55
 834205,0.01498881,0.01294071,0.00450015,0.00033374,-0.00265949,0.00397
 453,-0.00042861,0.00111690,-0.00068019,0.00019018,-0.00122044,0.000267
 74,-0.00065218,0.00031949,-0.00116167,0.00370678,-0.00040102,0.0005691
 7,0.00033812,-0.00070761,-0.00091418,-0.00051453,-0.00000419,-0.000201
 03,0.00044718,-0.00050934,-0.00014257,0.00018953,0.00094037,-0.0005958
 9,-0.00011445,-0.00017783,0.00050645,0.00001344,0.00003153,-0.00008745
 ,0.00000382,-0.00000774,-0.00008743,-0.00001110,-0.00000262,-0.0000071
 7,0.00001320,0.00001994,-0.00003482,0.00000339,-0.00003696,0.00007842,
 -0.00000456,0.00001018,-0.00000811,0.00000271,0.00001975,-0.00001047,-
 0.00003817,0.00007515,-0.00004203,0.00001519,-0.00000279,0.00001493,-0
 .11218650,0.08148432,0.08698471,0.00826087,0.01793064,0.04402919,0.085
 43856,0.01697046,-0.05810790,-0.03212419,0.00176062,-0.00097673,-0.004
 30040,0.00045833,-0.00269341,-0.00104521,0.00090571,0.00466921,-0.0027
 0991,-0.00011237,-0.00429573,0.00118959,-0.00274736,-0.00069054,0.0081
 5032,-0.00029861,-0.00421415,0.00161253,-0.00008005,-0.00080905,0.0002
 7562,-0.00003320,0.00074749,-0.00002694,-0.00084721,-0.00537427,0.0029
 0960,0.00079792,0.00110536,-0.00282103,-0.00016540,-0.00019927,0.00046
 505,-0.00000940,-0.00011375,0.00044359,0.00002300,-0.00001781,0.000059
 68,-0.00002039,-0.00008590,0.00012171,0.00006733,0.00022693,-0.0005236
 0,0.00000908,-0.00004931,0.00007010,-0.00002701,-0.00004903,0.00005637
 ,-0.00006919,-0.00008147,0.00015420,-0.00010731,0.00004457,-0.00010211
 ,0.08327105,-0.33067503,-0.17859095,0.00946732,0.03537240,-0.02741873,
 -0.10919075,0.36638840,0.00374273,-0.02127531,0.01118560,0.00317721,0.
 00767614,-0.00819133,-0.00062243,-0.00262692,0.00134629,-0.00003642,0.
 00251449,-0.00001094,-0.00103940,-0.00034938,0.00192296,0.00098371,0.0
 0199391,0.00089545,-0.00095740,0.00266620,0.00211323,-0.00018448,0.000
 03482,-0.00010721,-0.00024798,0.00128963,0.00074931,-0.00029539,-0.001
 60359,0.00107507,0.00024345,0.00031511,-0.00085803,-0.00005372,-0.0000
 4743,0.00015854,-0.00002923,0.00000847,0.00014087,0.00002439,0.0000264
 8,0.00003582,-0.00002250,-0.00002169,0.00004547,-0.00000359,0.00004179
 ,-0.00010812,0.00000781,-0.00003629,0.00002116,-0.00000322,-0.00002853
 ,0.00001365,-0.00001706,-0.00018937,0.00003983,-0.00000787,-0.00001727
 ,-0.00003987,0.08660550,-0.17367159,-0.27733816,0.04561545,-0.05033308
 ,-0.08853159,-0.13688617,0.23367347,0.35534118,0.00000245,0.00015089,-
 0.00003882,-0.00003053,-0.00005305,0.00008638,0.00006299,0.00019418,-0
 .00004880,-0.00012026,-0.00079731,0.00014568,0.00001182,0.00012901,-0.
 00013454,0.00001015,-0.00009572,-0.00000301,-0.00000159,0.00001093,-0.
 00000692,-0.00002604,-0.00001033,0.00001336,0.00000324,0.00000124,0.00
 000164,0.00213186,0.00258826,0.00003332,-0.01499152,0.00037319,-0.0234
 3967,-0.00366360,-0.00376402,0.00210126,-0.19207881,-0.00944942,-0.143
 89842,-0.00012304,-0.00007661,0.00102524,0.00939285,0.00006604,0.00691
 696,0.00142726,-0.00241288,0.00123546,-0.00002685,0.00021040,-0.000029
 99,0.00021222,0.00151724,0.00018464,-0.00005921,0.00001400,-0.00000593
 ,-0.00074297,0.00001893,-0.00111980,-0.00000377,-0.00022134,0.00004256
 ,0.00001391,0.00006010,-0.00004723,-0.00001753,0.00009765,0.00003356,0
 .19842933,-0.00000047,0.00008722,-0.00006549,0.00003358,-0.00012124,0.
 00001998,0.00004247,0.00008066,0.00020376,-0.00042084,-0.00050883,0.00
 048402,0.00003287,-0.00009564,-0.00001554,-0.00001761,0.00000273,0.000
 02148,-0.00001023,-0.00001413,-0.00000242,-0.00000591,0.00001092,-0.00
 000556,-0.00000455,-0.00000655,0.00000001,0.00225151,-0.00298411,-0.00
 142823,-0.00798617,0.00531218,-0.00954456,-0.00343188,0.00313070,0.002
 13789,-0.00942828,-0.03985658,0.00379220,-0.00007931,-0.00090450,0.000
 24250,0.00869192,0.00333568,0.00821939,-0.00246129,0.00511105,0.003343
 64,0.00020402,-0.00045976,-0.00019173,0.00135371,-0.00329363,-0.001414
 60,-0.00006560,0.00010646,-0.00018329,-0.00051006,0.00030042,-0.000463
 90,-0.00001418,-0.00019554,0.00007152,0.00002497,0.00007249,-0.0000779
 6,0.00000125,0.00007634,0.00000051,0.01161254,0.03081478,-0.00001568,-
 0.00007474,-0.00001644,0.00005241,-0.00002052,-0.00001811,0.00004046,-
 0.00004731,0.00008296,-0.00007216,0.00037957,0.00027959,-0.00003701,-0
 .00015174,0.00006896,-0.00001441,0.00008033,0.00000916,-0.00000474,-0.
 00001133,0.00000203,0.00001899,0.00000668,-0.00001414,0.00000229,-0.00
 000383,0.00000041,0.00007742,-0.00191451,0.00089727,0.00541828,0.00148
 785,0.00639017,0.00121455,0.00170715,0.00085757,-0.14587748,0.00317035
 ,-0.20709900,0.00075517,0.00006408,-0.00024145,-0.02002428,-0.00124978
 ,-0.01520231,0.00168545,0.00338440,-0.00186978,-0.00002988,-0.00018014
 ,-0.00003287,0.00066073,-0.00119391,0.00036833,-0.00005271,-0.00000394
 ,-0.00010282,0.00032233,0.00008638,0.00041547,-0.00000714,0.00006982,-
 0.00000206,0.00000216,-0.00001072,0.00000235,0.00001458,-0.00003468,-0
 .00002224,0.15636753,-0.00577169,0.21644308,-0.00002227,-0.00016635,0.
 00004146,0.00003108,0.00008480,-0.00004144,0.00001103,-0.00017943,-0.0
 0005282,0.00009225,0.00067634,-0.00019930,-0.00004542,-0.00014032,0.00
 007616,-0.00000159,0.00008240,0.00003268,-0.00000683,-0.00000427,0.000
 00315,-0.00000192,0.00000651,-0.00001524,0.00000012,-0.00000510,-0.000
 00110,-0.00002033,-0.00035745,0.00090131,0.00161827,0.00058257,0.00030
 252,-0.00337658,-0.00160729,-0.00356172,-0.00231766,-0.00236124,-0.000
 44426,-0.00398786,-0.01238281,0.03049641,0.00683030,0.00586490,-0.0151
 2887,-0.04314598,-0.01385511,0.02105539,0.00008045,0.00051906,0.001251
 48,0.00054772,0.00132842,-0.00070427,-0.00004152,0.00005374,0.00002138
 ,-0.00005689,-0.00039901,0.00105303,0.00000184,0.00027696,-0.00006322,
 -0.00002015,-0.00008806,0.00007495,0.00002211,-0.00012021,-0.00002693,
 0.00018763,0.00018752,-0.00049687,0.04362219,-0.00002622,-0.00027496,0
 .00008409,0.00003532,0.00013813,-0.00008075,-0.00000018,-0.00029177,-0
 .00006043,0.00011480,0.00092366,-0.00016360,-0.00006148,-0.00025763,0.
 00012797,-0.00002228,0.00012949,0.00006190,-0.00000182,-0.00000465,0.0
 0000616,0.00000478,0.00001315,-0.00001769,0.00000192,-0.00001059,-0.00
 000159,-0.00006803,-0.00155819,0.00109969,0.00073124,-0.00015895,-0.00
 060261,-0.00326423,0.00375881,-0.00060816,-0.00071865,0.00414834,0.001
 01956,-0.00462171,-0.00381088,0.01881688,-0.00186693,0.00068646,0.0077
 4814,-0.01384280,-0.04075042,0.04319281,0.00082570,-0.00208242,-0.0006
 4785,0.00100787,-0.00190931,-0.00109225,-0.00003530,0.00010693,0.00003
 317,-0.00003297,-0.00010503,0.00066920,0.00000951,0.00045733,-0.000119
 00,-0.00003861,-0.00014570,0.00013362,0.00003056,-0.00019737,-0.000040
 58,-0.00016393,-0.00000112,0.00023223,0.02200343,0.04119667,0.00004000
 ,0.00072437,-0.00022528,-0.00006879,-0.00037131,0.00020624,-0.00009909
 ,0.00081224,0.00019682,-0.00029267,-0.00278282,0.00070000,0.00008643,0
 .00062469,-0.00037802,0.00007391,-0.00033711,-0.00011770,-0.00000299,0
 .00001737,-0.00002453,-0.00001731,-0.00003329,0.00005380,-0.00000304,0
 .00002374,0.00000280,0.00116051,0.00259493,-0.00319498,0.00013652,-0.0
 0039181,0.00140918,0.00164023,0.00110340,0.00258385,-0.00562657,-0.000
 87469,0.00135298,0.00624806,0.01054818,-0.02249059,0.00897638,0.016395
 09,-0.03784447,0.02111735,0.04306240,-0.13579677,0.00023385,-0.0009676
 8,0.00077303,0.00030752,-0.00075898,0.00011112,0.00009338,-0.00023701,
 -0.00012123,-0.00001829,0.00030784,-0.00086777,-0.00000537,-0.00118793
 ,0.00027454,0.00008898,0.00037535,-0.00032502,-0.00008069,0.00051590,0
 .00012308,0.00058556,0.00062807,-0.00119613,-0.03457388,-0.06979091,0.
 19479506\\0.00000627,0.00005699,-0.00002722,-0.00000208,-0.00003552,0.
 00002275,-0.00003762,0.00005575,0.00000188,0.00002742,-0.00003324,0.00
 000056,-0.00000848,0.00000307,-0.00000294,-0.00000739,-0.00000282,0.00
 000743,-0.00000096,0.00000088,0.,0.00000379,0.00000534,-0.00000324,0.0
 0000128,-0.00000183,-0.00000211,0.00000846,0.00002331,0.00001453,-0.00
 004455,-0.00001173,0.00001731,0.00000818,0.00001547,-0.00001198,0.0000
 1640,0.00000706,-0.00002061,-0.00000289,-0.00000421,-0.00000884,0.0000
 1415,-0.00000312,0.00001781,-0.00001384,-0.00000563,0.00001710,-0.0000
 0002,0.00000268,-0.00000227,0.00000025,0.00000053,-0.00000647,0.000016
 42,-0.00001997,-0.00002633,0.00001819,-0.00002403,0.00001066,-0.000006
 31,-0.00002952,0.00000842,0.00000483,-0.00000509,-0.00000804,-0.000001
 28,0.00000151,0.00000770,-0.00000397,-0.00000094,0.00000809,0.00000375
 ,0.00000506,-0.00001419\\\@


 A HARD FALL SHOULD MEAN A HIGH BOUNCE 
 IF ONE IS MADE OF THE RIGHT MATERIAL.

                -- THE CHEMIST ANALYST, MARCH 1950
 Job cpu time:       0 days  2 hours 27 minutes 12.5 seconds.
 Elapsed time:       0 days  0 hours  4 minutes 54.4 seconds.
 File lengths (MBytes):  RWF=    331 Int=      0 D2E=      0 Chk=     12 Scr=      1
 Normal termination of Gaussian 16 at Sat Sep 16 16:37:15 2023.
