 Entering Gaussian System, Link 0=/home/ubuntu/g16/g16
 Input=/home/ubuntu/ml products/molecule_74.gjf
 Output=/home/ubuntu/ml products/molecule_74.log
 Initial command:
 /home/ubuntu/g16/l1.exe "/home/ubuntu/Scratch/Gau-99658.inp" -scrdir="/home/ubuntu/Scratch/"
 Entering Link 1 = /home/ubuntu/g16/l1.exe PID=     99660.
  
 Copyright (c) 1988-2017, Gaussian, Inc.  All Rights Reserved.
  
 This is part of the Gaussian(R) 16 program.  It is based on
 the Gaussian(R) 09 system (copyright 2009, Gaussian, Inc.),
 the Gaussian(R) 03 system (copyright 2003, Gaussian, Inc.),
 the Gaussian(R) 98 system (copyright 1998, Gaussian, Inc.),
 the Gaussian(R) 94 system (copyright 1995, Gaussian, Inc.),
 the Gaussian 92(TM) system (copyright 1992, Gaussian, Inc.),
 the Gaussian 90(TM) system (copyright 1990, Gaussian, Inc.),
 the Gaussian 88(TM) system (copyright 1988, Gaussian, Inc.),
 the Gaussian 86(TM) system (copyright 1986, Carnegie Mellon
 University), and the Gaussian 82(TM) system (copyright 1983,
 Carnegie Mellon University). Gaussian is a federally registered
 trademark of Gaussian, Inc.
  
 This software contains proprietary and confidential information,
 including trade secrets, belonging to Gaussian, Inc.
  
 This software is provided under written license and may be
 used, copied, transmitted, or stored only in accord with that
 written license.
  
 The following legend is applicable only to US Government
 contracts under FAR:
  
                    RESTRICTED RIGHTS LEGEND
  
 Use, reproduction and disclosure by the US Government is
 subject to restrictions as set forth in subparagraphs (a)
 and (c) of the Commercial Computer Software - Restricted
 Rights clause in FAR 52.227-19.
  
 Gaussian, Inc.
 340 Quinnipiac St., Bldg. 40, Wallingford CT 06492
  
  
 ---------------------------------------------------------------
 Warning -- This program may not be used in any manner that
 competes with the business of Gaussian, Inc. or will provide
 assistance to any competitor of Gaussian, Inc.  The licensee
 of this program is prohibited from giving any competitor of
 Gaussian, Inc. access to this program.  By using this program,
 the user acknowledges that Gaussian, Inc. is engaged in the
 business of creating and licensing software in the field of
 computational chemistry and represents and warrants to the
 licensee that it is not a competitor of Gaussian, Inc. and that
 it will not use this program in any manner prohibited above.
 ---------------------------------------------------------------
  

 Cite this work as:
 Gaussian 16, Revision B.01,
 M. J. Frisch, G. W. Trucks, H. B. Schlegel, G. E. Scuseria, 
 M. A. Robb, J. R. Cheeseman, G. Scalmani, V. Barone, 
 G. A. Petersson, H. Nakatsuji, X. Li, M. Caricato, A. V. Marenich, 
 J. Bloino, B. G. Janesko, R. Gomperts, B. Mennucci, H. P. Hratchian, 
 J. V. Ortiz, A. F. Izmaylov, J. L. Sonnenberg, D. Williams-Young, 
 F. Ding, F. Lipparini, F. Egidi, J. Goings, B. Peng, A. Petrone, 
 T. Henderson, D. Ranasinghe, V. G. Zakrzewski, J. Gao, N. Rega, 
 G. Zheng, W. Liang, M. Hada, M. Ehara, K. Toyota, R. Fukuda, 
 J. Hasegawa, M. Ishida, T. Nakajima, Y. Honda, O. Kitao, H. Nakai, 
 T. Vreven, K. Throssell, J. A. Montgomery, Jr., J. E. Peralta, 
 F. Ogliaro, M. J. Bearpark, J. J. Heyd, E. N. Brothers, K. N. Kudin, 
 V. N. Staroverov, T. A. Keith, R. Kobayashi, J. Normand, 
 K. Raghavachari, A. P. Rendell, J. C. Burant, S. S. Iyengar, 
 J. Tomasi, M. Cossi, J. M. Millam, M. Klene, C. Adamo, R. Cammi, 
 J. W. Ochterski, R. L. Martin, K. Morokuma, O. Farkas, 
 J. B. Foresman, and D. J. Fox, Gaussian, Inc., Wallingford CT, 2016.
 
 ******************************************
 Gaussian 16:  EM64L-G16RevB.01 20-Dec-2017
                16-Sep-2023 
 ******************************************
 %nprocshared=30
 Will use up to   30 processors via shared memory.
 %mem=30GB
 %chk=molecule_74.chk
 ----------------------------------------------------------------------
 # opt freq b3lyp/6-31+g(d) geom=connectivity empiricaldispersion=gd3 v
 olume
 ----------------------------------------------------------------------
 1/18=20,19=15,26=3,38=1,57=2/1,3;
 2/9=110,12=2,17=6,18=5,40=1/2;
 3/5=1,6=6,7=11,11=2,25=1,30=1,71=1,74=-5,124=31/1,2,3;
 4//1;
 5/5=2,38=5/2;
 6/7=2,8=2,9=2,10=2,28=1,44=1/1,4;
 7//1,2,3,16;
 1/18=20,19=15,26=3/3(2);
 2/9=110/2;
 99//99;
 2/9=110/2;
 3/5=1,6=6,7=11,11=2,25=1,30=1,71=1,74=-5,124=31/1,2,3;
 4/5=5,16=3,69=1/1;
 5/5=2,38=5/2;
 7//1,2,3,16;
 1/18=20,19=15,26=3/3(-5);
 2/9=110/2;
 6/7=2,8=2,9=2,10=2,19=2,28=1,44=1/1,4;
 99/9=1/99;
 -------------
 ML molecule74
 -------------
 Symbolic Z-matrix:
 Charge =  0 Multiplicity = 1
 C                    -4.74942  -0.23058  -0.40002 
 C                    -4.8202    0.23854  -1.71867 
 C                    -4.55025   1.58484  -1.99888 
 C                    -4.20951   2.46203  -0.96044 
 C                    -4.13873   1.99291   0.35822 
 C                    -4.40868   0.64661   0.63842 
 H                    -5.08036  -0.43121  -2.51155 
 H                    -3.87857   2.66266   1.15109 
 H                    -4.35464   0.28843   1.64524 
 O                    -3.91049   3.9533   -1.27081 
 C                    -3.81752   4.69985  -2.77936 
 C                    -4.13168   3.88761  -3.87731 
 C                    -3.30395   5.98751  -2.98454 
 C                    -3.93225   4.36302  -5.18043 
 C                    -3.10452   6.46292  -4.28767 
 C                    -3.41867   5.65068  -5.38561 
 H                    -4.17211   3.74285  -6.01874 
 H                    -2.7124    7.44608  -4.44432 
 H                    -4.60429   1.94302  -3.0057 
 H                    -4.5238    2.90445  -3.72065 
 N                    -5.03258  -1.64279  -0.1061 
 O                    -4.12167  -2.42275  -0.12371 
 O                    -6.16321  -1.95858   0.13958 
 H                    -3.06408   6.60768  -2.14623 
 C                    -3.19953   6.17311  -6.81762 
 H                    -2.30409   5.74705  -7.21959 
 H                    -4.0323    5.89608  -7.42969 
 H                    -3.10991   7.23918  -6.79854 
 

 GradGradGradGradGradGradGradGradGradGradGradGradGradGradGradGradGradGrad
 Berny optimization.
 Initialization pass.
                           ----------------------------
                           !    Initial Parameters    !
                           ! (Angstroms and Degrees)  !
 --------------------------                            --------------------------
 ! Name  Definition              Value          Derivative Info.                !
 --------------------------------------------------------------------------------
 ! R1    R(1,2)                  1.4014         estimate D2E/DX2                !
 ! R2    R(1,6)                  1.4014         estimate D2E/DX2                !
 ! R3    R(1,21)                 1.47           estimate D2E/DX2                !
 ! R4    R(2,3)                  1.4014         estimate D2E/DX2                !
 ! R5    R(2,7)                  1.07           estimate D2E/DX2                !
 ! R6    R(3,4)                  1.4014         estimate D2E/DX2                !
 ! R7    R(3,19)                 1.07           estimate D2E/DX2                !
 ! R8    R(4,5)                  1.4014         estimate D2E/DX2                !
 ! R9    R(4,10)                 1.5523         estimate D2E/DX2                !
 ! R10   R(5,6)                  1.4014         estimate D2E/DX2                !
 ! R11   R(5,8)                  1.07           estimate D2E/DX2                !
 ! R12   R(6,9)                  1.07           estimate D2E/DX2                !
 ! R13   R(10,11)                1.6857         estimate D2E/DX2                !
 ! R14   R(11,12)                1.4014         estimate D2E/DX2                !
 ! R15   R(11,13)                1.4014         estimate D2E/DX2                !
 ! R16   R(12,14)                1.4014         estimate D2E/DX2                !
 ! R17   R(12,20)                1.07           estimate D2E/DX2                !
 ! R18   R(13,15)                1.4014         estimate D2E/DX2                !
 ! R19   R(13,24)                1.07           estimate D2E/DX2                !
 ! R20   R(14,16)                1.4014         estimate D2E/DX2                !
 ! R21   R(14,17)                1.07           estimate D2E/DX2                !
 ! R22   R(15,16)                1.4014         estimate D2E/DX2                !
 ! R23   R(15,18)                1.07           estimate D2E/DX2                !
 ! R24   R(16,25)                1.54           estimate D2E/DX2                !
 ! R25   R(21,22)                1.1993         estimate D2E/DX2                !
 ! R26   R(21,23)                1.1993         estimate D2E/DX2                !
 ! R27   R(25,26)                1.07           estimate D2E/DX2                !
 ! R28   R(25,27)                1.07           estimate D2E/DX2                !
 ! R29   R(25,28)                1.07           estimate D2E/DX2                !
 ! A1    A(2,1,6)              120.0            estimate D2E/DX2                !
 ! A2    A(2,1,21)             120.0            estimate D2E/DX2                !
 ! A3    A(6,1,21)             120.0            estimate D2E/DX2                !
 ! A4    A(1,2,3)              120.0            estimate D2E/DX2                !
 ! A5    A(1,2,7)              120.0            estimate D2E/DX2                !
 ! A6    A(3,2,7)              120.0            estimate D2E/DX2                !
 ! A7    A(2,3,4)              120.0            estimate D2E/DX2                !
 ! A8    A(2,3,19)             120.0            estimate D2E/DX2                !
 ! A9    A(4,3,19)             120.0            estimate D2E/DX2                !
 ! A10   A(3,4,5)              120.0            estimate D2E/DX2                !
 ! A11   A(3,4,10)             120.0            estimate D2E/DX2                !
 ! A12   A(5,4,10)             120.0            estimate D2E/DX2                !
 ! A13   A(4,5,6)              120.0            estimate D2E/DX2                !
 ! A14   A(4,5,8)              120.0            estimate D2E/DX2                !
 ! A15   A(6,5,8)              120.0            estimate D2E/DX2                !
 ! A16   A(1,6,5)              120.0            estimate D2E/DX2                !
 ! A17   A(1,6,9)              120.0            estimate D2E/DX2                !
 ! A18   A(5,6,9)              120.0            estimate D2E/DX2                !
 ! A19   A(4,10,11)            127.9526         estimate D2E/DX2                !
 ! A20   A(10,11,12)           115.5989         estimate D2E/DX2                !
 ! A21   A(10,11,13)           123.9281         estimate D2E/DX2                !
 ! A22   A(12,11,13)           120.0            estimate D2E/DX2                !
 ! A23   A(11,12,14)           120.0            estimate D2E/DX2                !
 ! A24   A(11,12,20)           120.0            estimate D2E/DX2                !
 ! A25   A(14,12,20)           120.0            estimate D2E/DX2                !
 ! A26   A(11,13,15)           120.0            estimate D2E/DX2                !
 ! A27   A(11,13,24)           120.0            estimate D2E/DX2                !
 ! A28   A(15,13,24)           120.0            estimate D2E/DX2                !
 ! A29   A(12,14,16)           120.0            estimate D2E/DX2                !
 ! A30   A(12,14,17)           120.0            estimate D2E/DX2                !
 ! A31   A(16,14,17)           120.0            estimate D2E/DX2                !
 ! A32   A(13,15,16)           120.0            estimate D2E/DX2                !
 ! A33   A(13,15,18)           120.0            estimate D2E/DX2                !
 ! A34   A(16,15,18)           120.0            estimate D2E/DX2                !
 ! A35   A(14,16,15)           120.0            estimate D2E/DX2                !
 ! A36   A(14,16,25)           120.0            estimate D2E/DX2                !
 ! A37   A(15,16,25)           120.0            estimate D2E/DX2                !
 ! A38   A(1,21,22)            118.3934         estimate D2E/DX2                !
 ! A39   A(1,21,23)            118.3927         estimate D2E/DX2                !
 ! A40   A(22,21,23)           123.2139         estimate D2E/DX2                !
 ! A41   A(16,25,26)           109.4712         estimate D2E/DX2                !
 ! A42   A(16,25,27)           109.4712         estimate D2E/DX2                !
 ! A43   A(16,25,28)           109.4712         estimate D2E/DX2                !
 ! A44   A(26,25,27)           109.4713         estimate D2E/DX2                !
 ! A45   A(26,25,28)           109.4712         estimate D2E/DX2                !
 ! A46   A(27,25,28)           109.4712         estimate D2E/DX2                !
 ! D1    D(6,1,2,3)              0.0001         estimate D2E/DX2                !
 ! D2    D(6,1,2,7)           -179.9998         estimate D2E/DX2                !
 ! D3    D(21,1,2,3)          -179.9999         estimate D2E/DX2                !
 ! D4    D(21,1,2,7)             0.0002         estimate D2E/DX2                !
 ! D5    D(2,1,6,5)             -0.0001         estimate D2E/DX2                !
 ! D6    D(2,1,6,9)            179.9998         estimate D2E/DX2                !
 ! D7    D(21,1,6,5)           179.9999         estimate D2E/DX2                !
 ! D8    D(21,1,6,9)            -0.0002         estimate D2E/DX2                !
 ! D9    D(2,1,21,22)           90.3367         estimate D2E/DX2                !
 ! D10   D(2,1,21,23)          -89.6634         estimate D2E/DX2                !
 ! D11   D(6,1,21,22)          -89.6633         estimate D2E/DX2                !
 ! D12   D(6,1,21,23)           90.3367         estimate D2E/DX2                !
 ! D13   D(1,2,3,4)              0.0001         estimate D2E/DX2                !
 ! D14   D(1,2,3,19)          -179.9999         estimate D2E/DX2                !
 ! D15   D(7,2,3,4)            179.9999         estimate D2E/DX2                !
 ! D16   D(7,2,3,19)            -0.0001         estimate D2E/DX2                !
 ! D17   D(2,3,4,5)             -0.0002         estimate D2E/DX2                !
 ! D18   D(2,3,4,10)           179.9998         estimate D2E/DX2                !
 ! D19   D(19,3,4,5)           179.9998         estimate D2E/DX2                !
 ! D20   D(19,3,4,10)           -0.0002         estimate D2E/DX2                !
 ! D21   D(3,4,5,6)              0.0001         estimate D2E/DX2                !
 ! D22   D(3,4,5,8)           -180.0            estimate D2E/DX2                !
 ! D23   D(10,4,5,6)          -179.9999         estimate D2E/DX2                !
 ! D24   D(10,4,5,8)             0.0            estimate D2E/DX2                !
 ! D25   D(3,4,10,11)           -5.2547         estimate D2E/DX2                !
 ! D26   D(5,4,10,11)          174.7453         estimate D2E/DX2                !
 ! D27   D(4,5,6,1)              0.0            estimate D2E/DX2                !
 ! D28   D(4,5,6,9)           -179.9999         estimate D2E/DX2                !
 ! D29   D(8,5,6,1)           -179.9999         estimate D2E/DX2                !
 ! D30   D(8,5,6,9)              0.0002         estimate D2E/DX2                !
 ! D31   D(4,10,11,12)           4.3564         estimate D2E/DX2                !
 ! D32   D(4,10,11,13)        -167.7268         estimate D2E/DX2                !
 ! D33   D(10,11,12,14)       -172.4167         estimate D2E/DX2                !
 ! D34   D(10,11,12,20)          7.5833         estimate D2E/DX2                !
 ! D35   D(13,11,12,14)          0.0002         estimate D2E/DX2                !
 ! D36   D(13,11,12,20)       -179.9998         estimate D2E/DX2                !
 ! D37   D(10,11,13,15)        171.7535         estimate D2E/DX2                !
 ! D38   D(10,11,13,24)         -8.2465         estimate D2E/DX2                !
 ! D39   D(12,11,13,15)          0.0            estimate D2E/DX2                !
 ! D40   D(12,11,13,24)        180.0            estimate D2E/DX2                !
 ! D41   D(11,12,14,16)         -0.0002         estimate D2E/DX2                !
 ! D42   D(11,12,14,17)        179.9998         estimate D2E/DX2                !
 ! D43   D(20,12,14,16)        179.9998         estimate D2E/DX2                !
 ! D44   D(20,12,14,17)         -0.0002         estimate D2E/DX2                !
 ! D45   D(11,13,15,16)         -0.0001         estimate D2E/DX2                !
 ! D46   D(11,13,15,18)        179.9999         estimate D2E/DX2                !
 ! D47   D(24,13,15,16)        179.9999         estimate D2E/DX2                !
 ! D48   D(24,13,15,18)         -0.0001         estimate D2E/DX2                !
 ! D49   D(12,14,16,15)          0.0001         estimate D2E/DX2                !
 ! D50   D(12,14,16,25)       -179.9999         estimate D2E/DX2                !
 ! D51   D(17,14,16,15)       -179.9999         estimate D2E/DX2                !
 ! D52   D(17,14,16,25)          0.0001         estimate D2E/DX2                !
 ! D53   D(13,15,16,14)          0.0001         estimate D2E/DX2                !
 ! D54   D(13,15,16,25)       -179.9999         estimate D2E/DX2                !
 ! D55   D(18,15,16,14)       -180.0            estimate D2E/DX2                !
 ! D56   D(18,15,16,25)          0.0            estimate D2E/DX2                !
 ! D57   D(14,16,25,26)        -77.922          estimate D2E/DX2                !
 ! D58   D(14,16,25,27)         42.078          estimate D2E/DX2                !
 ! D59   D(14,16,25,28)        162.078          estimate D2E/DX2                !
 ! D60   D(15,16,25,26)        102.078          estimate D2E/DX2                !
 ! D61   D(15,16,25,27)       -137.922          estimate D2E/DX2                !
 ! D62   D(15,16,25,28)        -17.922          estimate D2E/DX2                !
 --------------------------------------------------------------------------------
 Trust Radius=3.00D-01 FncErr=1.00D-07 GrdErr=1.00D-06 EigMax=2.50D+02 EigMin=1.00D-04
 Number of steps in this run=    147 maximum allowed number of steps=    168.
 GradGradGradGradGradGradGradGradGradGradGradGradGradGradGradGradGradGrad

                          Input orientation:                          
 ---------------------------------------------------------------------
 Center     Atomic      Atomic             Coordinates (Angstroms)
 Number     Number       Type             X           Y           Z
 ---------------------------------------------------------------------
      1          6           0       -4.749416   -0.230579   -0.400021
      2          6           0       -4.820199    0.238538   -1.718672
      3          6           0       -4.550247    1.584841   -1.998879
      4          6           0       -4.209510    2.462026   -0.960435
      5          6           0       -4.138728    1.992910    0.358216
      6          6           0       -4.408682    0.646607    0.638423
      7          1           0       -5.080361   -0.431212   -2.511547
      8          1           0       -3.878568    2.662660    1.151091
      9          1           0       -4.354640    0.288426    1.645243
     10          8           0       -3.910486    3.953296   -1.270814
     11          6           0       -3.817523    4.699853   -2.779363
     12          6           0       -4.131676    3.887607   -3.877310
     13          6           0       -3.303947    5.987511   -2.984541
     14          6           0       -3.932249    4.363019   -5.180435
     15          6           0       -3.104523    6.462923   -4.287666
     16          6           0       -3.418674    5.650677   -5.385613
     17          1           0       -4.172109    3.742850   -6.018741
     18          1           0       -2.712397    7.446079   -4.444324
     19          1           0       -4.604292    1.943023   -3.005698
     20          1           0       -4.523805    2.904453   -3.720651
     21          7           0       -5.032581   -1.642786   -0.106098
     22          8           0       -4.121672   -2.422755   -0.123715
     23          8           0       -6.163210   -1.958585    0.139583
     24          1           0       -3.064084    6.607678   -2.146234
     25          6           0       -3.199525    6.173108   -6.817619
     26          1           0       -2.304093    5.747052   -7.219585
     27          1           0       -4.032304    5.896081   -7.429694
     28          1           0       -3.109914    7.239178   -6.798541
 ---------------------------------------------------------------------
                    Distance matrix (angstroms):
                    1          2          3          4          5
     1  C    0.000000
     2  C    1.401400   0.000000
     3  C    2.427296   1.401400   0.000000
     4  C    2.802800   2.427296   1.401400   0.000000
     5  C    2.427296   2.802800   2.427296   1.401400   0.000000
     6  C    1.401400   2.427296   2.802800   2.427296   1.401400
     7  H    2.146700   1.070000   2.146700   3.396345   3.872800
     8  H    3.396345   3.872800   3.396345   2.146700   1.070000
     9  H    2.146700   3.396345   3.872800   3.396345   2.146700
    10  O    4.355100   3.850660   2.559092   1.552300   2.559092
    11  C    5.553274   4.694012   3.293833   2.910330   4.156335
    12  C    5.425182   4.295286   3.001072   3.247537   4.640001
    13  C    6.887218   6.078827   4.680630   4.164864   5.275199
    14  C    6.679914   5.457435   4.268781   4.636706   6.027993
    15  C    7.913434   6.948831   5.578920   5.319647   6.529535
    16  C    7.824077   6.685954   5.411233   5.511362   6.847577
    17  H    6.905899   5.584874   4.578131   5.218081   6.612790
    18  H    8.912739   7.988783   6.611506   6.262556   7.405125
    19  H    3.396345   2.146700   1.070000   2.146700   3.396345
    20  H    4.572298   3.347069   2.169464   2.813062   4.197184
    21  N    1.470000   2.486942   3.772644   4.272800   3.772644
    22  O    2.296964   3.180300   4.445306   4.956703   4.441919
    23  O    2.296952   3.175553   4.441907   4.956691   4.445293
    24  H    7.256126   6.620627   5.240161   4.461452   5.359405
    25  C    9.197550   7.990304   6.789469   7.007053   8.357557
    26  H    9.392451   8.181354   7.044500   7.321131   8.653470
    27  H    9.352353   8.077397   6.953330   7.326353   8.711924
    28  H    9.971274   8.816978   7.555319   7.623239   8.933139
                    6          7          8          9         10
     6  C    0.000000
     7  H    3.396345   0.000000
     8  H    2.146700   4.942800   0.000000
     9  H    1.070000   4.280590   2.471400   0.000000
    10  O    3.850660   4.704459   2.744520   4.704459   0.000000
    11  C    5.334748   5.290965   4.427454   6.271070   1.685736
    12  C    5.565309   4.627906   5.181638   6.595635   2.616688
    13  C    6.547638   6.676779   5.337441   7.417441   2.728146
    14  C    6.920825   5.605869   6.556091   7.960565   3.931091
    15  C    7.732834   7.388345   6.679913   8.653706   4.006145
    16  C    7.893659   6.928985   7.201962   8.891721   4.478231
    17  H    7.345783   5.527036   7.256685   8.408509   4.759784
    18  H    8.657051   8.449532   7.453169   9.540010   4.868893
    19  H    3.872800   2.471400   4.280590   4.942800   2.744520
    20  H    4.910464   3.591427   4.920231   5.972021   2.734581
    21  N    2.486942   2.693767   4.631321   2.693766   5.825100
    22  O    3.175565   3.253778   5.248398   3.245611   6.481856
    23  O    3.180288   3.245600   5.253441   3.253766   6.481845
    24  H    6.715403   7.331085   5.205661   7.481563   2.920360
    25  C    9.359318   8.105358   8.734110  10.372261   6.016649
    26  H    9.601673   8.248893   9.058735  10.610680   6.417627
    27  H    9.632920   8.082155   9.171070  10.672590   6.459183
    28  H   10.022836   9.005324   9.204999  11.007261   6.480255
                   11         12         13         14         15
    11  C    0.000000
    12  C    1.401400   0.000000
    13  C    1.401400   2.427296   0.000000
    14  C    2.427296   1.401400   2.802800   0.000000
    15  C    2.427296   2.802800   1.401400   2.427296   0.000000
    16  C    2.802800   2.427296   2.427296   1.401400   1.401400
    17  H    3.396345   2.146700   3.872800   1.070000   3.396345
    18  H    3.396345   3.872800   2.146700   3.396345   1.070000
    19  H    2.875821   2.182769   4.248439   3.322273   4.931759
    20  H    2.146700   1.070000   3.396345   2.146700   3.872800
    21  N    6.989404   6.754177   8.336368   7.939100   9.322309
    22  O    7.607662   7.342360   8.921075   8.464811   9.865514
    23  O    7.639194   7.378382   9.004220   8.558180   9.993893
    24  H    2.146700   3.396345   1.070000   3.872800   2.146700
    25  C    4.342800   3.838989   3.838989   2.548270   2.548270
    26  H    4.806524   4.238915   4.358110   2.953739   3.122388
    27  H    4.806524   4.082068   4.505358   2.723868   3.324820
    28  H    4.806525   4.561865   4.018820   3.400999   2.628135
                   16         17         18         19         20
    16  C    0.000000
    17  H    2.146700   0.000000
    18  H    2.146700   4.280590   0.000000
    19  H    4.562498   3.536183   5.994376   0.000000
    20  H    3.396345   2.471400   4.942800   1.200826   0.000000
    21  N    9.147271   8.043931  10.334937   4.631321   5.831057
    22  O    9.662406   8.530449  10.864972   5.253453   6.440404
    23  O    9.795975   8.625300  11.016716   5.248386   6.421697
    24  H    3.396345   4.942800   2.471400   4.986976   4.280590
    25  C    1.540000   2.736837   2.736837   5.864957   4.693509
    26  H    2.148263   2.991377   3.279555   6.125226   5.024941
    27  H    2.148263   2.578126   3.613458   5.960334   4.790450
    28  H    2.148263   3.736396   2.396490   6.683418   5.501121
                   21         22         23         24         25
    21  N    0.000000
    22  O    1.199341   0.000000
    23  O    1.199337   2.110132   0.000000
    24  H    8.723949   9.314387   9.392040   0.000000
    25  C   10.463880  10.933781  11.104526   4.693509   0.000000
    26  H   10.613955  10.972726  11.332563   5.201649   1.070000
    27  H   10.557941  11.071962  11.114427   5.418373   1.070000
    28  H   11.286041  11.786853  11.918852   4.695195   1.070000
                   26         27         28
    26  H    0.000000
    27  H    1.747303   0.000000
    28  H    1.747303   1.747303   0.000000
 Stoichiometry    C13H11NO3
 Framework group  C1[X(C13H11NO3)]
 Deg. of freedom    78
 Full point group                 C1      NOp   1
 Largest Abelian subgroup         C1      NOp   1
 Largest concise Abelian subgroup C1      NOp   1
                         Standard orientation:                         
 ---------------------------------------------------------------------
 Center     Atomic      Atomic             Coordinates (Angstroms)
 Number     Number       Type             X           Y           Z
 ---------------------------------------------------------------------
      1          6           0       -3.266093   -0.113323    0.022871
      2          6           0       -2.141992   -0.937440   -0.122558
      3          6           0       -0.860218   -0.372681   -0.167574
      4          6           0       -0.702546    1.016196   -0.067159
      5          6           0       -1.826648    1.840313    0.078269
      6          6           0       -3.108421    1.275554    0.123284
      7          1           0       -2.262378   -1.997878   -0.199228
      8          1           0       -1.706261    2.900751    0.154938
      9          1           0       -3.966697    1.904786    0.234319
     10          8           0        0.717246    1.641768   -0.117018
     11          6           0        2.201037    0.843064   -0.163333
     12          6           0        2.134196   -0.553956   -0.251587
     13          6           0        3.435682    1.474026    0.040283
     14          6           0        3.302000   -1.320015   -0.136223
     15          6           0        4.603487    0.707967    0.155644
     16          6           0        4.536646   -0.689053    0.067391
     17          1           0        3.250965   -2.386671   -0.203604
     18          1           0        5.546167    1.189721    0.311107
     19          1           0       -0.001942   -1.001912   -0.278614
     20          1           0        1.191517   -1.035709   -0.407054
     21          7           0       -4.610610   -0.705728    0.070092
     22          8           0       -5.060747   -1.014152    1.138114
     23          8           0       -5.203721   -0.856967   -0.961293
     24          1           0        3.486717    2.540682    0.107667
     25          6           0        5.819948   -1.530876    0.194163
     26          1           0        5.871293   -1.957506    1.174087
     27          1           0        5.806613   -2.313532   -0.535337
     28          1           0        6.673581   -0.906491    0.031822
 ---------------------------------------------------------------------
 Rotational constants (GHZ):           1.4659724           0.1669401           0.1536004
 Standard basis: 6-31+G(d) (6D, 7F)
 There are   345 symmetry adapted cartesian basis functions of A   symmetry.
 There are   345 symmetry adapted basis functions of A   symmetry.
   345 basis functions,   588 primitive gaussians,   345 cartesian basis functions
    60 alpha electrons       60 beta electrons
       nuclear repulsion energy      1052.7493129045 Hartrees.
 NAtoms=   28 NActive=   28 NUniq=   28 SFac= 1.00D+00 NAtFMM=   60 NAOKFM=F Big=F
 Integral buffers will be    131072 words long.
 Raffenetti 2 integral format.
 Two-electron integral symmetry is turned on.
 Nuclear repulsion after empirical dispersion term =     1052.7273716385 Hartrees.
 One-electron integrals computed using PRISM.
 NBasis=   345 RedAO= T EigKep=  1.26D-06  NBF=   345
 NBsUse=   344 1.00D-06 EigRej=  3.79D-07 NBFU=   344
 ExpMin= 4.38D-02 ExpMax= 5.48D+03 ExpMxC= 8.25D+02 IAcc=3 IRadAn=         5 AccDes= 0.00D+00
 Harris functional with IExCor=  402 and IRadAn=       5 diagonalized for initial guess.
 HarFok:  IExCor=  402 AccDes= 0.00D+00 IRadAn=         5 IDoV= 1 UseB2=F ITyADJ=14
 ICtDFT=  3500011 ScaDFX=  1.000000  1.000000  1.000000  1.000000
 FoFCou: FMM=F IPFlag=           0 FMFlag=      100000 FMFlg1=           0
         NFxFlg=           0 DoJE=T BraDBF=F KetDBF=T FulRan=T
         wScrn=  0.000000 ICntrl=       500 IOpCl=  0 I1Cent=   200000004 NGrid=           0
         NMat0=    1 NMatS0=      1 NMatT0=    0 NMatD0=    1 NMtDS0=    0 NMtDT0=    0
 Petite list used in FoFCou.
 Requested convergence on RMS density matrix=1.00D-08 within 128 cycles.
 Requested convergence on MAX density matrix=1.00D-06.
 Requested convergence on             energy=1.00D-06.
 No special actions if energy rises.
 SCF Done:  E(RB3LYP) =  -782.277246165     A.U. after   16 cycles
            NFock= 16  Conv=0.59D-08     -V/T= 2.0097

 **********************************************************************

            Population analysis using the SCF Density.

 **********************************************************************

 Orbital symmetries:
       Occupied  (A) (A) (A) (A) (A) (A) (A) (A) (A) (A) (A) (A)
                 (A) (A) (A) (A) (A) (A) (A) (A) (A) (A) (A) (A)
                 (A) (A) (A) (A) (A) (A) (A) (A) (A) (A) (A) (A)
                 (A) (A) (A) (A) (A) (A) (A) (A) (A) (A) (A) (A)
                 (A) (A) (A) (A) (A) (A) (A) (A) (A) (A) (A) (A)
       Virtual   (A) (A) (A) (A) (A) (A) (A) (A) (A) (A) (A) (A)
                 (A) (A) (A) (A) (A) (A) (A) (A) (A) (A) (A) (A)
                 (A) (A) (A) (A) (A) (A) (A) (A) (A) (A) (A) (A)
                 (A) (A) (A) (A) (A) (A) (A) (A) (A) (A) (A) (A)
                 (A) (A) (A) (A) (A) (A) (A) (A) (A) (A) (A) (A)
                 (A) (A) (A) (A) (A) (A) (A) (A) (A) (A) (A) (A)
                 (A) (A) (A) (A) (A) (A) (A) (A) (A) (A) (A) (A)
                 (A) (A) (A) (A) (A) (A) (A) (A) (A) (A) (A) (A)
                 (A) (A) (A) (A) (A) (A) (A) (A) (A) (A) (A) (A)
                 (A) (A) (A) (A) (A) (A) (A) (A) (A) (A) (A) (A)
                 (A) (A) (A) (A) (A) (A) (A) (A) (A) (A) (A) (A)
                 (A) (A) (A) (A) (A) (A) (A) (A) (A) (A) (A) (A)
                 (A) (A) (A) (A) (A) (A) (A) (A) (A) (A) (A) (A)
                 (A) (A) (A) (A) (A) (A) (A) (A) (A) (A) (A) (A)
                 (A) (A) (A) (A) (A) (A) (A) (A) (A) (A) (A) (A)
                 (A) (A) (A) (A) (A) (A) (A) (A) (A) (A) (A) (A)
                 (A) (A) (A) (A) (A) (A) (A) (A) (A) (A) (A) (A)
                 (A) (A) (A) (A) (A) (A) (A) (A) (A) (A) (A) (A)
                 (A) (A) (A) (A) (A) (A) (A) (A) (A) (A) (A) (A)
                 (A) (A) (A) (A) (A) (A) (A) (A) (A) (A) (A) (A)
                 (A) (A) (A) (A) (A) (A) (A) (A) (A) (A) (A) (A)
                 (A) (A) (A) (A) (A) (A) (A) (A) (A) (A) (A) (A)
                 (A) (A) (A) (A) (A) (A) (A) (A) (A) (A) (A) (A)
                 (A) (A) (A) (A) (A) (A) (A) (A)
 The electronic state is 1-A.
 Alpha  occ. eigenvalues --  -19.20373 -19.20372 -19.19778 -14.59201 -10.29090
 Alpha  occ. eigenvalues --  -10.28802 -10.26793 -10.23753 -10.23606 -10.22949
 Alpha  occ. eigenvalues --  -10.22543 -10.22429 -10.22361 -10.21869 -10.21832
 Alpha  occ. eigenvalues --  -10.21601 -10.19652  -1.27348  -1.08928  -0.98380
 Alpha  occ. eigenvalues --   -0.90022  -0.88148  -0.81902  -0.79368  -0.78770
 Alpha  occ. eigenvalues --   -0.77584  -0.71327  -0.70010  -0.66476  -0.63835
 Alpha  occ. eigenvalues --   -0.61203  -0.60873  -0.57572  -0.56303  -0.53760
 Alpha  occ. eigenvalues --   -0.53135  -0.51843  -0.49575  -0.49066  -0.48211
 Alpha  occ. eigenvalues --   -0.47036  -0.46514  -0.44494  -0.44035  -0.43027
 Alpha  occ. eigenvalues --   -0.41678  -0.41519  -0.39751  -0.39027  -0.37682
 Alpha  occ. eigenvalues --   -0.36055  -0.35121  -0.33331  -0.33098  -0.32541
 Alpha  occ. eigenvalues --   -0.31424  -0.28898  -0.27908  -0.27447  -0.24485
 Alpha virt. eigenvalues --   -0.08136  -0.04801  -0.04430  -0.03907  -0.03393
 Alpha virt. eigenvalues --   -0.02145  -0.00258   0.00338   0.01158   0.01683
 Alpha virt. eigenvalues --    0.02606   0.04003   0.04155   0.04350   0.04618
 Alpha virt. eigenvalues --    0.05458   0.05552   0.05842   0.07036   0.07257
 Alpha virt. eigenvalues --    0.07511   0.08409   0.08450   0.08995   0.09846
 Alpha virt. eigenvalues --    0.10533   0.11063   0.11559   0.11724   0.12027
 Alpha virt. eigenvalues --    0.12335   0.12545   0.12788   0.13378   0.13644
 Alpha virt. eigenvalues --    0.14154   0.14452   0.14593   0.14966   0.15280
 Alpha virt. eigenvalues --    0.16055   0.16367   0.16919   0.17321   0.17815
 Alpha virt. eigenvalues --    0.18707   0.18720   0.19633   0.19751   0.19996
 Alpha virt. eigenvalues --    0.20526   0.20844   0.21217   0.21445   0.22051
 Alpha virt. eigenvalues --    0.22911   0.23422   0.23751   0.23976   0.24048
 Alpha virt. eigenvalues --    0.24638   0.25090   0.25485   0.25880   0.26273
 Alpha virt. eigenvalues --    0.26554   0.26938   0.27297   0.27720   0.28056
 Alpha virt. eigenvalues --    0.28495   0.28850   0.29691   0.29914   0.30692
 Alpha virt. eigenvalues --    0.31330   0.31463   0.32109   0.32591   0.33054
 Alpha virt. eigenvalues --    0.33279   0.34265   0.34848   0.35602   0.35772
 Alpha virt. eigenvalues --    0.36332   0.37847   0.39261   0.39721   0.39847
 Alpha virt. eigenvalues --    0.40552   0.40771   0.41679   0.41844   0.43896
 Alpha virt. eigenvalues --    0.44752   0.46264   0.49022   0.50210   0.54486
 Alpha virt. eigenvalues --    0.55956   0.58498   0.59605   0.62361   0.64847
 Alpha virt. eigenvalues --    0.64877   0.65504   0.66827   0.67198   0.68417
 Alpha virt. eigenvalues --    0.69361   0.69750   0.70353   0.71699   0.72041
 Alpha virt. eigenvalues --    0.72733   0.74311   0.74939   0.75587   0.75727
 Alpha virt. eigenvalues --    0.76097   0.76892   0.77613   0.78137   0.79390
 Alpha virt. eigenvalues --    0.79929   0.81208   0.82735   0.83639   0.86509
 Alpha virt. eigenvalues --    0.86890   0.88775   0.91215   0.92479   0.93212
 Alpha virt. eigenvalues --    0.94677   0.95939   0.96856   0.97667   0.98115
 Alpha virt. eigenvalues --    0.99368   1.00309   1.03308   1.03719   1.07993
 Alpha virt. eigenvalues --    1.09554   1.10687   1.10937   1.12126   1.13593
 Alpha virt. eigenvalues --    1.13723   1.15552   1.16017   1.16533   1.17433
 Alpha virt. eigenvalues --    1.18032   1.19421   1.20116   1.21006   1.21239
 Alpha virt. eigenvalues --    1.22847   1.23274   1.24388   1.25058   1.26130
 Alpha virt. eigenvalues --    1.27321   1.28353   1.28520   1.30181   1.32204
 Alpha virt. eigenvalues --    1.33527   1.34492   1.36016   1.38274   1.38743
 Alpha virt. eigenvalues --    1.39280   1.42725   1.43441   1.44575   1.45104
 Alpha virt. eigenvalues --    1.45544   1.45759   1.46641   1.46940   1.47557
 Alpha virt. eigenvalues --    1.50041   1.50322   1.54582   1.62042   1.65389
 Alpha virt. eigenvalues --    1.65802   1.69138   1.71460   1.77027   1.78928
 Alpha virt. eigenvalues --    1.79707   1.79887   1.79983   1.80714   1.82484
 Alpha virt. eigenvalues --    1.83173   1.84148   1.85207   1.85903   1.86623
 Alpha virt. eigenvalues --    1.89455   1.90401   1.91163   1.94854   1.96362
 Alpha virt. eigenvalues --    1.97191   1.97591   1.99417   2.01538   2.02860
 Alpha virt. eigenvalues --    2.05767   2.07355   2.08073   2.10938   2.11202
 Alpha virt. eigenvalues --    2.11981   2.12985   2.13841   2.15075   2.15783
 Alpha virt. eigenvalues --    2.18878   2.20935   2.23682   2.24324   2.25239
 Alpha virt. eigenvalues --    2.26885   2.27771   2.27950   2.28522   2.33344
 Alpha virt. eigenvalues --    2.36369   2.38025   2.39005   2.41103   2.46058
 Alpha virt. eigenvalues --    2.47252   2.49129   2.57599   2.60636   2.61380
 Alpha virt. eigenvalues --    2.61632   2.62484   2.66404   2.71341   2.72255
 Alpha virt. eigenvalues --    2.72460   2.75805   2.77463   2.79123   2.80750
 Alpha virt. eigenvalues --    2.81180   2.87768   2.88508   2.93730   2.97831
 Alpha virt. eigenvalues --    2.98814   3.02880   3.06355   3.08567   3.17103
 Alpha virt. eigenvalues --    3.38413   3.39689   4.14194   4.20817   4.24715
 Alpha virt. eigenvalues --    4.26075   4.27252   4.30260   4.33227   4.35651
 Alpha virt. eigenvalues --    4.36774   4.38118   4.40738   4.42752   4.46549
 Alpha virt. eigenvalues --    4.51565   4.54939   4.71029   4.74644
          Condensed to atoms (all electrons):
               1          2          3          4          5          6
     1  C   13.593640  -3.405963  -0.328395  -2.584353  -0.509547  -0.934535
     2  C   -3.405963  23.059652  -6.124713   1.892654  -0.626718  -8.223828
     3  C   -0.328395  -6.124713  13.654905  -0.918793  -1.645839   0.966434
     4  C   -2.584353   1.892654  -0.918793  11.618743  -2.820466  -0.823135
     5  C   -0.509547  -0.626718  -1.645839  -2.820466  12.691280  -0.374319
     6  C   -0.934535  -8.223828   0.966434  -0.823135  -0.374319  14.932257
     7  H   -0.008930   0.318540  -0.014837   0.025613  -0.029967   0.005429
     8  H    0.023991  -0.032590   0.062964   0.010166   0.316582  -0.080784
     9  H   -0.001117  -0.007602   0.007812   0.019841  -0.104753   0.382377
    10  O   -0.022466   0.026285  -0.138665   0.318269  -0.185706   0.047352
    11  C   -0.087655  -0.190844  -0.088357  -0.503742   0.661778   0.025071
    12  C   -0.036425   0.066227   0.091904   0.405313  -0.448592   0.247214
    13  C   -0.023202  -0.444766  -0.413710   0.252892   0.318631  -0.040974
    14  C    0.037796   0.087200   0.273573  -0.574005  -0.754527   0.107206
    15  C    0.013801   0.042518   0.179074   0.052106  -0.057993  -0.021996
    16  C   -0.011492  -0.012008  -0.057559  -0.073589   0.011028   0.011487
    17  H    0.000171   0.004712  -0.003298  -0.003338  -0.000668   0.000052
    18  H    0.000000   0.000059   0.000253   0.000162  -0.000095   0.000003
    19  H   -0.015587   0.038451   0.072798   0.050576   0.049686   0.018798
    20  H    0.000510  -0.000233  -0.033676   0.031227   0.011740   0.003270
    21  N   -0.379413   0.350561  -0.204343  -0.084631   0.182044  -0.311395
    22  O    0.292311  -0.191242   0.053984   0.004330  -0.034817  -0.091817
    23  O    0.285957  -0.184587   0.034595   0.001427  -0.026230  -0.084099
    24  H    0.000009  -0.000135   0.002669  -0.003344  -0.002503  -0.000170
    25  C   -0.002123  -0.000405  -0.028879  -0.050051  -0.007490   0.002329
    26  H   -0.000001  -0.000006  -0.000057   0.000115   0.000029   0.000000
    27  H    0.000000   0.000012   0.000048  -0.000170  -0.000018   0.000000
    28  H    0.000000   0.000005   0.000043  -0.000079  -0.000005   0.000000
               7          8          9         10         11         12
     1  C   -0.008930   0.023991  -0.001117  -0.022466  -0.087655  -0.036425
     2  C    0.318540  -0.032590  -0.007602   0.026285  -0.190844   0.066227
     3  C   -0.014837   0.062964   0.007812  -0.138665  -0.088357   0.091904
     4  C    0.025613   0.010166   0.019841   0.318269  -0.503742   0.405313
     5  C   -0.029967   0.316582  -0.104753  -0.185706   0.661778  -0.448592
     6  C    0.005429  -0.080784   0.382377   0.047352   0.025071   0.247214
     7  H    0.513950   0.000014  -0.000157  -0.000236  -0.002744  -0.002117
     8  H    0.000014   0.498578  -0.004962  -0.004172  -0.002743   0.000836
     9  H   -0.000157  -0.004962   0.502588  -0.000085   0.000674   0.000596
    10  O   -0.000236  -0.004172  -0.000085   8.373429   0.268742   0.035774
    11  C   -0.002744  -0.002743   0.000674   0.268742  10.574752  -0.554977
    12  C   -0.002117   0.000836   0.000596   0.035774  -0.554977  15.026940
    13  C   -0.000531  -0.000055  -0.000058  -0.241585  -3.321038  -1.285427
    14  C    0.003211  -0.000231   0.000062  -0.039295   0.323019  -8.557661
    15  C    0.000030  -0.000113  -0.000001   0.042761   0.556755   0.708311
    16  C    0.000190   0.000006   0.000004  -0.022985  -1.368722   1.164338
    17  H    0.000000   0.000000   0.000000  -0.000194   0.023152  -0.033508
    18  H    0.000000   0.000000   0.000000  -0.000132   0.035209  -0.019290
    19  H   -0.008395  -0.000193   0.000014  -0.011103   0.025504   0.034137
    20  H    0.000309   0.000005   0.000000  -0.011069   0.067756   0.039999
    21  N   -0.001006   0.000603  -0.002491   0.000243   0.003250  -0.004694
    22  O    0.000070  -0.000064   0.000612   0.000001   0.000729   0.000247
    23  O    0.000297  -0.000062   0.000617  -0.000008   0.000403   0.000727
    24  H    0.000000   0.000000   0.000000  -0.002111   0.020460   0.048913
    25  C    0.000002  -0.000001   0.000000  -0.004687  -0.281053  -1.341021
    26  H    0.000000   0.000000   0.000000  -0.000006  -0.003601   0.026441
    27  H    0.000000   0.000000   0.000000   0.000001   0.006387  -0.032226
    28  H    0.000000   0.000000   0.000000   0.000000  -0.001631  -0.020152
              13         14         15         16         17         18
     1  C   -0.023202   0.037796   0.013801  -0.011492   0.000171   0.000000
     2  C   -0.444766   0.087200   0.042518  -0.012008   0.004712   0.000059
     3  C   -0.413710   0.273573   0.179074  -0.057559  -0.003298   0.000253
     4  C    0.252892  -0.574005   0.052106  -0.073589  -0.003338   0.000162
     5  C    0.318631  -0.754527  -0.057993   0.011028  -0.000668  -0.000095
     6  C   -0.040974   0.107206  -0.021996   0.011487   0.000052   0.000003
     7  H   -0.000531   0.003211   0.000030   0.000190   0.000000   0.000000
     8  H   -0.000055  -0.000231  -0.000113   0.000006   0.000000   0.000000
     9  H   -0.000058   0.000062  -0.000001   0.000004   0.000000   0.000000
    10  O   -0.241585  -0.039295   0.042761  -0.022985  -0.000194  -0.000132
    11  C   -3.321038   0.323019   0.556755  -1.368722   0.023152   0.035209
    12  C   -1.285427  -8.557661   0.708311   1.164338  -0.033508  -0.019290
    13  C   11.683740  -0.335956  -1.233730   0.954919  -0.051253  -0.047113
    14  C   -0.335956  17.312375  -1.787733  -1.811052   0.260348   0.047856
    15  C   -1.233730  -1.787733   8.171884   0.164132   0.071169   0.285458
    16  C    0.954919  -1.811052   0.164132   7.977536   0.021820   0.002452
    17  H   -0.051253   0.260348   0.071169   0.021820   0.538850  -0.000168
    18  H   -0.047113   0.047856   0.285458   0.002452  -0.000168   0.527444
    19  H    0.000454  -0.057177   0.004877   0.007450   0.000291   0.000000
    20  H    0.030172   0.086280   0.006182  -0.029448  -0.008423   0.000015
    21  N    0.000327  -0.001112  -0.000061   0.000098   0.000000   0.000000
    22  O    0.000062  -0.000255  -0.000005   0.000015   0.000000   0.000000
    23  O    0.000052   0.000208  -0.000003   0.000000   0.000000   0.000000
    24  H    0.312106  -0.026133  -0.076425   0.012078   0.000018  -0.004933
    25  C    0.353215   1.461775  -0.528174  -1.248186  -0.006565  -0.020233
    26  H    0.008961  -0.071658   0.017409  -0.054663   0.000628   0.000297
    27  H   -0.008389   0.039556   0.020800  -0.125110   0.001641   0.000074
    28  H    0.000146   0.043854  -0.023468  -0.142646   0.000065   0.003736
              19         20         21         22         23         24
     1  C   -0.015587   0.000510  -0.379413   0.292311   0.285957   0.000009
     2  C    0.038451  -0.000233   0.350561  -0.191242  -0.184587  -0.000135
     3  C    0.072798  -0.033676  -0.204343   0.053984   0.034595   0.002669
     4  C    0.050576   0.031227  -0.084631   0.004330   0.001427  -0.003344
     5  C    0.049686   0.011740   0.182044  -0.034817  -0.026230  -0.002503
     6  C    0.018798   0.003270  -0.311395  -0.091817  -0.084099  -0.000170
     7  H   -0.008395   0.000309  -0.001006   0.000070   0.000297   0.000000
     8  H   -0.000193   0.000005   0.000603  -0.000064  -0.000062   0.000000
     9  H    0.000014   0.000000  -0.002491   0.000612   0.000617   0.000000
    10  O   -0.011103  -0.011069   0.000243   0.000001  -0.000008  -0.002111
    11  C    0.025504   0.067756   0.003250   0.000729   0.000403   0.020460
    12  C    0.034137   0.039999  -0.004694   0.000247   0.000727   0.048913
    13  C    0.000454   0.030172   0.000327   0.000062   0.000052   0.312106
    14  C   -0.057177   0.086280  -0.001112  -0.000255   0.000208  -0.026133
    15  C    0.004877   0.006182  -0.000061  -0.000005  -0.000003  -0.076425
    16  C    0.007450  -0.029448   0.000098   0.000015   0.000000   0.012078
    17  H    0.000291  -0.008423   0.000000   0.000000   0.000000   0.000018
    18  H    0.000000   0.000015   0.000000   0.000000   0.000000  -0.004933
    19  H    0.645705  -0.003323   0.001321  -0.000048  -0.000074   0.000004
    20  H   -0.003323   0.657139   0.000058  -0.000004  -0.000002  -0.000207
    21  N    0.001321   0.000058   7.228343   0.240142   0.253026   0.000000
    22  O   -0.000048  -0.000004   0.240142   7.859336  -0.117767   0.000000
    23  O   -0.000074  -0.000002   0.253026  -0.117767   7.852104   0.000000
    24  H    0.000004  -0.000207   0.000000   0.000000   0.000000   0.509463
    25  C   -0.000736   0.003706   0.000006   0.000000   0.000001   0.003793
    26  H    0.000000   0.000001   0.000000   0.000000   0.000000   0.000003
    27  H    0.000000   0.000004   0.000000   0.000000   0.000000   0.000002
    28  H    0.000000   0.000003   0.000000   0.000000   0.000000  -0.000005
              25         26         27         28
     1  C   -0.002123  -0.000001   0.000000   0.000000
     2  C   -0.000405  -0.000006   0.000012   0.000005
     3  C   -0.028879  -0.000057   0.000048   0.000043
     4  C   -0.050051   0.000115  -0.000170  -0.000079
     5  C   -0.007490   0.000029  -0.000018  -0.000005
     6  C    0.002329   0.000000   0.000000   0.000000
     7  H    0.000002   0.000000   0.000000   0.000000
     8  H   -0.000001   0.000000   0.000000   0.000000
     9  H    0.000000   0.000000   0.000000   0.000000
    10  O   -0.004687  -0.000006   0.000001   0.000000
    11  C   -0.281053  -0.003601   0.006387  -0.001631
    12  C   -1.341021   0.026441  -0.032226  -0.020152
    13  C    0.353215   0.008961  -0.008389   0.000146
    14  C    1.461775  -0.071658   0.039556   0.043854
    15  C   -0.528174   0.017409   0.020800  -0.023468
    16  C   -1.248186  -0.054663  -0.125110  -0.142646
    17  H   -0.006565   0.000628   0.001641   0.000065
    18  H   -0.020233   0.000297   0.000074   0.003736
    19  H   -0.000736   0.000000   0.000000   0.000000
    20  H    0.003706   0.000001   0.000004   0.000003
    21  N    0.000006   0.000000   0.000000   0.000000
    22  O    0.000000   0.000000   0.000000   0.000000
    23  O    0.000001   0.000000   0.000000   0.000000
    24  H    0.003793   0.000003   0.000002  -0.000005
    25  C    7.163025   0.411446   0.439495   0.486105
    26  H    0.411446   0.487192  -0.029828  -0.026399
    27  H    0.439495  -0.029828   0.494800  -0.025616
    28  H    0.486105  -0.026399  -0.025616   0.497274
 Mulliken charges:
               1
     1  C    0.103019
     2  C   -0.441232
     3  C    0.600068
     4  C   -0.243735
     5  C   -0.612543
     6  C    0.237772
     7  H    0.201266
     8  H    0.212226
     9  H    0.206030
    10  O   -0.428353
    11  C   -0.186532
    12  C    0.438174
    13  C   -0.467888
    14  C   -0.067524
    15  C   -0.607564
    16  C    0.629905
    17  H    0.184497
    18  H    0.188948
    19  H    0.146569
    20  H    0.148012
    21  N   -0.270874
    22  O   -0.015818
    23  O   -0.016581
    24  H    0.206448
    25  C   -0.805294
    26  H    0.233698
    27  H    0.218537
    28  H    0.208771
 Sum of Mulliken charges =   0.00000
 Mulliken charges with hydrogens summed into heavy atoms:
               1
     1  C    0.103019
     2  C   -0.239967
     3  C    0.746637
     4  C   -0.243735
     5  C   -0.400317
     6  C    0.443802
    10  O   -0.428353
    11  C   -0.186532
    12  C    0.586186
    13  C   -0.261441
    14  C    0.116973
    15  C   -0.418616
    16  C    0.629905
    21  N   -0.270874
    22  O   -0.015818
    23  O   -0.016581
    25  C   -0.144289
 Electronic spatial extent (au):  <R**2>=           6596.1754
 Charge=              0.0000 electrons
 Dipole moment (field-independent basis, Debye):
    X=              5.7859    Y=             -0.1361    Z=              0.0992  Tot=              5.7884
 Quadrupole moment (field-independent basis, Debye-Ang):
   XX=           -106.6056   YY=            -90.7624   ZZ=           -107.5426
   XY=            -12.1556   XZ=              1.2306   YZ=              2.1551
 Traceless Quadrupole moment (field-independent basis, Debye-Ang):
   XX=             -4.9688   YY=             10.8745   ZZ=             -5.9058
   XY=            -12.1556   XZ=              1.2306   YZ=              2.1551
 Octapole moment (field-independent basis, Debye-Ang**2):
  XXX=            223.4815  YYY=             -3.7353  ZZZ=              1.2422  XYY=             -7.5280
  XXY=             57.5086  XXZ=              9.7266  XZZ=             -0.1286  YZZ=             -1.2931
  YYZ=              0.7251  XYZ=             -2.7155
 Hexadecapole moment (field-independent basis, Debye-Ang**3):
 XXXX=          -8105.2120 YYYY=           -857.2434 ZZZZ=           -214.4918 XXXY=           -261.7936
 XXXZ=             33.4327 YYYX=             13.6946 YYYZ=             10.9855 ZZZX=              5.9188
 ZZZY=             -2.6943 XXYY=          -1343.2615 XXZZ=          -1451.2025 YYZZ=           -200.4161
 XXYZ=             23.4863 YYXZ=              1.3935 ZZXY=             -7.2103
 N-N= 1.052727371638D+03 E-N=-3.924410271279D+03  KE= 7.747660569261D+02
 Evaluate density.
 Using the total density.
 Monte-Carlo method of calculating molar volume:
 based on  0.001 e/bohr**3 density envelope.
 Number of points per bohr**3 =   20 CutOff= 1.00D-04
 Using the SCF density.
 There are       413 points.  Will hold       413 in memory.
 LenV=  4026268333 MDV=  4026531840.
 Box volume = 8843.780 fraction occupied=0.182
 Integrated density= 9.6517695564060304D+01 error=-2.3482304435939696D+01
 Molar volume = 1606.013 bohr**3/mol (143.319 cm**3/mol)
 Recommended a0 for SCRF calculation =  4.73 angstrom (  8.94 bohr)
 Calling FoFJK, ICntrl=      2127 FMM=F ISym2X=0 I1Cent= 0 IOpClX= 0 NMat=1 NMatS=1 NMatT=0.
 ***** Axes restored to original set *****
 -------------------------------------------------------------------
 Center     Atomic                   Forces (Hartrees/Bohr)
 Number     Number              X              Y              Z
 -------------------------------------------------------------------
      1        6           0.004487310    0.022944744   -0.006012674
      2        6           0.002618593    0.003518170    0.013644476
      3        6          -0.001197966   -0.014108932    0.019137503
      4        6           0.008437512    0.053785786   -0.041781000
      5        6          -0.000490303    0.004541147   -0.010036406
      6        6          -0.002099234    0.000568013   -0.015343619
      7        1          -0.002886431   -0.007156777   -0.008847704
      8        1           0.002815440    0.007343736    0.007768228
      9        1           0.000859240   -0.002866434    0.011000765
     10        8          -0.003985145   -0.011268674   -0.021288878
     11        6          -0.002744242   -0.056980981    0.026654933
     12        6           0.003069708    0.016565169   -0.004438138
     13        6          -0.004021362   -0.012646061    0.019126646
     14        6           0.003490705    0.013850649    0.019458903
     15        6          -0.011947188   -0.024395448    0.003069148
     16        6           0.002529020    0.007316558   -0.017903065
     17        1          -0.003326199   -0.007553728   -0.008983029
     18        1           0.003839149    0.010928555    0.000458727
     19        1          -0.002395471   -0.021977886    0.012469751
     20        1           0.000557490    0.018389500   -0.017062490
     21        7           0.004652197    0.023147124   -0.004615918
     22        8           0.047257279   -0.024515521   -0.003694404
     23        8          -0.052549409   -0.001849440    0.009078541
     24        1           0.003641998    0.005936044    0.010005186
     25        6          -0.005617361   -0.011071405    0.033687351
     26        1           0.014823892   -0.005910959   -0.009688376
     27        1          -0.011893448   -0.003330154   -0.012609600
     28        1           0.002074221    0.016797206   -0.003254857
 -------------------------------------------------------------------
 Cartesian Forces:  Max     0.056980981 RMS     0.016958954

 GradGradGradGradGradGradGradGradGradGradGradGradGradGradGradGradGradGrad
 Berny optimization.
 FormGI is forming the generalized inverse of G from B-inverse, IUseBI=4.
 Internal  Forces:  Max     0.166422185 RMS     0.024621542
 Search for a local minimum.
 Step number   1 out of a maximum of  147
 All quantities printed in internal units (Hartrees-Bohrs-Radians)
 Mixed Optimization -- RFO/linear search
 Second derivative matrix not updated -- first step.
 ITU=  0
     Eigenvalues ---    0.00230   0.00230   0.00237   0.00766   0.00766
     Eigenvalues ---    0.01335   0.01655   0.01752   0.01791   0.02070
     Eigenvalues ---    0.02070   0.02070   0.02070   0.02070   0.02070
     Eigenvalues ---    0.02070   0.02070   0.02070   0.02070   0.02070
     Eigenvalues ---    0.02070   0.02070   0.02070   0.07243   0.07243
     Eigenvalues ---    0.16000   0.16000   0.16000   0.16000   0.16000
     Eigenvalues ---    0.16000   0.16000   0.16000   0.16000   0.16000
     Eigenvalues ---    0.16000   0.18708   0.22000   0.22000   0.22966
     Eigenvalues ---    0.22981   0.23969   0.24000   0.24759   0.25000
     Eigenvalues ---    0.25000   0.25000   0.25000   0.25000   0.25000
     Eigenvalues ---    0.27457   0.28519   0.35740   0.37230   0.37230
     Eigenvalues ---    0.37230   0.37230   0.37230   0.37230   0.37230
     Eigenvalues ---    0.37230   0.37230   0.37230   0.37230   0.41268
     Eigenvalues ---    0.41268   0.41631   0.41640   0.45389   0.45389
     Eigenvalues ---    0.45389   0.45389   0.45389   0.45389   0.45389
     Eigenvalues ---    0.45389   1.05155   1.05157
 RFO step:  Lambda=-1.83863165D-01 EMin= 2.30000000D-03
 Linear search not attempted -- first point.
 Maximum step size (   0.300) exceeded in Quadratic search.
    -- Step size scaled by   0.466
 Iteration  1 RMS(Cart)=  0.26908286 RMS(Int)=  0.01275192
 Iteration  2 RMS(Cart)=  0.14480447 RMS(Int)=  0.00276849
 Iteration  3 RMS(Cart)=  0.00763040 RMS(Int)=  0.00013015
 Iteration  4 RMS(Cart)=  0.00000406 RMS(Int)=  0.00013014
 Iteration  5 RMS(Cart)=  0.00000000 RMS(Int)=  0.00013014
 Variable       Old X    -DE/DX   Delta X   Delta X   Delta X     New X
                                 (Linear)    (Quad)   (Total)
    R1        2.64826  -0.01552   0.00000  -0.01153  -0.01154   2.63672
    R2        2.64826  -0.01523   0.00000  -0.01148  -0.01148   2.63678
    R3        2.77790   0.00337   0.00000   0.00290   0.00290   2.78080
    R4        2.64826  -0.00518   0.00000  -0.00363  -0.00364   2.64463
    R5        2.02201   0.01174   0.00000   0.00984   0.00984   2.03185
    R6        2.64826   0.00466   0.00000   0.00375   0.00375   2.65201
    R7        2.02201  -0.01897   0.00000  -0.01591  -0.01591   2.00610
    R8        2.64826  -0.00520   0.00000  -0.00362  -0.00361   2.64465
    R9        2.93342  -0.04695   0.00000  -0.04776  -0.04776   2.88566
   R10        2.64826  -0.00948   0.00000  -0.00709  -0.00708   2.64118
   R11        2.02201   0.01104   0.00000   0.00926   0.00926   2.03126
   R12        2.02201   0.01135   0.00000   0.00952   0.00952   2.03153
   R13        3.18558  -0.04899   0.00000  -0.06160  -0.06160   3.12398
   R14        2.64826  -0.00370   0.00000  -0.00269  -0.00269   2.64557
   R15        2.64826  -0.01401   0.00000  -0.01036  -0.01036   2.63790
   R16        2.64826  -0.00195   0.00000  -0.00130  -0.00130   2.64696
   R17        2.02201  -0.01960   0.00000  -0.01643  -0.01643   2.00557
   R18        2.64826  -0.00399   0.00000  -0.00304  -0.00304   2.64522
   R19        2.02201   0.01210   0.00000   0.01014   0.01014   2.03215
   R20        2.64826  -0.00679   0.00000  -0.00486  -0.00485   2.64341
   R21        2.02201   0.01216   0.00000   0.01020   0.01020   2.03220
   R22        2.64826  -0.00740   0.00000  -0.00543  -0.00542   2.64284
   R23        2.02201   0.01138   0.00000   0.00954   0.00954   2.03155
   R24        2.91018  -0.00884   0.00000  -0.00879  -0.00879   2.90139
   R25        2.26643   0.05189   0.00000   0.01959   0.01959   2.28601
   R26        2.26642   0.05189   0.00000   0.01959   0.01959   2.28600
   R27        2.02201   0.01840   0.00000   0.01543   0.01543   2.03743
   R28        2.02201   0.01733   0.00000   0.01453   0.01453   2.03654
   R29        2.02201   0.01685   0.00000   0.01413   0.01413   2.03614
    A1        2.09440   0.00368   0.00000   0.00304   0.00303   2.09742
    A2        2.09440  -0.00176   0.00000  -0.00143  -0.00143   2.09297
    A3        2.09440  -0.00192   0.00000  -0.00161  -0.00160   2.09279
    A4        2.09440  -0.00013   0.00000  -0.00035  -0.00036   2.09403
    A5        2.09440   0.00031   0.00000   0.00050   0.00051   2.09490
    A6        2.09440  -0.00018   0.00000  -0.00015  -0.00015   2.09425
    A7        2.09440   0.00338   0.00000   0.00455   0.00455   2.09894
    A8        2.09440  -0.01871   0.00000  -0.02537  -0.02536   2.06903
    A9        2.09440   0.01534   0.00000   0.02081   0.02082   2.11521
   A10        2.09440  -0.01414   0.00000  -0.01455  -0.01454   2.07986
   A11        2.09440   0.10231   0.00000   0.10964   0.10964   2.20403
   A12        2.09440  -0.08817   0.00000  -0.09510  -0.09510   1.99929
   A13        2.09440   0.00980   0.00000   0.01122   0.01124   2.10563
   A14        2.09440  -0.00551   0.00000  -0.00644  -0.00645   2.08794
   A15        2.09440  -0.00429   0.00000  -0.00478  -0.00479   2.08961
   A16        2.09440  -0.00259   0.00000  -0.00392  -0.00392   2.09048
   A17        2.09440   0.00233   0.00000   0.00337   0.00337   2.09776
   A18        2.09440   0.00025   0.00000   0.00055   0.00055   2.09495
   A19        2.23319   0.16642   0.00000   0.17889   0.17889   2.41208
   A20        2.01758   0.10557   0.00000   0.11457   0.11465   2.13223
   A21        2.16295  -0.09722   0.00000  -0.10461  -0.10472   2.05823
   A22        2.09440  -0.00774   0.00000  -0.00840  -0.00840   2.08600
   A23        2.09440   0.00122   0.00000   0.00130   0.00128   2.09568
   A24        2.09440   0.01385   0.00000   0.01896   0.01896   2.11335
   A25        2.09440  -0.01507   0.00000  -0.02026  -0.02026   2.07414
   A26        2.09440   0.00537   0.00000   0.00548   0.00547   2.09987
   A27        2.09440  -0.00353   0.00000  -0.00388  -0.00388   2.09051
   A28        2.09440  -0.00184   0.00000  -0.00159  -0.00159   2.09280
   A29        2.09440   0.00719   0.00000   0.00835   0.00835   2.10274
   A30        2.09440  -0.00449   0.00000  -0.00538  -0.00538   2.08901
   A31        2.09440  -0.00271   0.00000  -0.00297  -0.00297   2.09143
   A32        2.09440   0.00631   0.00000   0.00672   0.00673   2.10112
   A33        2.09440  -0.00533   0.00000  -0.00631  -0.00632   2.08808
   A34        2.09440  -0.00098   0.00000  -0.00041  -0.00042   2.09398
   A35        2.09440  -0.01235   0.00000  -0.01345  -0.01345   2.08095
   A36        2.09440   0.00535   0.00000   0.00583   0.00583   2.10022
   A37        2.09440   0.00701   0.00000   0.00762   0.00762   2.10201
   A38        2.06635  -0.00942   0.00000  -0.01013  -0.01013   2.05623
   A39        2.06634  -0.00940   0.00000  -0.01011  -0.01011   2.05623
   A40        2.15049   0.01883   0.00000   0.02024   0.02024   2.17072
   A41        1.91063   0.00293   0.00000   0.00391   0.00390   1.91453
   A42        1.91063   0.00332   0.00000   0.00449   0.00448   1.91512
   A43        1.91063   0.00395   0.00000   0.00543   0.00541   1.91605
   A44        1.91063  -0.00350   0.00000  -0.00489  -0.00490   1.90574
   A45        1.91063  -0.00342   0.00000  -0.00464  -0.00465   1.90599
   A46        1.91063  -0.00327   0.00000  -0.00431  -0.00432   1.90631
    D1        0.00000  -0.00006   0.00000  -0.00014  -0.00014  -0.00014
    D2       -3.14159  -0.00010   0.00000  -0.00023  -0.00023   3.14137
    D3       -3.14159  -0.00002   0.00000  -0.00003  -0.00003   3.14156
    D4        0.00000  -0.00006   0.00000  -0.00013  -0.00012  -0.00012
    D5        0.00000   0.00001   0.00000   0.00003   0.00002   0.00002
    D6        3.14159   0.00005   0.00000   0.00012   0.00012  -3.14147
    D7        3.14159  -0.00003   0.00000  -0.00008  -0.00008   3.14151
    D8        0.00000   0.00001   0.00000   0.00002   0.00002   0.00001
    D9        1.57667  -0.00002   0.00000  -0.00005  -0.00005   1.57662
   D10       -1.56492   0.00008   0.00000   0.00019   0.00019  -1.56473
   D11       -1.56492   0.00002   0.00000   0.00005   0.00005  -1.56487
   D12        1.57667   0.00012   0.00000   0.00030   0.00030   1.57697
   D13        0.00000   0.00001   0.00000   0.00002   0.00002   0.00002
   D14       -3.14159  -0.00034   0.00000  -0.00078  -0.00077   3.14083
   D15        3.14159   0.00005   0.00000   0.00012   0.00011  -3.14148
   D16        0.00000  -0.00030   0.00000  -0.00069  -0.00068  -0.00068
   D17        0.00000   0.00009   0.00000   0.00020   0.00020   0.00020
   D18        3.14159   0.00016   0.00000   0.00037   0.00038  -3.14122
   D19        3.14159   0.00044   0.00000   0.00101   0.00101  -3.14058
   D20        0.00000   0.00052   0.00000   0.00118   0.00119   0.00119
   D21        0.00000  -0.00014   0.00000  -0.00031  -0.00031  -0.00031
   D22       -3.14159  -0.00005   0.00000  -0.00012  -0.00012   3.14147
   D23       -3.14159  -0.00021   0.00000  -0.00049  -0.00047   3.14112
   D24        0.00000  -0.00013   0.00000  -0.00029  -0.00028  -0.00028
   D25       -0.09171   0.00129   0.00000   0.00325   0.00325  -0.08847
   D26        3.04988   0.00137   0.00000   0.00342   0.00342   3.05330
   D27        0.00000   0.00009   0.00000   0.00020   0.00020   0.00020
   D28       -3.14159   0.00005   0.00000   0.00011   0.00011  -3.14148
   D29       -3.14159   0.00000   0.00000   0.00001   0.00001  -3.14158
   D30        0.00000  -0.00004   0.00000  -0.00009  -0.00008  -0.00008
   D31        0.07603   0.01142   0.00000   0.02825   0.02794   0.10397
   D32       -2.92738   0.00563   0.00000   0.01447   0.01478  -2.91260
   D33       -3.00924   0.00354   0.00000  -0.00113  -0.00195  -3.01119
   D34        0.13235   0.00562   0.00000   0.00518   0.00457   0.13692
   D35        0.00000   0.00097   0.00000   0.00334   0.00345   0.00345
   D36       -3.14159   0.00306   0.00000   0.00965   0.00997  -3.13162
   D37        2.99766   0.01149   0.00000   0.01774   0.01709   3.01475
   D38       -0.14393   0.01042   0.00000   0.01694   0.01642  -0.12751
   D39        0.00000  -0.00252   0.00000  -0.00527  -0.00524  -0.00524
   D40        3.14159  -0.00360   0.00000  -0.00607  -0.00591   3.13568
   D41        0.00000   0.00115   0.00000   0.00089   0.00073   0.00072
   D42        3.14159   0.00048   0.00000   0.00101   0.00098  -3.14061
   D43        3.14159  -0.00093   0.00000  -0.00543  -0.00565   3.13594
   D44        0.00000  -0.00160   0.00000  -0.00530  -0.00539  -0.00539
   D45        0.00000   0.00195   0.00000   0.00298   0.00287   0.00287
   D46        3.14159   0.00050   0.00000   0.00123   0.00125  -3.14035
   D47        3.14159   0.00303   0.00000   0.00378   0.00354  -3.13805
   D48        0.00000   0.00158   0.00000   0.00203   0.00192   0.00192
   D49        0.00000  -0.00172   0.00000  -0.00318  -0.00310  -0.00310
   D50       -3.14159  -0.00138   0.00000  -0.00232  -0.00225   3.13935
   D51       -3.14159  -0.00105   0.00000  -0.00330  -0.00336   3.13823
   D52        0.00000  -0.00071   0.00000  -0.00245  -0.00251  -0.00250
   D53        0.00000   0.00017   0.00000   0.00124   0.00132   0.00132
   D54       -3.14159  -0.00017   0.00000   0.00038   0.00046  -3.14113
   D55       -3.14159   0.00162   0.00000   0.00299   0.00294  -3.13865
   D56        0.00000   0.00128   0.00000   0.00214   0.00209   0.00209
   D57       -1.36000   0.00001   0.00000  -0.00010  -0.00010  -1.36010
   D58        0.73440  -0.00046   0.00000  -0.00094  -0.00095   0.73345
   D59        2.82879  -0.00001   0.00000  -0.00014  -0.00014   2.82866
   D60        1.78160   0.00035   0.00000   0.00076   0.00077   1.78236
   D61       -2.40719  -0.00012   0.00000  -0.00008  -0.00008  -2.40727
   D62       -0.31280   0.00033   0.00000   0.00072   0.00073  -0.31207
         Item               Value     Threshold  Converged?
 Maximum Force            0.166422     0.000450     NO 
 RMS     Force            0.024622     0.000300     NO 
 Maximum Displacement     1.285556     0.001800     NO 
 RMS     Displacement     0.406179     0.001200     NO 
 Predicted change in Energy=-7.419708D-02
 GradGradGradGradGradGradGradGradGradGradGradGradGradGradGradGradGradGrad

                          Input orientation:                          
 ---------------------------------------------------------------------
 Center     Atomic      Atomic             Coordinates (Angstroms)
 Number     Number       Type             X           Y           Z
 ---------------------------------------------------------------------
      1          6           0       -4.760614   -0.332933   -0.121319
      2          6           0       -4.905114   -0.130613   -1.494282
      3          6           0       -4.667712    1.134502   -2.043514
      4          6           0       -4.284170    2.203023   -1.218499
      5          6           0       -4.142684    1.986137    0.156825
      6          6           0       -4.379528    0.723322    0.706950
      7          1           0       -5.198676   -0.946237   -2.130404
      8          1           0       -3.849135    2.799260    0.795625
      9          1           0       -4.267997    0.567762    1.764810
     10          8           0       -3.992176    3.632656   -1.668723
     11          6           0       -3.880975    4.480826   -3.083331
     12          6           0       -4.200228    3.910547   -4.321389
     13          6           0       -3.309793    5.753772   -3.039238
     14          6           0       -3.943011    4.613594   -5.505261
     15          6           0       -3.051631    6.453731   -4.223649
     16          6           0       -3.366062    5.887201   -5.463030
     17          1           0       -4.191542    4.170071   -6.452888
     18          1           0       -2.610384    7.432948   -4.177088
     19          1           0       -4.783715    1.262736   -3.090919
     20          1           0       -4.643460    2.948230   -4.383475
     21          7           0       -5.010621   -1.663736    0.454770
     22          8           0       -4.076720   -2.428406    0.535386
     23          8           0       -6.136357   -1.920074    0.815858
     24          1           0       -3.067941    6.198036   -2.090265
     25          6           0       -3.082847    6.653656   -6.762887
     26          1           0       -2.190497    6.265092   -7.226747
     27          1           0       -3.912888    6.539559   -7.440701
     28          1           0       -2.942937    7.699817   -6.546256
 ---------------------------------------------------------------------
                    Distance matrix (angstroms):
                    1          2          3          4          5
     1  C    0.000000
     2  C    1.395293   0.000000
     3  C    2.420089   1.399475   0.000000
     4  C    2.803903   2.430531   1.403385   0.000000
     5  C    2.416048   2.790714   2.417112   1.399490   0.000000
     6  C    1.395324   2.418856   2.795920   2.430218   1.397653
     7  H    2.145801   1.075208   2.149174   3.403782   3.865922
     8  H    3.388542   3.865607   3.391489   2.145098   1.074898
     9  H    2.147419   3.393424   3.870956   3.402127   2.147814
    10  O    4.325604   3.876348   2.614878   1.527027   2.462986
    11  C    5.720101   4.983904   3.591386   2.971288   4.097630
    12  C    5.996811   4.982004   3.621281   3.542684   4.874532
    13  C    6.904137   6.289508   4.916611   4.107593   5.010349
    14  C    7.356863   6.286580   4.961145   4.929865   6.245207
    15  C    8.112247   7.364674   5.971507   5.349636   6.351248
    16  C    8.316774   7.371141   5.997960   5.694922   6.885072
    17  H    7.790356   6.602487   5.374383   5.592556   6.961340
    18  H    9.021179   8.346897   6.960974   6.237542   7.127307
    19  H    3.371234   2.122594   1.061583   2.153983   3.388521
    20  H    5.380124   4.230268   2.960678   3.271315   4.668054
    21  N    1.471536   2.482016   3.766848   4.275439   3.763463
    22  O    2.299996   3.175790   4.437828   4.956741   4.431236
    23  O    2.299997   3.170943   4.434339   4.956726   4.434810
    24  H    7.028190   6.616811   5.310445   4.266066   4.893320
    25  C    9.784567   8.780954   7.432720   7.210517   8.413762
    26  H   10.031279   9.007516   7.702302   7.548704   8.754293
    27  H   10.075870   8.990862   7.675547   7.593366   8.860523
    28  H   10.445518   9.523036   8.145729   7.771657   8.889141
                    6          7          8          9         10
     6  C    0.000000
     7  H    3.392492   0.000000
     8  H    2.144458   4.940815   0.000000
     9  H    1.075038   4.281477   2.468673   0.000000
    10  O    3.775987   4.757631   2.605382   4.610726   0.000000
    11  C    5.360375   5.665459   4.227881   6.242301   1.653141
    12  C    5.956067   5.420855   5.248052   6.944107   2.675284
    13  C    6.362679   7.020255   4.870955   7.133844   2.615931
    14  C    7.342773   6.624053   6.557574   8.326362   3.960263
    15  C    7.675396   7.984423   6.259735   8.484446   3.920554
    16  C    8.109341   7.820534   6.995677   9.019512   4.457776
    17  H    7.948502   6.773093   7.384937   8.972905   4.818381
    18  H    8.485445   9.005494   6.908939   9.229551   4.758516
    19  H    3.857219   2.444247   4.282472   4.932247   2.875012
    20  H    5.561681   4.533373   5.241776   6.603712   2.874455
    21  N    2.481918   2.689478   4.624236   2.692077   5.796396
    22  O    3.170886   3.249930   5.239085   3.244240   6.449939
    23  O    3.175823   3.241615   5.244417   3.252785   6.450075
    24  H    6.286268   7.455353   4.526621   6.928327   2.759182
    25  C    9.625419   9.148497   8.519076  10.543448   5.991981
    26  H    9.922027   9.328726   8.895028  10.845445   6.408386
    27  H   10.021506   9.267667   9.046047  10.978611   6.463135
    28  H   10.165839   9.967064   8.873549  11.031583   6.436850
                   11         12         13         14         15
    11  C    0.000000
    12  C    1.399974   0.000000
    13  C    1.395917   2.415421   0.000000
    14  C    2.426359   1.400710   2.789666   0.000000
    15  C    2.424973   2.792241   1.399793   2.413129   0.000000
    16  C    2.811760   2.430296   2.428114   1.398831   1.398531
    17  H    3.398078   2.147258   3.865048   1.075397   3.388806
    18  H    3.394957   3.867265   2.145579   3.389498   1.075050
    19  H    3.342320   2.977485   4.726999   4.214745   5.588347
    20  H    2.149560   1.061303   3.384776   2.126610   3.853311
    21  N    7.179826   7.385192   8.373788   8.721618   9.571756
    22  O    7.801982   7.986604   8.961816   9.278850  10.128750
    23  O    7.827001   8.008498   9.040970   9.351798  10.248550
    24  H    2.143832   3.390073   1.075367   3.865023   2.148715
    25  C    4.347106   3.838502   3.837558   2.546244   2.547287
    26  H    4.817595   4.245469   4.364574   2.960113   3.129814
    27  H    4.819344   4.089545   4.511547   2.730601   3.331449
    28  H    4.820132   4.570490   4.027512   3.407139   2.638001
                   16         17         18         19         20
    16  C    0.000000
    17  H    2.147038   0.000000
    18  H    2.148030   4.280852   0.000000
    19  H    5.387238   4.483982   6.631339   0.000000
    20  H    3.381529   2.445321   4.928356   2.128676   0.000000
    21  N    9.733529   9.078542  10.486415   4.603003   6.694300
    22  O   10.277906   9.611922  11.027414   5.222495   7.309214
    23  O   10.394831   9.680229  11.173228   5.217550   7.277513
    24  H    3.400153   4.940405   2.467630   5.319998   4.278121
    25  C    1.535347   2.737426   2.741692   6.740795   4.671969
    26  H    2.153011   2.998693   3.292509   6.989523   5.010270
    27  H    2.153084   2.582228   3.625718   6.893751   4.772632
    28  H    2.153599   3.745243   2.407233   7.534178   5.490627
                   21         22         23         24         25
    21  N    0.000000
    22  O    1.209707   0.000000
    23  O    1.209701   2.139900   0.000000
    24  H    8.488737   9.073432   9.152292   0.000000
    25  C   11.179887  11.693435  11.843570   4.694807   0.000000
    26  H   11.394083  11.806162  12.134672   5.211320   1.078164
    27  H   11.438423  12.002883  12.028299   5.427499   1.077691
    28  H   11.872902  12.410319  12.527608   4.703917   1.077477
                   26         27         28
    26  H    0.000000
    27  H    1.757196   0.000000
    28  H    1.757177   1.756996   0.000000
 Stoichiometry    C13H11NO3
 Framework group  C1[X(C13H11NO3)]
 Deg. of freedom    78
 Full point group                 C1      NOp   1
 Largest Abelian subgroup         C1      NOp   1
 Largest concise Abelian subgroup C1      NOp   1
                         Standard orientation:                         
 ---------------------------------------------------------------------
 Center     Atomic      Atomic             Coordinates (Angstroms)
 Number     Number       Type             X           Y           Z
 ---------------------------------------------------------------------
      1          6           0       -3.452053   -0.081839    0.028127
      2          6           0       -2.483719   -1.081674   -0.069347
      3          6           0       -1.128691   -0.738548   -0.137873
      4          6           0       -0.738064    0.609067   -0.108951
      5          6           0       -1.719633    1.601760   -0.010683
      6          6           0       -3.073328    1.260779    0.057708
      7          1           0       -2.778148   -2.115542   -0.091749
      8          1           0       -1.428775    2.636305    0.012183
      9          1           0       -3.819137    2.031375    0.132913
     10          8           0        0.693412    1.136585   -0.175374
     11          6           0        2.230911    0.529470   -0.194990
     12          6           0        2.488787   -0.844748   -0.265369
     13          6           0        3.287269    1.417647    0.014370
     14          6           0        3.798065   -1.321458   -0.122102
     15          6           0        4.594643    0.938942    0.159401
     16          6           0        4.857047   -0.433134    0.092759
     17          1           0        3.989297   -2.378232   -0.178123
     18          1           0        5.399867    1.632566    0.321368
     19          1           0       -0.411181   -1.517527   -0.210868
     20          1           0        1.705776   -1.541367   -0.432645
     21          7           0       -4.876473   -0.444153    0.100058
     22          8           0       -5.359882   -0.618688    1.195157
     23          8           0       -5.485731   -0.547816   -0.939863
     24          1           0        3.094660    2.474475    0.063678
     25          6           0        6.290493   -0.959516    0.252278
     26          1           0        6.423042   -1.357353    1.245552
     27          1           0        6.474178   -1.738945   -0.468948
     28          1           0        6.992975   -0.157823    0.094911
 ---------------------------------------------------------------------
 Rotational constants (GHZ):           1.8523251           0.1498138           0.1419446
 Standard basis: 6-31+G(d) (6D, 7F)
 There are   345 symmetry adapted cartesian basis functions of A   symmetry.
 There are   345 symmetry adapted basis functions of A   symmetry.
   345 basis functions,   588 primitive gaussians,   345 cartesian basis functions
    60 alpha electrons       60 beta electrons
       nuclear repulsion energy      1039.5760668535 Hartrees.
 NAtoms=   28 NActive=   28 NUniq=   28 SFac= 1.00D+00 NAtFMM=   60 NAOKFM=F Big=F
 Integral buffers will be    131072 words long.
 Raffenetti 2 integral format.
 Two-electron integral symmetry is turned on.
 Nuclear repulsion after empirical dispersion term =     1039.5547653718 Hartrees.
 One-electron integrals computed using PRISM.
 NBasis=   345 RedAO= T EigKep=  1.54D-06  NBF=   345
 NBsUse=   344 1.00D-06 EigRej=  6.21D-07 NBFU=   344
 Initial guess from the checkpoint file:  "molecule_74.chk"
 B after Tr=     0.000000    0.000000    0.000000
         Rot=    0.999463    0.032596    0.000213   -0.003296 Ang=   3.75 deg.
 ExpMin= 4.38D-02 ExpMax= 5.48D+03 ExpMxC= 8.25D+02 IAcc=3 IRadAn=         5 AccDes= 0.00D+00
 Harris functional with IExCor=  402 and IRadAn=       5 diagonalized for initial guess.
 HarFok:  IExCor=  402 AccDes= 0.00D+00 IRadAn=         5 IDoV= 1 UseB2=F ITyADJ=14
 ICtDFT=  3500011 ScaDFX=  1.000000  1.000000  1.000000  1.000000
 FoFCou: FMM=F IPFlag=           0 FMFlag=      100000 FMFlg1=           0
         NFxFlg=           0 DoJE=T BraDBF=F KetDBF=T FulRan=T
[...]
 03902,-0.00000798,-0.00001829,-0.00006759,0.00001349,0.00000241,-0.000
 00315,-0.00006301,0.00000616,-0.00000018,0.00006303,-0.00003966,-0.000
 01147,0.00005432,0.00022523,0.00164455,0.00008601,-0.00005847,0.000062
 84,-0.00002776,-0.19127523,0.05392789,0.85630012,0.01545676,-0.0080259
 1,0.00987907,0.00389112,0.00052242,0.00007354,-0.00082417,-0.00087538,
 -0.00075308,0.00024865,0.00111078,-0.00013960,-0.00054135,-0.00111089,
 0.00002226,0.00079540,0.00359291,0.00181959,0.00043205,0.00030160,-0.0
 0032298,-0.00004227,-0.00006742,-0.00000234,0.00022240,0.00005363,-0.0
 0096816,-0.00003252,-0.00095240,0.00021392,0.00018265,0.00017435,-0.00
 035592,-0.00007324,-0.00000993,0.00005354,-0.00001337,-0.00005759,0.00
 006289,0.00000186,-0.00002290,0.00002277,0.00000244,0.00000621,-0.0000
 2335,0.00002679,0.00000386,-0.00000765,0.00000120,-0.00000810,0.000018
 14,-0.00000821,-0.00000096,0.00000865,-0.00055577,-0.00008097,-0.00015
 450,-0.00000934,0.00001277,-0.00000814,-0.10257288,-0.02252875,0.10167
 296,0.07008758,-0.01137920,-0.01641401,0.04945391,0.00233665,-0.004638
 49,-0.00518101,-0.00032320,-0.00326937,0.00177997,-0.00065145,0.003675
 91,0.00113572,-0.00063265,0.00008707,0.00191420,0.00002966,-0.00440631
 ,0.00183804,-0.00009328,0.00019606,0.00037034,0.00003234,-0.00008738,-
 0.00009756,-0.00026039,-0.00442279,0.00227602,-0.00015837,-0.00373125,
 0.00170952,0.00047154,0.00075773,-0.00181171,-0.00015193,-0.00017438,0
 .00024718,0.00001792,-0.00016352,0.00029638,-0.00002196,-0.00001662,0.
 00000129,0.00002149,-0.00000978,0.00000967,0.00002707,-0.00000938,-0.0
 0008177,0.00002268,-0.00003359,0.00007347,-0.00005237,-0.00003988,0.00
 005075,-0.00002643,-0.00069215,0.00011634,-0.00007157,0.00006353,-0.00
 005433,-0.02402272,-0.16179605,0.10926690,0.02153163,0.15816064,0.0109
 4940,0.03808282,-0.03167562,-0.00050532,0.00097264,0.00536571,-0.00092
 946,0.00365233,0.00085785,0.00042296,-0.00484107,0.00042296,-0.0001305
 2,0.00353588,-0.00132552,0.00295668,-0.01024689,-0.00508845,-0.0001968
 6,-0.00096895,0.00134247,-0.00003418,0.00024082,-0.00001023,-0.0008679
 4,0.00121094,0.00249941,-0.00003953,0.00440228,-0.00133025,-0.00045067
 ,-0.00080316,0.00187958,0.00018483,0.00017773,-0.00027813,-0.00004716,
 0.00014037,-0.00034887,-0.00001348,0.00002770,0.00000417,0.00000772,0.
 00003823,-0.00000313,-0.00001488,-0.00000221,0.00007690,-0.00001333,0.
 00002309,-0.00007307,0.00004669,0.00003108,-0.00005740,-0.00017190,0.0
 0030116,-0.00012208,0.00006616,-0.00007236,0.00003487,0.10214887,0.104
 19788,-0.45442301,-0.15128842,-0.11472251,0.57723974,0.01462677,0.0137
 9848,0.00534047,0.00080573,-0.00216255,0.00347450,-0.00056408,0.001047
 74,-0.00047121,0.00023392,-0.00125261,0.00036081,-0.00073608,0.0004823
 7,-0.00105769,0.00395511,-0.00021684,0.00009827,0.00025270,-0.00037148
 ,-0.00083963,-0.00055829,0.00001157,-0.00018079,0.00041795,-0.00041689
 ,-0.00013126,0.00009648,0.00107978,-0.00062550,-0.00011692,-0.00022211
 ,0.00056412,0.00002496,0.00003217,-0.00008906,0.00000096,0.00001509,-0
 .00011054,-0.00000415,-0.00000439,-0.00000236,0.00001609,0.00000240,-0
 .00001889,0.00000209,0.00000027,0.00001354,-0.00000505,0.00001138,-0.0
 0001466,0.00001444,0.00002498,-0.00001555,-0.00004722,0.00005765,-0.00
 004388,0.00001867,-0.00000704,0.00001831,-0.10561517,0.07493130,0.0808
 4568,0.01331989,0.01331115,0.03795163,0.07386985,0.01694875,-0.0569161
 5,-0.03373819,0.00152728,-0.00087121,-0.00438315,0.00054664,-0.0027450
 2,-0.00117064,0.00039879,0.00481151,-0.00281797,-0.00003770,-0.0044097
 6,0.00121545,-0.00203616,-0.00062730,0.00837186,-0.00005658,-0.0042857
 6,0.00155030,-0.00005717,-0.00081448,0.00025911,-0.00002339,0.00070854
 ,-0.00003814,-0.00033778,-0.00552306,0.00291333,0.00072231,0.00116382,
 -0.00281301,-0.00021567,-0.00018240,0.00043616,-0.00002733,-0.00016617
 ,0.00049020,-0.00000629,-0.00002780,0.00002987,-0.00000506,-0.00002717
 ,0.00002803,0.00002618,0.00000282,-0.00008901,0.00003227,-0.00006161,0
 .00010335,-0.00007126,-0.00007024,0.00007225,-0.00004564,-0.00006771,0
 .00015893,-0.00008552,0.00005285,-0.00009812,0.07648605,-0.32113523,-0
 .18078694,0.00640808,0.03688442,-0.02528415,-0.10015884,0.35424643,0.0
 0433472,-0.02305015,0.01015324,0.00229683,0.00813224,-0.00875970,-0.00
 031114,-0.00287066,0.00136764,-0.00016635,0.00278409,-0.00010208,-0.00
 089169,-0.00054870,0.00219714,0.00067891,0.00220083,0.00095837,-0.0009
 4013,0.00261835,0.00232338,-0.00015885,0.00002585,-0.00007993,-0.00025
 678,0.00129637,0.00079739,-0.00017304,-0.00189542,0.00120552,0.0002626
 2,0.00039098,-0.00098716,-0.00007370,-0.00002871,0.00017263,-0.0000332
 6,-0.00002936,0.00018026,0.00001490,0.00001453,0.00003997,-0.00003315,
 0.00001150,0.00001914,0.00000509,0.00000013,-0.00001152,0.00001200,-0.
 00004032,0.00003058,-0.00001817,-0.00003970,0.00001975,-0.00001093,-0.
 00019142,0.00004336,-0.00001219,-0.00001164,-0.00004481,0.08035054,-0.
 17551684,-0.29124656,0.04015394,-0.04869708,-0.09488923,-0.12505405,0.
 23546390,0.37658557,0.00000214,0.00015534,-0.00005662,-0.00001425,-0.0
 0008675,0.00010362,0.00008068,0.00016993,-0.00004288,-0.00025946,-0.00
 081583,0.00021596,0.00000519,0.00006311,-0.00008974,0.00001227,-0.0000
 7871,0.00000190,-0.00000469,0.00000893,-0.00000788,-0.00003308,-0.0000
 0638,0.00000981,0.00000270,-0.00000061,0.00000184,0.00269559,0.0018525
 7,-0.00002502,-0.01641385,0.00418876,-0.02405280,-0.00430367,-0.002919
 53,0.00248692,-0.19919617,0.01621096,-0.14056073,-0.00012983,-0.000249
 47,0.00102372,0.01005216,-0.00091153,0.00681709,0.00084573,-0.00195602
 ,0.00173438,0.00001189,0.00019248,-0.00004157,0.00061006,0.00100667,0.
 00003852,-0.00007450,0.00002756,-0.00004422,-0.00085048,0.00020878,-0.
 00114271,0.00000583,-0.00026399,0.00005014,0.00001134,0.00007757,-0.00
 006054,-0.00001924,0.00011478,0.00003758,0.20663273,-0.00000402,0.0000
 6421,-0.00008149,0.00005706,-0.00013314,0.00002732,0.00009248,0.000048
 27,0.00020344,-0.00044547,-0.00025432,0.00045661,0.00005974,-0.0001492
 6,0.00005489,-0.00001237,0.00004541,0.00002215,-0.00000507,-0.00001685
 ,0.00000008,-0.00000482,0.00001157,-0.00001447,-0.00000778,-0.00000750
 ,-0.00000091,0.00135560,-0.00339183,-0.00171809,-0.00580816,0.00588759
 ,-0.00628855,-0.00247488,0.00395902,0.00203548,0.01639784,-0.04198198,
 0.02842539,-0.00027961,-0.00084843,0.00015507,0.00914604,0.00190594,0.
 00747538,-0.00212388,0.00527340,0.00411571,0.00017333,-0.00068925,-0.0
 0027825,0.00078924,-0.00340081,-0.00158014,-0.00010286,0.00012367,-0.0
 0023044,-0.00041622,0.00045019,-0.00026516,-0.00000975,-0.00019383,0.0
 0006920,0.00002003,0.00007807,-0.00008273,0.00000064,0.00007274,-0.000
 00366,-0.01686093,0.03308271,-0.00001653,-0.00009111,-0.00003451,0.000
 06897,-0.00004018,-0.00000534,0.00012119,-0.00003085,0.00009021,-0.000
 10118,0.00054484,0.00030266,-0.00003874,-0.00019571,0.00009425,-0.0000
 0923,0.00011261,0.00002117,-0.00000569,-0.00001592,0.00000243,0.000012
 08,0.00000571,-0.00001925,0.00000179,-0.00000615,0.00000006,-0.0002321
 0,-0.00235591,0.00093602,0.00595847,0.00075137,0.00627907,0.00149668,0
 .00184294,0.00103050,-0.14265226,0.02804227,-0.19568635,0.00083195,-0.
 00003879,-0.00026210,-0.02104863,0.00169823,-0.01403338,0.00256851,0.0
 0390065,-0.00240998,-0.00006225,-0.00027013,-0.00008874,0.00065208,-0.
 00141249,0.00018830,-0.00010156,0.00001376,-0.00014644,0.00033507,0.00
 005783,0.00042381,-0.00001810,0.00007456,-0.00000122,0.00000523,-0.000
 00968,-0.00000035,0.00001846,-0.00003801,-0.00002681,0.15326068,-0.032
 69569,0.20413294,-0.00002574,-0.00001534,-0.00000701,0.00002008,0.0000
 0400,0.00000351,-0.00000820,-0.00001804,-0.00001197,0.00007737,0.00007
 700,-0.00001708,-0.00003868,-0.00001508,-0.00000121,0.00002102,0.00001
 098,0.00000795,-0.00000163,-0.00000044,-0.00000110,-0.00000275,0.00000
 107,-0.00000191,-0.00000007,-0.00000048,0.00000055,0.00025586,0.000158
 19,0.00026643,-0.00085599,-0.00019513,0.00006930,-0.00456613,-0.000753
 47,-0.00063835,-0.00314742,-0.00184061,-0.00410441,-0.00585846,-0.0116
 3017,0.03051427,0.00963013,0.00728972,-0.02040333,-0.09515315,-0.01294
 580,0.02418379,0.00060764,-0.00039701,0.00103101,0.00032687,0.00198447
 ,-0.00056477,-0.00003579,-0.00000616,-0.00000177,-0.00015336,-0.000533
 53,0.00117149,-0.00000241,0.00001725,-0.00000957,-0.00000173,-0.000006
 80,0.00000843,0.00000366,-0.00000640,0.00000137,0.00035936,0.00056394,
 -0.00114246,0.57835765,-0.00000334,0.00012193,-0.00003681,-0.00000190,
 -0.00006117,0.00003279,-0.00003612,0.00013896,0.00007356,-0.00001117,-
 0.00057548,0.00024497,0.00000685,0.00008789,-0.00006371,0.00001354,-0.
 00005499,-0.00002071,-0.00000063,-0.00000194,0.00000223,-0.00000183,-0
 .00000522,0.00000684,0.00000006,0.00000414,-0.00000152,0.00030400,-0.0
 0013103,-0.00087740,-0.00002704,-0.00053404,0.00000607,-0.00232945,0.0
 0523232,0.00168991,-0.00058924,0.00530564,0.00185685,-0.00451643,-0.00
 053397,0.01112193,-0.00036523,0.00152027,0.00713214,-0.01405492,-0.089
 93096,0.04794755,0.00175067,-0.00250175,-0.00114557,-0.00027314,-0.002
 48390,-0.00189364,0.00000822,-0.00000842,-0.00003636,0.00000432,0.0000
 7960,0.00032003,-0.00000021,-0.00020389,0.00006471,0.00001499,0.000072
 17,-0.00007386,-0.00001059,0.00008288,0.00001048,-0.00011712,0.0001667
 3,0.00005277,0.00095419,0.54129264,-0.00001091,0.00000784,0.00000507,0
 .00000525,0.00001111,0.00000019,-0.00000699,0.00001711,0.00000508,0.00
 001095,-0.00006587,0.00006396,-0.00000792,0.00001398,-0.00001804,0.000
 00760,-0.00001380,0.00000299,-0.00000101,0.00000157,0.00000104,-0.0000
 0103,-0.00000328,0.00000130,0.00000035,0.00000052,-0.00000135,0.000226
 68,-0.00036945,-0.00029884,0.00000225,0.00056772,-0.00110877,-0.001799
 46,0.00143649,0.00357285,-0.00283889,0.00100110,0.00209507,0.00715101,
 0.00582485,-0.00811076,0.00313072,0.01058916,-0.02560697,0.02448357,0.
 04410743,-0.18647614,-0.00090106,-0.00215719,0.00016835,0.00141640,-0.
 00123880,0.00040701,-0.00000604,0.00001035,-0.00001986,-0.00017771,-0.
 00023315,0.00030448,-0.00000390,-0.00000105,0.00000992,0.00000189,0.00
 000221,-0.00000696,0.00000226,-0.00000090,-0.00000395,0.00025051,0.000
 11635,-0.00029594,0.02581999,0.01111230,0.49454686,0.00000579,-0.00004
 204,0.00001383,-0.00000240,0.00002049,-0.00001381,-0.00000791,-0.00005
 368,-0.00001544,-0.00003057,0.00018600,-0.00006655,0.00000328,-0.00003
 590,0.00002398,-0.00000746,0.00002016,0.00000504,0.00000323,-0.0000026
 4,0.00000362,0.00000253,0.00000232,-0.00000363,0.00000128,-0.00000122,
 0.00000018,-0.00008165,-0.00013583,0.00022045,0.00121812,0.00020368,0.
 00019444,-0.00018331,-0.00043271,-0.00115712,-0.00092956,-0.00047304,0
 .00097709,-0.00018506,-0.00119308,0.00137292,-0.00039193,0.00087029,-0
 .00166797,-0.00173697,0.00456544,0.00566066,-0.00029422,0.00043005,0.0
 0017973,-0.00001182,-0.00006085,-0.00009833,0.00001597,0.00001503,0.00
 001780,-0.00004255,0.00002228,0.00004923,0.00000027,0.00006546,-0.0000
 0737,-0.00000447,-0.00001940,0.00001349,0.00000214,-0.00002946,-0.0000
 1206,-0.00000172,-0.00005452,-0.00000197,-0.06262834,0.04866921,0.0384
 3995,0.06358573,0.00000129,-0.00001857,0.00000336,0.00000014,0.0000066
 7,-0.00000405,0.,-0.00003321,0.00000510,-0.00000663,0.00009036,-0.0000
 1619,0.00000106,-0.00002924,0.00000766,-0.00000269,0.00001142,0.000004
 32,0.00000003,-0.00000500,0.00000274,0.00000065,0.00000255,-0.00000249
 ,0.00000031,-0.00000235,0.00000007,-0.00003112,-0.00012011,0.00013377,
 0.00006240,-0.00002968,0.00021971,0.00020048,-0.00033791,-0.00049426,-
 0.00000678,-0.00036265,-0.00033077,-0.00027323,-0.00007750,0.00052131,
 -0.00004411,0.00012671,0.00031270,-0.00373309,0.01246480,0.00898935,-0
 .00017441,0.00002273,-0.00010644,0.00018965,0.00001183,-0.00002882,-0.
 00000327,0.00000251,0.00001749,-0.00002371,0.00001634,0.00000677,-0.00
 000047,0.00001519,-0.00000192,-0.00000089,-0.00000341,0.00000340,0.000
 00139,-0.00000618,-0.00000403,0.00001226,0.00001188,0.00001244,0.04761
 394,-0.19283864,-0.11739182,-0.05260288,0.20905770,-0.00000001,0.00015
 073,-0.00004216,-0.00000725,-0.00007336,0.00004370,-0.00003268,0.00018
 767,0.00003336,-0.00000510,-0.00067284,0.00019955,0.00001224,0.0001332
 8,-0.00007706,0.00001230,-0.00007351,-0.00002236,0.00000276,0.00001191
 ,-0.00000921,-0.00000315,-0.00000813,0.00001488,-0.00000031,0.00000523
 ,0.00000061,0.00018846,0.00048660,-0.00082194,0.00023588,-0.00026827,0
 .00057414,-0.00038100,0.00144828,-0.00058093,-0.00014835,0.00148218,0.
 00017927,-0.00162554,-0.00001321,0.00005220,0.00132643,0.00087392,0.00
 001467,0.00822233,-0.01931574,-0.02178156,0.00036970,-0.00058221,-0.00
 011269,-0.00016474,-0.00078287,-0.00037627,0.00002363,-0.00004466,-0.0
 0004365,0.00005139,0.00005815,-0.00008253,0.00001381,-0.00022603,0.000
 02947,0.00000753,0.00006619,-0.00004895,-0.00002200,0.00010089,0.00003
 832,-0.00000950,0.00003020,-0.00012052,0.03876486,-0.12098391,-0.14176
 472,-0.04414028,0.12903880,0.15658577,0.00000212,0.00003033,-0.0000129
 5,-0.00000063,-0.00002014,0.00001201,-0.00000357,0.00002295,0.00000880
 ,-0.00000479,-0.00008457,-0.00001680,0.00000034,0.00002590,-0.00001351
 ,0.00000451,-0.00001096,-0.00000775,-0.00000273,-0.00000350,0.00000102
 ,-0.00000105,-0.00000078,0.00000030,-0.00000070,0.00000072,0.00000013,
 0.00000422,0.00023486,0.00000507,0.00029048,-0.00022855,0.00025894,0.0
 0038943,-0.00016443,-0.00068229,0.00013041,0.00014392,0.00040086,0.000
 32324,-0.00083065,0.00157438,-0.00028456,-0.00011063,0.00097672,0.0075
 5149,-0.00567011,0.00352454,-0.00008338,0.00029896,0.00021750,0.000327
 67,-0.00004090,0.00026560,-0.00000016,-0.00000421,-0.00000077,0.000002
 61,0.00006518,-0.00004841,-0.00000184,-0.00005958,0.00002416,0.0000054
 4,0.00002158,-0.00002416,-0.00000083,0.00002352,0.00000114,-0.00002666
 ,0.00000286,0.00006747,-0.20900932,0.09935738,-0.08315121,-0.00599320,
 0.00305259,-0.00260023,0.22476023,-0.00000130,-0.00005734,0.00001782,0
 .00000158,0.00002832,-0.00001608,0.00000658,-0.00006366,-0.00002233,0.
 00001347,0.00019478,-0.00006546,-0.00000434,-0.00004756,0.00002693,-0.
 00000605,0.00002498,0.00001321,0.00000385,-0.00000059,0.00000165,0.000
 00205,0.00000353,-0.00000290,0.00000043,-0.00000179,0.00000015,-0.0001
 0924,-0.00018803,0.00025880,-0.00041469,-0.00008724,-0.00029837,0.0000
 1231,-0.00003878,0.00025171,0.00062769,0.00067215,-0.00028272,0.000960
 55,0.00078257,0.00002963,-0.00126395,-0.00053767,0.00164582,0.00792505
 ,-0.00487509,0.00280635,-0.00086235,-0.00028660,0.00013111,0.00020374,
 -0.00008459,-0.00001906,0.00000250,0.00002342,0.00001013,0.00000073,-0
 .00002110,-0.00000806,-0.00000145,0.00009623,-0.00002027,-0.00000595,-
 0.00003143,0.00002707,0.00000475,-0.00004204,-0.00001124,-0.00002903,-
 0.00008290,0.00008990,0.09852282,-0.11148901,0.05345491,0.02022438,-0.
 01223170,0.01047144,-0.10936314,0.11615690,-0.00000299,0.00006120,-0.0
 0002120,0.00000193,-0.00003358,0.00001861,-0.00001307,0.00006529,0.000
 01820,0.00001137,-0.00021625,0.00005643,-0.00000345,0.00005413,-0.0000
 2921,0.00000892,-0.00002642,-0.00001229,-0.00000058,0.00000142,-0.0000
 0184,-0.00000254,-0.00000264,0.00000238,-0.00000039,0.00000262,0.00000
 013,0.00016786,0.00031584,-0.00020680,-0.00013138,-0.00007400,0.000353
 12,0.00009502,-0.00040250,-0.00036064,-0.00093048,-0.00064856,-0.00097
 251,-0.00162491,-0.00109242,0.00094564,0.00271269,0.00287189,-0.003878
 96,-0.02439506,0.01424459,-0.01439719,0.00096876,0.00064182,0.00035966
 ,0.00006433,0.00023313,0.00019161,-0.00000042,-0.00002794,-0.00001080,
 0.00001208,-0.00000126,0.00002249,0.00000210,-0.00009792,0.00002354,0.
 00000596,0.00003143,-0.00002946,-0.00000666,0.00004095,0.00001052,0.00
 012686,0.00009080,-0.00040583,-0.08087653,0.05217166,-0.08890372,0.016
 58233,-0.00916781,0.00913935,0.08830979,-0.05917477,0.09933987,-0.0000
 0209,-0.00004882,0.00001856,0.00000481,0.00003060,-0.00001565,0.000007
 41,-0.00004386,-0.00001389,-0.00001965,0.00015294,-0.00001046,-0.00000
 666,-0.00004352,0.00001986,-0.00000289,0.00001961,0.00001219,-0.000001
 91,0.00000186,-0.00000125,-0.00000127,0.00000119,-0.00000199,-0.000000
 20,-0.00000179,-0.00000047,0.00008492,-0.00031636,0.00011239,0.0002258
 3,0.00027250,-0.00025646,-0.00038172,0.00004676,0.00003685,-0.00012952
 ,0.00038129,0.00077788,0.00053397,-0.00121721,0.00144965,0.00041724,0.
 00113595,-0.00182100,-0.00654483,-0.00323180,0.00077591,0.00046410,0.0
 0000399,-0.00008132,0.00056289,-0.00045925,-0.00013761,-0.00000508,0.0
 0001420,0.00000332,-0.00003876,-0.00003607,0.00014823,0.00000044,0.000
 08615,-0.00002933,-0.00000624,-0.00002955,0.00003150,0.00000563,-0.000
 03439,-0.00000415,-0.00000006,-0.00004845,0.00003207,-0.20817049,-0.12
 874508,-0.01204327,0.00769478,0.00576709,-0.00009116,-0.01837879,-0.01
 645100,-0.00108155,0.22368813,0.00000118,-0.00006411,0.00002148,0.0000
 0311,0.00003299,-0.00001825,0.00001875,-0.00006853,-0.00002098,-0.0000
 1376,0.00021349,-0.00007202,-0.00000355,-0.00005363,0.00003029,-0.0000
 0689,0.00002768,0.00001491,-0.00000438,-0.00000090,-0.00000098,-0.0000
 0092,0.00000342,-0.00000398,-0.00000018,-0.00000207,-0.00000010,-0.000
 00428,-0.00022894,0.00029546,0.00057078,0.00005319,-0.00005262,-0.0004
 8911,0.00056706,-0.00063142,-0.00015631,-0.00000316,0.00034921,0.00031
 621,-0.00048947,0.00215147,-0.00080974,0.00078975,-0.00081914,-0.00720
 571,-0.00592284,-0.00151538,-0.00006183,-0.00010993,-0.00013453,0.0007
 5039,-0.00020502,0.00055905,-0.00001219,0.00002372,0.00000627,-0.00001
 221,-0.00008676,0.00010261,-0.00000430,0.00010894,-0.00002586,-0.00000
 523,-0.00003581,0.00003249,0.00001024,-0.00004675,-0.00001031,0.000006
 20,-0.00003131,0.00000076,-0.12883313,-0.15275075,-0.00679971,-0.02015
 758,-0.01574454,-0.00150074,0.01331140,0.01218423,0.00013928,0.1427930
 5,0.16184006,0.00000273,0.00003811,-0.00000975,-0.00000367,-0.00001911
 ,0.00000822,-0.00000623,0.00004544,0.00001245,-0.00001630,-0.00014697,
 0.00005097,0.00000652,0.00003438,-0.00001563,0.00000222,-0.00001764,-0
 .00000762,0.,0.00000301,-0.00000238,0.00000066,-0.00000172,0.00000265,
 -0.00000037,0.00000185,-0.00000009,-0.00004399,0.00012900,-0.00024172,
 0.00009380,0.00009561,0.00027276,0.00139830,-0.00043392,-0.00033754,0.
 00012138,-0.00022045,0.00012337,-0.00040190,0.00224148,-0.00475466,0.0
 0143685,-0.00022965,0.00084276,0.02573813,0.01987265,0.00074457,0.0000
 6021,0.00023678,0.00007478,-0.00091303,0.00022503,-0.00036294,0.000009
 02,-0.00002127,-0.00000630,0.00009110,0.00007677,-0.00039293,0.0000028
 8,-0.00005432,0.00000772,0.00000226,0.00001614,-0.00001297,-0.00000432
 ,0.00002364,0.00000899,-0.00002532,-0.00003850,0.00003534,-0.01406148,
 -0.00871330,-0.04856817,-0.01657023,-0.01173041,-0.00102074,-0.0090903
 4,-0.00931538,-0.00125111,0.01217114,0.00790275,0.05479999\\-0.0000037
 3,0.00000549,0.00000328,0.00000203,0.00000334,-0.00000291,0.00000052,-
 0.00000386,0.00000042,-0.00000285,0.00000050,0.00000458,0.00000056,0.0
 0000023,-0.00000138,0.00000141,-0.00000379,-0.00000069,-0.00000043,-0.
 00000069,0.00000035,0.00000037,0.00000007,-0.00000027,-0.00000031,-0.0
 0000047,0.00000043,0.00000256,0.00000216,-0.00000601,-0.00000177,-0.00
 000527,0.00000578,-0.00000033,0.00000285,-0.00000399,0.00000001,0.0000
 0184,-0.00000183,-0.00000165,-0.00000081,0.00000289,-0.00000190,-0.000
 00023,-0.00000068,0.00000372,0.00000259,-0.00000115,-0.00000010,0.0000
 0048,0.00000026,0.00000009,0.00000034,0.00000109,0.00000046,-0.0000002
 4,0.00000009,0.00000010,-0.00000001,-0.00000031,0.00000391,-0.00001016
 ,0.00000318,-0.00000049,0.00000382,-0.00000451,-0.00000198,0.00000288,
 0.00000115,0.00000055,0.00000005,-0.00000014,-0.00000215,0.00000165,0.
 00000202,0.00000055,-0.00000128,-0.00000090,0.00000063,-0.00000079,-0.
 00000015,0.00000022,-0.00000070,-0.00000061\\\@


 THE MEEK SHALL INHERIT THE EARTH.
 (THE REST OF US WILL ESCAPE TO THE STARS)
 Job cpu time:       0 days  2 hours 36 minutes 51.6 seconds.
 Elapsed time:       0 days  0 hours  5 minutes 13.8 seconds.
 File lengths (MBytes):  RWF=    352 Int=      0 D2E=      0 Chk=     12 Scr=      1
 Normal termination of Gaussian 16 at Sat Sep 16 15:46:55 2023.
