 Entering Gaussian System, Link 0=/home/ubuntu/g16/g16
 Input=/home/ubuntu/ML products/molecule_80.gjf
 Output=/home/ubuntu/ML products/molecule_80.log
 Initial command:
 /home/ubuntu/g16/l1.exe "/home/ubuntu/Scratch/Gau-358723.inp" -scrdir="/home/ubuntu/Scratch/"
 Entering Link 1 = /home/ubuntu/g16/l1.exe PID=    358725.
  
 Copyright (c) 1988-2017, Gaussian, Inc.  All Rights Reserved.
  
 This is part of the Gaussian(R) 16 program.  It is based on
 the Gaussian(R) 09 system (copyright 2009, Gaussian, Inc.),
 the Gaussian(R) 03 system (copyright 2003, Gaussian, Inc.),
 the Gaussian(R) 98 system (copyright 1998, Gaussian, Inc.),
 the Gaussian(R) 94 system (copyright 1995, Gaussian, Inc.),
 the Gaussian 92(TM) system (copyright 1992, Gaussian, Inc.),
 the Gaussian 90(TM) system (copyright 1990, Gaussian, Inc.),
 the Gaussian 88(TM) system (copyright 1988, Gaussian, Inc.),
 the Gaussian 86(TM) system (copyright 1986, Carnegie Mellon
 University), and the Gaussian 82(TM) system (copyright 1983,
 Carnegie Mellon University). Gaussian is a federally registered
 trademark of Gaussian, Inc.
  
 This software contains proprietary and confidential information,
 including trade secrets, belonging to Gaussian, Inc.
  
 This software is provided under written license and may be
 used, copied, transmitted, or stored only in accord with that
 written license.
  
 The following legend is applicable only to US Government
 contracts under FAR:
  
                    RESTRICTED RIGHTS LEGEND
  
 Use, reproduction and disclosure by the US Government is
 subject to restrictions as set forth in subparagraphs (a)
 and (c) of the Commercial Computer Software - Restricted
 Rights clause in FAR 52.227-19.
  
 Gaussian, Inc.
 340 Quinnipiac St., Bldg. 40, Wallingford CT 06492
  
  
 ---------------------------------------------------------------
 Warning -- This program may not be used in any manner that
 competes with the business of Gaussian, Inc. or will provide
 assistance to any competitor of Gaussian, Inc.  The licensee
 of this program is prohibited from giving any competitor of
 Gaussian, Inc. access to this program.  By using this program,
 the user acknowledges that Gaussian, Inc. is engaged in the
 business of creating and licensing software in the field of
 computational chemistry and represents and warrants to the
 licensee that it is not a competitor of Gaussian, Inc. and that
 it will not use this program in any manner prohibited above.
 ---------------------------------------------------------------
  

 Cite this work as:
 Gaussian 16, Revision B.01,
 M. J. Frisch, G. W. Trucks, H. B. Schlegel, G. E. Scuseria, 
 M. A. Robb, J. R. Cheeseman, G. Scalmani, V. Barone, 
 G. A. Petersson, H. Nakatsuji, X. Li, M. Caricato, A. V. Marenich, 
 J. Bloino, B. G. Janesko, R. Gomperts, B. Mennucci, H. P. Hratchian, 
 J. V. Ortiz, A. F. Izmaylov, J. L. Sonnenberg, D. Williams-Young, 
 F. Ding, F. Lipparini, F. Egidi, J. Goings, B. Peng, A. Petrone, 
 T. Henderson, D. Ranasinghe, V. G. Zakrzewski, J. Gao, N. Rega, 
 G. Zheng, W. Liang, M. Hada, M. Ehara, K. Toyota, R. Fukuda, 
 J. Hasegawa, M. Ishida, T. Nakajima, Y. Honda, O. Kitao, H. Nakai, 
 T. Vreven, K. Throssell, J. A. Montgomery, Jr., J. E. Peralta, 
 F. Ogliaro, M. J. Bearpark, J. J. Heyd, E. N. Brothers, K. N. Kudin, 
 V. N. Staroverov, T. A. Keith, R. Kobayashi, J. Normand, 
 K. Raghavachari, A. P. Rendell, J. C. Burant, S. S. Iyengar, 
 J. Tomasi, M. Cossi, J. M. Millam, M. Klene, C. Adamo, R. Cammi, 
 J. W. Ochterski, R. L. Martin, K. Morokuma, O. Farkas, 
 J. B. Foresman, and D. J. Fox, Gaussian, Inc., Wallingford CT, 2016.
 
 ******************************************
 Gaussian 16:  EM64L-G16RevB.01 20-Dec-2017
                15-Sep-2023 
 ******************************************
 %nprocshared=30
 Will use up to   30 processors via shared memory.
 %mem=30GB
 %chk=molecule_80.chk
 ----------------------------------------------------------------------
 # opt freq b3lyp/6-31+g(d) geom=connectivity empiricaldispersion=gd3 v
 olume
 ----------------------------------------------------------------------
 1/18=20,19=15,26=3,38=1,57=2/1,3;
 2/9=110,12=2,17=6,18=5,40=1/2;
 3/5=1,6=6,7=11,11=2,25=1,30=1,71=1,74=-5,124=31/1,2,3;
 4//1;
 5/5=2,38=5/2;
 6/7=2,8=2,9=2,10=2,28=1,44=1/1,4;
 7//1,2,3,16;
 1/18=20,19=15,26=3/3(2);
 2/9=110/2;
 99//99;
 2/9=110/2;
 3/5=1,6=6,7=11,11=2,25=1,30=1,71=1,74=-5,124=31/1,2,3;
 4/5=5,16=3,69=1/1;
 5/5=2,38=5/2;
 7//1,2,3,16;
 1/18=20,19=15,26=3/3(-5);
 2/9=110/2;
 6/7=2,8=2,9=2,10=2,19=2,28=1,44=1/1,4;
 99/9=1/99;
 -------------
 ML molecule80
 -------------
 Symbolic Z-matrix:
 Charge =  0 Multiplicity = 1
 C                    -4.74942  -0.23058  -0.40002 
 C                    -4.8202    0.23854  -1.71867 
 C                    -4.55025   1.58484  -1.99888 
 C                    -4.20951   2.46203  -0.96044 
 C                    -4.13873   1.99291   0.35822 
 C                    -4.40868   0.64661   0.63842 
 H                    -5.08036  -0.43121  -2.51155 
 H                    -3.87857   2.66266   1.15109 
 H                    -4.35464   0.28843   1.64524 
 O                    -3.91049   3.9533   -1.27081 
 C                    -3.81752   4.69985  -2.77936 
 C                    -4.13168   3.88761  -3.87731 
 C                    -3.30395   5.98751  -2.98454 
 C                    -3.93225   4.36302  -5.18043 
 C                    -3.10452   6.46292  -4.28767 
 H                    -3.06408   6.60768  -2.14623 
 C                    -3.41867   5.65068  -5.38561 
 H                    -4.17211   3.74285  -6.01874 
 H                    -2.7124    7.44608  -4.44432 
 H                    -4.60429   1.94302  -3.0057 
 H                    -4.5238    2.90445  -3.72065 
 N                    -5.03258  -1.64279  -0.1061 
 O                    -4.12167  -2.42275  -0.12371 
 O                    -6.16321  -1.95858   0.13958 
 C                    -3.19953   6.17311  -6.81762 
 N                    -3.03445   6.56663  -7.89627 
 

 GradGradGradGradGradGradGradGradGradGradGradGradGradGradGradGradGradGrad
 Berny optimization.
 Initialization pass.
                           ----------------------------
                           !    Initial Parameters    !
                           ! (Angstroms and Degrees)  !
 --------------------------                            --------------------------
 ! Name  Definition              Value          Derivative Info.                !
 --------------------------------------------------------------------------------
 ! R1    R(1,2)                  1.4014         estimate D2E/DX2                !
 ! R2    R(1,6)                  1.4014         estimate D2E/DX2                !
 ! R3    R(1,22)                 1.47           estimate D2E/DX2                !
 ! R4    R(2,3)                  1.4014         estimate D2E/DX2                !
 ! R5    R(2,7)                  1.07           estimate D2E/DX2                !
 ! R6    R(3,4)                  1.4014         estimate D2E/DX2                !
 ! R7    R(3,20)                 1.07           estimate D2E/DX2                !
 ! R8    R(4,5)                  1.4014         estimate D2E/DX2                !
 ! R9    R(4,10)                 1.5523         estimate D2E/DX2                !
 ! R10   R(5,6)                  1.4014         estimate D2E/DX2                !
 ! R11   R(5,8)                  1.07           estimate D2E/DX2                !
 ! R12   R(6,9)                  1.07           estimate D2E/DX2                !
 ! R13   R(10,11)                1.6857         estimate D2E/DX2                !
 ! R14   R(11,12)                1.4014         estimate D2E/DX2                !
 ! R15   R(11,13)                1.4014         estimate D2E/DX2                !
 ! R16   R(12,14)                1.4014         estimate D2E/DX2                !
 ! R17   R(12,21)                1.07           estimate D2E/DX2                !
 ! R18   R(13,15)                1.4014         estimate D2E/DX2                !
 ! R19   R(13,16)                1.07           estimate D2E/DX2                !
 ! R20   R(14,17)                1.4014         estimate D2E/DX2                !
 ! R21   R(14,18)                1.07           estimate D2E/DX2                !
 ! R22   R(15,17)                1.4014         estimate D2E/DX2                !
 ! R23   R(15,19)                1.07           estimate D2E/DX2                !
 ! R24   R(17,25)                1.54           estimate D2E/DX2                !
 ! R25   R(22,23)                1.1993         estimate D2E/DX2                !
 ! R26   R(22,24)                1.1993         estimate D2E/DX2                !
 ! R27   R(25,26)                1.16           estimate D2E/DX2                !
 ! A1    A(2,1,6)              120.0            estimate D2E/DX2                !
 ! A2    A(2,1,22)             120.0            estimate D2E/DX2                !
 ! A3    A(6,1,22)             120.0            estimate D2E/DX2                !
 ! A4    A(1,2,3)              120.0            estimate D2E/DX2                !
 ! A5    A(1,2,7)              120.0            estimate D2E/DX2                !
 ! A6    A(3,2,7)              120.0            estimate D2E/DX2                !
 ! A7    A(2,3,4)              120.0            estimate D2E/DX2                !
 ! A8    A(2,3,20)             120.0            estimate D2E/DX2                !
 ! A9    A(4,3,20)             120.0            estimate D2E/DX2                !
 ! A10   A(3,4,5)              120.0            estimate D2E/DX2                !
 ! A11   A(3,4,10)             120.0            estimate D2E/DX2                !
 ! A12   A(5,4,10)             120.0            estimate D2E/DX2                !
 ! A13   A(4,5,6)              120.0            estimate D2E/DX2                !
 ! A14   A(4,5,8)              120.0            estimate D2E/DX2                !
 ! A15   A(6,5,8)              120.0            estimate D2E/DX2                !
 ! A16   A(1,6,5)              120.0            estimate D2E/DX2                !
 ! A17   A(1,6,9)              120.0            estimate D2E/DX2                !
 ! A18   A(5,6,9)              120.0            estimate D2E/DX2                !
 ! A19   A(4,10,11)            127.9526         estimate D2E/DX2                !
 ! A20   A(10,11,12)           115.5989         estimate D2E/DX2                !
 ! A21   A(10,11,13)           123.9281         estimate D2E/DX2                !
 ! A22   A(12,11,13)           120.0            estimate D2E/DX2                !
 ! A23   A(11,12,14)           120.0            estimate D2E/DX2                !
 ! A24   A(11,12,21)           120.0            estimate D2E/DX2                !
 ! A25   A(14,12,21)           120.0            estimate D2E/DX2                !
 ! A26   A(11,13,15)           120.0            estimate D2E/DX2                !
 ! A27   A(11,13,16)           120.0            estimate D2E/DX2                !
 ! A28   A(15,13,16)           120.0            estimate D2E/DX2                !
 ! A29   A(12,14,17)           120.0            estimate D2E/DX2                !
 ! A30   A(12,14,18)           120.0            estimate D2E/DX2                !
 ! A31   A(17,14,18)           120.0            estimate D2E/DX2                !
 ! A32   A(13,15,17)           120.0            estimate D2E/DX2                !
 ! A33   A(13,15,19)           120.0            estimate D2E/DX2                !
 ! A34   A(17,15,19)           120.0            estimate D2E/DX2                !
 ! A35   A(14,17,15)           120.0            estimate D2E/DX2                !
 ! A36   A(14,17,25)           120.0            estimate D2E/DX2                !
 ! A37   A(15,17,25)           120.0            estimate D2E/DX2                !
 ! A38   A(1,22,23)            118.3934         estimate D2E/DX2                !
 ! A39   A(1,22,24)            118.3927         estimate D2E/DX2                !
 ! A40   A(23,22,24)           123.2139         estimate D2E/DX2                !
 ! A41   L(17,25,26,18,-1)     180.0            estimate D2E/DX2                !
 ! A42   L(17,25,26,18,-2)     180.0            estimate D2E/DX2                !
 ! D1    D(6,1,2,3)              0.0001         estimate D2E/DX2                !
 ! D2    D(6,1,2,7)           -179.9998         estimate D2E/DX2                !
 ! D3    D(22,1,2,3)          -179.9999         estimate D2E/DX2                !
 ! D4    D(22,1,2,7)             0.0002         estimate D2E/DX2                !
 ! D5    D(2,1,6,5)             -0.0001         estimate D2E/DX2                !
 ! D6    D(2,1,6,9)            179.9998         estimate D2E/DX2                !
 ! D7    D(22,1,6,5)           179.9999         estimate D2E/DX2                !
 ! D8    D(22,1,6,9)            -0.0002         estimate D2E/DX2                !
 ! D9    D(2,1,22,23)           90.3367         estimate D2E/DX2                !
 ! D10   D(2,1,22,24)          -89.6634         estimate D2E/DX2                !
 ! D11   D(6,1,22,23)          -89.6633         estimate D2E/DX2                !
 ! D12   D(6,1,22,24)           90.3367         estimate D2E/DX2                !
 ! D13   D(1,2,3,4)              0.0001         estimate D2E/DX2                !
 ! D14   D(1,2,3,20)          -179.9999         estimate D2E/DX2                !
 ! D15   D(7,2,3,4)            179.9999         estimate D2E/DX2                !
 ! D16   D(7,2,3,20)            -0.0001         estimate D2E/DX2                !
 ! D17   D(2,3,4,5)             -0.0002         estimate D2E/DX2                !
 ! D18   D(2,3,4,10)           179.9998         estimate D2E/DX2                !
 ! D19   D(20,3,4,5)           179.9998         estimate D2E/DX2                !
 ! D20   D(20,3,4,10)           -0.0002         estimate D2E/DX2                !
 ! D21   D(3,4,5,6)              0.0001         estimate D2E/DX2                !
 ! D22   D(3,4,5,8)           -180.0            estimate D2E/DX2                !
 ! D23   D(10,4,5,6)          -179.9999         estimate D2E/DX2                !
 ! D24   D(10,4,5,8)             0.0            estimate D2E/DX2                !
 ! D25   D(3,4,10,11)           -5.2547         estimate D2E/DX2                !
 ! D26   D(5,4,10,11)          174.7453         estimate D2E/DX2                !
 ! D27   D(4,5,6,1)              0.0            estimate D2E/DX2                !
 ! D28   D(4,5,6,9)           -179.9999         estimate D2E/DX2                !
 ! D29   D(8,5,6,1)           -179.9999         estimate D2E/DX2                !
 ! D30   D(8,5,6,9)              0.0002         estimate D2E/DX2                !
 ! D31   D(4,10,11,12)           4.3564         estimate D2E/DX2                !
 ! D32   D(4,10,11,13)        -167.7268         estimate D2E/DX2                !
 ! D33   D(10,11,12,14)       -172.4167         estimate D2E/DX2                !
 ! D34   D(10,11,12,21)          7.5833         estimate D2E/DX2                !
 ! D35   D(13,11,12,14)          0.0002         estimate D2E/DX2                !
 ! D36   D(13,11,12,21)       -179.9998         estimate D2E/DX2                !
 ! D37   D(10,11,13,15)        171.7535         estimate D2E/DX2                !
 ! D38   D(10,11,13,16)         -8.2466         estimate D2E/DX2                !
 ! D39   D(12,11,13,15)          0.0            estimate D2E/DX2                !
 ! D40   D(12,11,13,16)        179.9999         estimate D2E/DX2                !
 ! D41   D(11,12,14,17)         -0.0002         estimate D2E/DX2                !
 ! D42   D(11,12,14,18)        179.9998         estimate D2E/DX2                !
 ! D43   D(21,12,14,17)        179.9998         estimate D2E/DX2                !
 ! D44   D(21,12,14,18)         -0.0002         estimate D2E/DX2                !
 ! D45   D(11,13,15,17)         -0.0001         estimate D2E/DX2                !
 ! D46   D(11,13,15,19)        179.9999         estimate D2E/DX2                !
 ! D47   D(16,13,15,17)        179.9999         estimate D2E/DX2                !
 ! D48   D(16,13,15,19)          0.0            estimate D2E/DX2                !
 ! D49   D(12,14,17,15)          0.0001         estimate D2E/DX2                !
 ! D50   D(12,14,17,25)       -179.9999         estimate D2E/DX2                !
 ! D51   D(18,14,17,15)       -179.9999         estimate D2E/DX2                !
 ! D52   D(18,14,17,25)          0.0001         estimate D2E/DX2                !
 ! D53   D(13,15,17,14)          0.0001         estimate D2E/DX2                !
 ! D54   D(13,15,17,25)       -180.0            estimate D2E/DX2                !
 ! D55   D(19,15,17,14)       -180.0            estimate D2E/DX2                !
 ! D56   D(19,15,17,25)          0.0            estimate D2E/DX2                !
 --------------------------------------------------------------------------------
 Trust Radius=3.00D-01 FncErr=1.00D-07 GrdErr=1.00D-06 EigMax=2.50D+02 EigMin=1.00D-04
 Number of steps in this run=    135 maximum allowed number of steps=    156.
 GradGradGradGradGradGradGradGradGradGradGradGradGradGradGradGradGradGrad

                          Input orientation:                          
 ---------------------------------------------------------------------
 Center     Atomic      Atomic             Coordinates (Angstroms)
 Number     Number       Type             X           Y           Z
 ---------------------------------------------------------------------
      1          6           0       -4.749416   -0.230579   -0.400021
      2          6           0       -4.820199    0.238538   -1.718672
      3          6           0       -4.550247    1.584841   -1.998879
      4          6           0       -4.209510    2.462026   -0.960435
      5          6           0       -4.138728    1.992910    0.358216
      6          6           0       -4.408682    0.646607    0.638423
      7          1           0       -5.080361   -0.431212   -2.511547
      8          1           0       -3.878568    2.662660    1.151091
      9          1           0       -4.354640    0.288426    1.645243
     10          8           0       -3.910486    3.953296   -1.270814
     11          6           0       -3.817523    4.699853   -2.779363
     12          6           0       -4.131676    3.887607   -3.877310
     13          6           0       -3.303947    5.987511   -2.984541
     14          6           0       -3.932249    4.363019   -5.180435
     15          6           0       -3.104523    6.462923   -4.287666
     16          1           0       -3.064085    6.607679   -2.146234
     17          6           0       -3.418674    5.650677   -5.385613
     18          1           0       -4.172109    3.742850   -6.018741
     19          1           0       -2.712397    7.446079   -4.444324
     20          1           0       -4.604292    1.943023   -3.005698
     21          1           0       -4.523805    2.904453   -3.720651
     22          7           0       -5.032581   -1.642786   -0.106098
     23          8           0       -4.121672   -2.422755   -0.123715
     24          8           0       -6.163210   -1.958585    0.139583
     25          6           0       -3.199526    6.173108   -6.817619
     26          7           0       -3.034455    6.566628   -7.896272
 ---------------------------------------------------------------------
                    Distance matrix (angstroms):
                    1          2          3          4          5
     1  C    0.000000
     2  C    1.401400   0.000000
     3  C    2.427296   1.401400   0.000000
     4  C    2.802800   2.427296   1.401400   0.000000
     5  C    2.427296   2.802800   2.427296   1.401400   0.000000
     6  C    1.401400   2.427296   2.802800   2.427296   1.401400
     7  H    2.146700   1.070000   2.146700   3.396345   3.872800
     8  H    3.396345   3.872800   3.396345   2.146700   1.070000
     9  H    2.146700   3.396345   3.872800   3.396345   2.146700
    10  O    4.355100   3.850660   2.559092   1.552300   2.559092
    11  C    5.553274   4.694012   3.293833   2.910330   4.156335
    12  C    5.425182   4.295286   3.001072   3.247537   4.640001
    13  C    6.887218   6.078827   4.680630   4.164864   5.275199
    14  C    6.679914   5.457435   4.268781   4.636706   6.027993
    15  C    7.913434   6.948831   5.578920   5.319647   6.529535
    16  H    7.256127   6.620627   5.240161   4.461452   5.359405
    17  C    7.824077   6.685954   5.411233   5.511362   6.847577
    18  H    6.905899   5.584874   4.578131   5.218081   6.612790
    19  H    8.912739   7.988783   6.611506   6.262556   7.405125
    20  H    3.396345   2.146700   1.070000   2.146700   3.396345
    21  H    4.572298   3.347069   2.169464   2.813062   4.197184
    22  N    1.470000   2.486942   3.772644   4.272800   3.772644
    23  O    2.296964   3.180300   4.445306   4.956703   4.441919
    24  O    2.296952   3.175553   4.441907   4.956691   4.445293
    25  C    9.197550   7.990304   6.789469   7.007053   8.357558
    26  N   10.263376   9.021992   7.867342   8.144590   9.501310
                    6          7          8          9         10
     6  C    0.000000
     7  H    3.396345   0.000000
     8  H    2.146700   4.942800   0.000000
     9  H    1.070000   4.280590   2.471400   0.000000
    10  O    3.850660   4.704459   2.744520   4.704459   0.000000
    11  C    5.334748   5.290965   4.427454   6.271070   1.685736
    12  C    5.565309   4.627906   5.181638   6.595635   2.616688
    13  C    6.547638   6.676779   5.337441   7.417441   2.728146
    14  C    6.920825   5.605869   6.556091   7.960565   3.931091
    15  C    7.732834   7.388345   6.679913   8.653706   4.006145
    16  H    6.715403   7.331085   5.205662   7.481563   2.920360
    17  C    7.893659   6.928985   7.201962   8.891721   4.478231
    18  H    7.345783   5.527036   7.256685   8.408509   4.759784
    19  H    8.657051   8.449532   7.453169   9.540010   4.868893
    20  H    3.872800   2.471400   4.280590   4.942800   2.744520
    21  H    4.910464   3.591427   4.920231   5.972021   2.734581
    22  N    2.486942   2.693767   4.631321   2.693766   5.825100
    23  O    3.175565   3.253778   5.248398   3.245611   6.481856
    24  O    3.180288   3.245600   5.253441   3.253766   6.481845
    25  C    9.359318   8.105358   8.734110  10.372261   6.016649
    26  N   10.477413   9.063706   9.889807  11.497792   7.175906
                   11         12         13         14         15
    11  C    0.000000
    12  C    1.401400   0.000000
    13  C    1.401400   2.427296   0.000000
    14  C    2.427296   1.401400   2.802800   0.000000
    15  C    2.427296   2.802800   1.401400   2.427296   0.000000
    16  H    2.146700   3.396345   1.070000   3.872800   2.146700
    17  C    2.802800   2.427296   2.427296   1.401400   1.401400
    18  H    3.396345   2.146700   3.872800   1.070000   3.396345
    19  H    3.396345   3.872800   2.146700   3.396345   1.070000
    20  H    2.875821   2.182769   4.248439   3.322273   4.931759
    21  H    2.146700   1.070000   3.396345   2.146700   3.872800
    22  N    6.989404   6.754177   8.336368   7.939100   9.322309
    23  O    7.607662   7.342360   8.921075   8.464811   9.865514
    24  O    7.639194   7.378382   9.004220   8.558180   9.993893
    25  C    4.342800   3.838989   3.838989   2.548270   2.548270
    26  N    5.502800   4.953091   4.953091   3.610776   3.610776
                   16         17         18         19         20
    16  H    0.000000
    17  C    3.396345   0.000000
    18  H    4.942800   2.146700   0.000000
    19  H    2.471400   2.146700   4.280590   0.000000
    20  H    4.986976   4.562498   3.536183   5.994376   0.000000
    21  H    4.280590   3.396345   2.471400   4.942800   1.200826
    22  N    8.723949   9.147271   8.043931  10.334937   4.631321
    23  O    9.314387   9.662406   8.530449  10.864972   5.253453
    24  O    9.392040   9.795975   8.625300  11.016716   5.248386
    25  C    4.693509   1.540000   2.736837   2.736837   5.864957
    26  N    5.750261   2.700000   3.576744   3.576744   6.910848
                   21         22         23         24         25
    21  H    0.000000
    22  N    5.831057   0.000000
    23  O    6.440404   1.199341   0.000000
    24  O    6.421697   1.199337   2.110132   0.000000
    25  C    4.693509  10.463880  10.933781  11.104526   0.000000
    26  N    5.750261  11.492336  11.933302  12.126142   1.160000
                   26
    26  N    0.000000
 Stoichiometry    C13H8N2O3
 Framework group  C1[X(C13H8N2O3)]
 Deg. of freedom    72
 Full point group                 C1      NOp   1
 Largest Abelian subgroup         C1      NOp   1
 Largest concise Abelian subgroup C1      NOp   1
                         Standard orientation:                         
 ---------------------------------------------------------------------
 Center     Atomic      Atomic             Coordinates (Angstroms)
 Number     Number       Type             X           Y           Z
 ---------------------------------------------------------------------
      1          6           0       -3.496368   -0.185309    0.027789
      2          6           0       -2.338349   -0.957286   -0.136423
      3          6           0       -1.082565   -0.336653   -0.178160
      4          6           0       -0.984799    1.055957   -0.055684
      5          6           0       -2.142817    1.827934    0.108527
      6          6           0       -3.398602    1.207302    0.150263
      7          1           0       -2.412996   -2.020575   -0.229937
      8          1           0       -2.068171    2.891223    0.202040
      9          1           0       -4.282775    1.796724    0.275639
     10          8           0        0.406207    1.743418   -0.101911
     11          6           0        1.923002    1.010866   -0.168290
     12          6           0        1.916399   -0.386125   -0.279167
     13          6           0        3.130172    1.691550    0.039876
     14          6           0        3.116966   -1.102433   -0.181874
     15          6           0        4.330738    0.975243    0.137165
     16          1           0        3.135213    2.758184    0.124532
     17          6           0        4.324135   -0.421749    0.026291
     18          1           0        3.111924   -2.169067   -0.266528
     19          1           0        5.252439    1.494960    0.296103
     20          1           0       -0.198392   -0.926075   -0.303540
     21          1           0        0.994699   -0.905842   -0.438109
     22          7           0       -4.813624   -0.836323    0.071571
     23          8           0       -5.244179   -1.181303    1.136479
     24          8           0       -5.405165   -0.996481   -0.959369
     25          6           0        5.643440   -1.208899    0.133202
     26          7           0        6.637201   -1.801818    0.213733
 ---------------------------------------------------------------------
 Rotational constants (GHZ):           1.2890018           0.1421888           0.1307156
 Standard basis: 6-31+G(d) (6D, 7F)
 There are   358 symmetry adapted cartesian basis functions of A   symmetry.
 There are   358 symmetry adapted basis functions of A   symmetry.
   358 basis functions,   608 primitive gaussians,   358 cartesian basis functions
    62 alpha electrons       62 beta electrons
       nuclear repulsion energy      1094.9097461209 Hartrees.
 NAtoms=   26 NActive=   26 NUniq=   26 SFac= 1.00D+00 NAtFMM=   60 NAOKFM=F Big=F
 Integral buffers will be    131072 words long.
 Raffenetti 2 integral format.
 Two-electron integral symmetry is turned on.
 Nuclear repulsion after empirical dispersion term =     1094.8888292947 Hartrees.
 One-electron integrals computed using PRISM.
 NBasis=   358 RedAO= T EigKep=  1.18D-06  NBF=   358
 NBsUse=   357 1.00D-06 EigRej=  3.70D-07 NBFU=   357
 ExpMin= 4.38D-02 ExpMax= 5.48D+03 ExpMxC= 8.25D+02 IAcc=3 IRadAn=         5 AccDes= 0.00D+00
 Harris functional with IExCor=  402 and IRadAn=       5 diagonalized for initial guess.
 HarFok:  IExCor=  402 AccDes= 0.00D+00 IRadAn=         5 IDoV= 1 UseB2=F ITyADJ=14
 ICtDFT=  3500011 ScaDFX=  1.000000  1.000000  1.000000  1.000000
 FoFCou: FMM=F IPFlag=           0 FMFlag=      100000 FMFlg1=           0
         NFxFlg=           0 DoJE=T BraDBF=F KetDBF=T FulRan=T
         wScrn=  0.000000 ICntrl=       500 IOpCl=  0 I1Cent=   200000004 NGrid=           0
         NMat0=    1 NMatS0=      1 NMatT0=    0 NMatD0=    1 NMtDS0=    0 NMtDT0=    0
 Petite list used in FoFCou.
 Requested convergence on RMS density matrix=1.00D-08 within 128 cycles.
 Requested convergence on MAX density matrix=1.00D-06.
 Requested convergence on             energy=1.00D-06.
 No special actions if energy rises.
 SCF Done:  E(RB3LYP) =  -835.197347465     A.U. after   17 cycles
            NFock= 17  Conv=0.25D-08     -V/T= 2.0099

 **********************************************************************

            Population analysis using the SCF Density.

 **********************************************************************

 Orbital symmetries:
       Occupied  (A) (A) (A) (A) (A) (A) (A) (A) (A) (A) (A) (A)
                 (A) (A) (A) (A) (A) (A) (A) (A) (A) (A) (A) (A)
                 (A) (A) (A) (A) (A) (A) (A) (A) (A) (A) (A) (A)
                 (A) (A) (A) (A) (A) (A) (A) (A) (A) (A) (A) (A)
                 (A) (A) (A) (A) (A) (A) (A) (A) (A) (A) (A) (A)
                 (A) (A)
       Virtual   (A) (A) (A) (A) (A) (A) (A) (A) (A) (A) (A) (A)
                 (A) (A) (A) (A) (A) (A) (A) (A) (A) (A) (A) (A)
                 (A) (A) (A) (A) (A) (A) (A) (A) (A) (A) (A) (A)
                 (A) (A) (A) (A) (A) (A) (A) (A) (A) (A) (A) (A)
                 (A) (A) (A) (A) (A) (A) (A) (A) (A) (A) (A) (A)
                 (A) (A) (A) (A) (A) (A) (A) (A) (A) (A) (A) (A)
                 (A) (A) (A) (A) (A) (A) (A) (A) (A) (A) (A) (A)
                 (A) (A) (A) (A) (A) (A) (A) (A) (A) (A) (A) (A)
                 (A) (A) (A) (A) (A) (A) (A) (A) (A) (A) (A) (A)
                 (A) (A) (A) (A) (A) (A) (A) (A) (A) (A) (A) (A)
                 (A) (A) (A) (A) (A) (A) (A) (A) (A) (A) (A) (A)
                 (A) (A) (A) (A) (A) (A) (A) (A) (A) (A) (A) (A)
                 (A) (A) (A) (A) (A) (A) (A) (A) (A) (A) (A) (A)
                 (A) (A) (A) (A) (A) (A) (A) (A) (A) (A) (A) (A)
                 (A) (A) (A) (A) (A) (A) (A) (A) (A) (A) (A) (A)
                 (A) (A) (A) (A) (A) (A) (A) (A) (A) (A) (A) (A)
                 (A) (A) (A) (A) (A) (A) (A) (A) (A) (A) (A) (A)
                 (A) (A) (A) (A) (A) (A) (A) (A) (A) (A) (A) (A)
                 (A) (A) (A) (A) (A) (A) (A) (A) (A) (A) (A) (A)
                 (A) (A) (A) (A) (A) (A) (A) (A) (A) (A) (A) (A)
                 (A) (A) (A) (A) (A) (A) (A) (A) (A) (A) (A) (A)
                 (A) (A) (A) (A) (A) (A) (A) (A) (A) (A) (A) (A)
                 (A) (A) (A) (A) (A) (A) (A) (A) (A) (A) (A) (A)
                 (A) (A) (A) (A) (A) (A) (A) (A) (A) (A) (A) (A)
                 (A) (A) (A) (A) (A) (A) (A)
 The electronic state is 1-A.
 Alpha  occ. eigenvalues --  -19.21897 -19.21203 -19.21201 -14.60066 -14.36472
 Alpha  occ. eigenvalues --  -10.31843 -10.30544 -10.28118 -10.27960 -10.26041
 Alpha  occ. eigenvalues --  -10.25518 -10.25313 -10.25259 -10.24906 -10.24792
 Alpha  occ. eigenvalues --  -10.24555 -10.24226 -10.23855  -1.28186  -1.09760
 Alpha  occ. eigenvalues --   -1.00402  -0.93210  -0.91399  -0.90741  -0.83162
 Alpha  occ. eigenvalues --   -0.81013  -0.80515  -0.79846  -0.72044  -0.68281
 Alpha  occ. eigenvalues --   -0.66393  -0.66126  -0.62573  -0.59733  -0.58335
 Alpha  occ. eigenvalues --   -0.57111  -0.54641  -0.53934  -0.52613  -0.51600
 Alpha  occ. eigenvalues --   -0.49758  -0.49466  -0.48539  -0.47580  -0.45936
 Alpha  occ. eigenvalues --   -0.43878  -0.43047  -0.42439  -0.42144  -0.38970
 Alpha  occ. eigenvalues --   -0.38500  -0.38267  -0.36153  -0.35981  -0.35174
 Alpha  occ. eigenvalues --   -0.34129  -0.33453  -0.32651  -0.30790  -0.30067
 Alpha  occ. eigenvalues --   -0.29749  -0.26529
 Alpha virt. eigenvalues --   -0.08972  -0.08025  -0.06637  -0.05870  -0.05296
 Alpha virt. eigenvalues --   -0.04797  -0.01439  -0.00428   0.00289   0.00598
 Alpha virt. eigenvalues --    0.01543   0.02300   0.02552   0.03183   0.03954
 Alpha virt. eigenvalues --    0.04372   0.04499   0.04817   0.05137   0.06319
 Alpha virt. eigenvalues --    0.06363   0.06836   0.07185   0.07808   0.07884
 Alpha virt. eigenvalues --    0.08450   0.09204   0.09928   0.10153   0.10635
 Alpha virt. eigenvalues --    0.11221   0.11430   0.11621   0.11787   0.12065
 Alpha virt. eigenvalues --    0.12657   0.12871   0.13355   0.13470   0.13851
 Alpha virt. eigenvalues --    0.14296   0.14599   0.14901   0.15896   0.15927
 Alpha virt. eigenvalues --    0.16739   0.17075   0.17986   0.18339   0.18875
 Alpha virt. eigenvalues --    0.19244   0.19346   0.19956   0.20260   0.20581
 Alpha virt. eigenvalues --    0.21138   0.21247   0.22301   0.22623   0.22938
 Alpha virt. eigenvalues --    0.23143   0.23588   0.23934   0.24330   0.24758
 Alpha virt. eigenvalues --    0.24868   0.25111   0.25255   0.25794   0.26486
 Alpha virt. eigenvalues --    0.26986   0.27693   0.27886   0.28208   0.28514
 Alpha virt. eigenvalues --    0.28989   0.29127   0.29316   0.29898   0.30072
 Alpha virt. eigenvalues --    0.30254   0.31284   0.31787   0.32316   0.32385
 Alpha virt. eigenvalues --    0.33763   0.34297   0.35079   0.35471   0.36654
 Alpha virt. eigenvalues --    0.37664   0.38319   0.38488   0.39507   0.39875
 Alpha virt. eigenvalues --    0.40336   0.40869   0.42742   0.43752   0.45397
 Alpha virt. eigenvalues --    0.47939   0.48662   0.52853   0.54617   0.56359
 Alpha virt. eigenvalues --    0.58354   0.60877   0.62254   0.63500   0.64403
 Alpha virt. eigenvalues --    0.64734   0.66582   0.68005   0.68235   0.68659
 Alpha virt. eigenvalues --    0.70115   0.70646   0.70929   0.72221   0.72946
 Alpha virt. eigenvalues --    0.73549   0.74070   0.74180   0.74410   0.75452
 Alpha virt. eigenvalues --    0.75591   0.76609   0.77660   0.79111   0.80545
 Alpha virt. eigenvalues --    0.81504   0.85005   0.85620   0.85967   0.86945
 Alpha virt. eigenvalues --    0.89230   0.90851   0.91316   0.91986   0.93906
 Alpha virt. eigenvalues --    0.94997   0.95729   0.97086   0.98385   0.99666
 Alpha virt. eigenvalues --    1.00041   1.01408   1.03711   1.04559   1.07354
 Alpha virt. eigenvalues --    1.08568   1.08931   1.10070   1.11373   1.12213
 Alpha virt. eigenvalues --    1.13705   1.14433   1.15326   1.15891   1.16590
 Alpha virt. eigenvalues --    1.17747   1.17940   1.19298   1.19627   1.20018
 Alpha virt. eigenvalues --    1.21065   1.22718   1.23521   1.25061   1.25855
 Alpha virt. eigenvalues --    1.26871   1.27387   1.27934   1.30170   1.32114
 Alpha virt. eigenvalues --    1.32464   1.33324   1.34175   1.35784   1.38206
 Alpha virt. eigenvalues --    1.39758   1.40450   1.41263   1.41729   1.43404
 Alpha virt. eigenvalues --    1.44091   1.44597   1.45314   1.45671   1.46860
 Alpha virt. eigenvalues --    1.47917   1.50990   1.51884   1.53174   1.56814
 Alpha virt. eigenvalues --    1.64213   1.64771   1.66682   1.68704   1.70378
 Alpha virt. eigenvalues --    1.73535   1.73853   1.75494   1.77956   1.78472
 Alpha virt. eigenvalues --    1.78922   1.79094   1.80155   1.81461   1.83531
 Alpha virt. eigenvalues --    1.84373   1.85053   1.87502   1.88343   1.92855
 Alpha virt. eigenvalues --    1.93571   1.93701   1.95146   1.95396   1.96123
 Alpha virt. eigenvalues --    1.97883   1.99908   2.01572   2.03845   2.05273
 Alpha virt. eigenvalues --    2.06370   2.06443   2.07438   2.09231   2.09614
 Alpha virt. eigenvalues --    2.10750   2.11874   2.12383   2.14269   2.14940
 Alpha virt. eigenvalues --    2.18489   2.22001   2.23238   2.24112   2.24579
 Alpha virt. eigenvalues --    2.25003   2.26489   2.26831   2.34229   2.39265
 Alpha virt. eigenvalues --    2.40032   2.45078   2.47850   2.50195   2.56376
 Alpha virt. eigenvalues --    2.58016   2.58337   2.59697   2.60204   2.61975
 Alpha virt. eigenvalues --    2.66642   2.70436   2.70480   2.71384   2.72452
 Alpha virt. eigenvalues --    2.75206   2.76071   2.78553   2.80369   2.84419
 Alpha virt. eigenvalues --    2.87585   2.91360   2.96658   2.98010   3.01995
 Alpha virt. eigenvalues --    3.03161   3.07274   3.07624   3.16197   3.19227
 Alpha virt. eigenvalues --    3.38283   3.39477   4.13319   4.16600   4.19742
 Alpha virt. eigenvalues --    4.22684   4.24461   4.26788   4.30059   4.32951
 Alpha virt. eigenvalues --    4.34327   4.35921   4.36290   4.38805   4.41901
 Alpha virt. eigenvalues --    4.50358   4.54125   4.55136   4.73085   4.74190
          Condensed to atoms (all electrons):
               1          2          3          4          5          6
     1  C   13.766362  -3.405160  -0.397149  -2.722629  -0.297483  -1.065413
     2  C   -3.405160  22.996018  -5.921660   1.845627  -0.756844  -8.250019
     3  C   -0.397149  -5.921660  13.601957  -0.905746  -1.725376   0.943676
     4  C   -2.722629   1.845627  -0.905746  11.816524  -3.116866  -0.595358
     5  C   -0.297483  -0.756844  -1.725376  -3.116866  13.548153  -0.747154
     6  C   -1.065413  -8.250019   0.943676  -0.595358  -0.747154  15.212800
     7  H   -0.007441   0.320301  -0.017886   0.026316  -0.031523   0.006945
     8  H    0.025205  -0.031762   0.059942   0.005992   0.317878  -0.076638
     9  H   -0.004049  -0.008399   0.008818   0.024231  -0.110485   0.387365
    10  O   -0.022570   0.031725  -0.141307   0.309996  -0.185137   0.047901
    11  C   -0.075921  -0.170765   0.099468  -0.469127   0.452017   0.013598
    12  C   -0.051138  -0.031288  -0.107957   0.633594  -0.250417   0.260022
    13  C   -0.028445  -0.441361  -0.462538   0.265976   0.293457  -0.029243
    14  C    0.017501   0.209962   0.387295  -0.872846  -0.912536   0.136336
    15  C    0.015311   0.046812   0.183712   0.064579  -0.026104  -0.024953
    16  H   -0.000003  -0.000109   0.002490  -0.001404  -0.003129  -0.000187
    17  C   -0.021320  -0.028547  -0.137934   0.008038   0.027091   0.014948
    18  H    0.000152   0.003685  -0.003140  -0.001599  -0.000491   0.000033
    19  H    0.000002   0.000048   0.000259   0.000429  -0.000052   0.000001
    20  H   -0.014525   0.035110   0.063716   0.050525   0.056474   0.019453
    21  H    0.001504   0.002356  -0.016952   0.027902   0.006297   0.002722
    22  N   -0.382461   0.360005  -0.207820  -0.096803   0.201584  -0.336763
    23  O    0.295891  -0.192132   0.055391   0.005184  -0.035194  -0.092762
    24  O    0.294969  -0.186832   0.034028   0.002198  -0.029463  -0.082807
    25  C   -0.003098   0.010273  -0.018431  -0.087492  -0.013344   0.003121
    26  N    0.000004  -0.000140  -0.000218   0.000728   0.000049  -0.000004
               7          8          9         10         11         12
     1  C   -0.007441   0.025205  -0.004049  -0.022570  -0.075921  -0.051138
     2  C    0.320301  -0.031762  -0.008399   0.031725  -0.170765  -0.031288
     3  C   -0.017886   0.059942   0.008818  -0.141307   0.099468  -0.107957
     4  C    0.026316   0.005992   0.024231   0.309996  -0.469127   0.633594
     5  C   -0.031523   0.317878  -0.110485  -0.185137   0.452017  -0.250417
     6  C    0.006945  -0.076638   0.387365   0.047901   0.013598   0.260022
     7  H    0.508720   0.000013  -0.000155  -0.000235  -0.002775  -0.002230
     8  H    0.000013   0.494955  -0.004917  -0.004021  -0.002716   0.000615
     9  H   -0.000155  -0.004917   0.497606  -0.000085   0.000703   0.000674
    10  O   -0.000235  -0.004021  -0.000085   8.356694   0.301485   0.027713
    11  C   -0.002775  -0.002716   0.000703   0.301485  10.584549  -0.748590
    12  C   -0.002230   0.000615   0.000674   0.027713  -0.748590  16.955217
    13  C   -0.000540   0.000074  -0.000059  -0.256870  -3.660490  -1.256802
    14  C    0.003654  -0.000227   0.000074  -0.035491   0.455102 -11.224312
    15  C    0.000023  -0.000093  -0.000002   0.041186   1.102439   1.172042
    16  H    0.000000   0.000000   0.000000  -0.001637   0.033861   0.050879
    17  C    0.000169   0.000004   0.000005  -0.027405  -1.564108   2.285578
    18  H    0.000000   0.000000   0.000000  -0.000154   0.010871  -0.006678
    19  H    0.000000   0.000000   0.000000  -0.000101   0.032568  -0.007731
    20  H   -0.008330  -0.000194   0.000014  -0.010979   0.037754   0.033605
    21  H    0.000281   0.000004   0.000000  -0.010580   0.071745   0.053642
    22  N   -0.001067   0.000622  -0.002653   0.000216   0.003220  -0.005073
    23  O    0.000072  -0.000066   0.000670   0.000004   0.000641   0.000368
    24  O    0.000290  -0.000063   0.000634  -0.000005   0.000447   0.000779
    25  C    0.000002   0.000000   0.000000  -0.003847  -0.309263  -2.220028
    26  N    0.000000   0.000000   0.000000  -0.000012  -0.000233   0.081315
              13         14         15         16         17         18
     1  C   -0.028445   0.017501   0.015311  -0.000003  -0.021320   0.000152
     2  C   -0.441361   0.209962   0.046812  -0.000109  -0.028547   0.003685
     3  C   -0.462538   0.387295   0.183712   0.002490  -0.137934  -0.003140
     4  C    0.265976  -0.872846   0.064579  -0.001404   0.008038  -0.001599
     5  C    0.293457  -0.912536  -0.026104  -0.003129   0.027091  -0.000491
     6  C   -0.029243   0.136336  -0.024953  -0.000187   0.014948   0.000033
     7  H   -0.000540   0.003654   0.000023   0.000000   0.000169   0.000000
     8  H    0.000074  -0.000227  -0.000093   0.000000   0.000004   0.000000
     9  H   -0.000059   0.000074  -0.000002   0.000000   0.000005   0.000000
    10  O   -0.256870  -0.035491   0.041186  -0.001637  -0.027405  -0.000154
    11  C   -3.660490   0.455102   1.102439   0.033861  -1.564108   0.010871
    12  C   -1.256802 -11.224312   1.172042   0.050879   2.285578  -0.006678
    13  C   12.178131  -0.228778  -1.676300   0.308435   1.222615  -0.039080
    14  C   -0.228778  21.543621  -3.189649  -0.028431  -3.112827   0.229929
    15  C   -1.676300  -3.189649   9.449059  -0.066641  -0.290272   0.058799
    16  H    0.308435  -0.028431  -0.066641   0.489932  -0.000225   0.000015
    17  C    1.222615  -3.112827  -0.290272  -0.000225   9.540002   0.070840
    18  H   -0.039080   0.229929   0.058799   0.000015   0.070840   0.503306
    19  H   -0.081543   0.048899   0.289792  -0.004754   0.049044  -0.000153
    20  H    0.002840  -0.067422   0.004214   0.000004   0.004095   0.000289
    21  H    0.020458   0.089642   0.011406  -0.000197  -0.038147  -0.007934
    22  N    0.000355  -0.001254  -0.000061   0.000000   0.000101   0.000000
    23  O    0.000059  -0.000237  -0.000006   0.000000   0.000020   0.000000
    24  O    0.000055   0.000261  -0.000004   0.000000   0.000004   0.000000
    25  C    0.278324   2.893378  -0.842153   0.000396  -3.447760  -0.033146
    26  N   -0.003516  -0.167625  -0.006950  -0.000006   0.466155   0.000848
              19         20         21         22         23         24
     1  C    0.000002  -0.014525   0.001504  -0.382461   0.295891   0.294969
     2  C    0.000048   0.035110   0.002356   0.360005  -0.192132  -0.186832
     3  C    0.000259   0.063716  -0.016952  -0.207820   0.055391   0.034028
     4  C    0.000429   0.050525   0.027902  -0.096803   0.005184   0.002198
     5  C   -0.000052   0.056474   0.006297   0.201584  -0.035194  -0.029463
     6  C    0.000001   0.019453   0.002722  -0.336763  -0.092762  -0.082807
     7  H    0.000000  -0.008330   0.000281  -0.001067   0.000072   0.000290
     8  H    0.000000  -0.000194   0.000004   0.000622  -0.000066  -0.000063
     9  H    0.000000   0.000014   0.000000  -0.002653   0.000670   0.000634
    10  O   -0.000101  -0.010979  -0.010580   0.000216   0.000004  -0.000005
    11  C    0.032568   0.037754   0.071745   0.003220   0.000641   0.000447
    12  C   -0.007731   0.033605   0.053642  -0.005073   0.000368   0.000779
    13  C   -0.081543   0.002840   0.020458   0.000355   0.000059   0.000055
    14  C    0.048899  -0.067422   0.089642  -0.001254  -0.000237   0.000261
    15  C    0.289792   0.004214   0.011406  -0.000061  -0.000006  -0.000004
    16  H   -0.004754   0.000004  -0.000197   0.000000   0.000000   0.000000
    17  C    0.049044   0.004095  -0.038147   0.000101   0.000020   0.000004
    18  H   -0.000153   0.000289  -0.007934   0.000000   0.000000   0.000000
    19  H    0.491757   0.000000   0.000014   0.000000   0.000000   0.000000
    20  H    0.000000   0.649392  -0.000877   0.001365  -0.000051  -0.000073
    21  H    0.000014  -0.000877   0.629737   0.000049  -0.000004  -0.000003
    22  N    0.000000   0.001365   0.000049   7.252067   0.237097   0.248461
    23  O    0.000000  -0.000051  -0.000004   0.237097   7.851727  -0.115676
    24  O    0.000000  -0.000073  -0.000003   0.248461  -0.115676   7.845725
    25  C   -0.038663  -0.000478  -0.004231   0.000009   0.000000   0.000001
    26  N    0.000532   0.000001   0.000000   0.000000   0.000000   0.000000
              25         26
     1  C   -0.003098   0.000004
     2  C    0.010273  -0.000140
     3  C   -0.018431  -0.000218
     4  C   -0.087492   0.000728
     5  C   -0.013344   0.000049
     6  C    0.003121  -0.000004
     7  H    0.000002   0.000000
     8  H    0.000000   0.000000
     9  H    0.000000   0.000000
    10  O   -0.003847  -0.000012
    11  C   -0.309263  -0.000233
    12  C   -2.220028   0.081315
    13  C    0.278324  -0.003516
    14  C    2.893378  -0.167625
    15  C   -0.842153  -0.006950
    16  H    0.000396  -0.000006
    17  C   -3.447760   0.466155
    18  H   -0.033146   0.000848
    19  H   -0.038663   0.000532
    20  H   -0.000478   0.000001
    21  H   -0.004231   0.000000
    22  N    0.000009   0.000000
    23  O    0.000000   0.000000
    24  O    0.000001   0.000000
    25  C   10.226086  -0.113011
    26  N   -0.113011   7.229363
 Mulliken charges:
               1
     1  C    0.081907
     2  C   -0.436904
     3  C    0.623365
     4  C   -0.217969
     5  C   -0.661401
     6  C    0.252379
     7  H    0.205397
     8  H    0.215393
     9  H    0.210009
    10  O   -0.416482
    11  C   -0.196480
    12  C    0.356202
    13  C   -0.405214
    14  C   -0.174019
    15  C   -0.316187
    16  H    0.220710
    17  C    0.979835
    18  H    0.213608
    19  H    0.219651
    20  H    0.144077
    21  H    0.161166
    22  N   -0.271193
    23  O   -0.010997
    24  O   -0.012925
    25  C   -0.276646
    26  N   -0.487281
 Sum of Mulliken charges =   0.00000
 Mulliken charges with hydrogens summed into heavy atoms:
               1
     1  C    0.081907
     2  C   -0.231508
     3  C    0.767443
     4  C   -0.217969
     5  C   -0.446008
     6  C    0.462388
    10  O   -0.416482
    11  C   -0.196480
    12  C    0.517367
    13  C   -0.184504
    14  C    0.039589
    15  C   -0.096536
    17  C    0.979835
    22  N   -0.271193
    23  O   -0.010997
    24  O   -0.012925
    25  C   -0.276646
    26  N   -0.487281
 Electronic spatial extent (au):  <R**2>=           7438.2942
 Charge=              0.0000 electrons
 Dipole moment (field-independent basis, Debye):
    X=              0.6184    Y=              2.7474    Z=             -0.2885  Tot=              2.8309
 Quadrupole moment (field-independent basis, Debye-Ang):
   XX=           -154.3865   YY=            -97.9303   ZZ=           -110.6428
   XY=              5.6171   XZ=             -1.3526   YZ=              3.3342
 Traceless Quadrupole moment (field-independent basis, Debye-Ang):
   XX=            -33.4000   YY=             23.0562   ZZ=             10.3437
   XY=              5.6171   XZ=             -1.3526   YZ=              3.3342
 Octapole moment (field-independent basis, Debye-Ang**2):
  XXX=           -151.6727  YYY=             11.5473  ZZZ=              0.4369  XYY=            -37.8175
  XXY=            198.2415  XXZ=             -4.6360  XZZ=             -1.5599  YZZ=              0.1809
  YYZ=             -0.4460  XYZ=              1.8321
 Hexadecapole moment (field-independent basis, Debye-Ang**3):
 XXXX=         -11993.8418 YYYY=           -963.0260 ZZZZ=           -211.3035 XXXY=            566.9035
 XXXZ=            -83.1117 YYYX=            117.2744 YYYZ=             16.0639 ZZZX=              1.4159
 ZZZY=             -0.5661 XXYY=          -1777.2459 XXZZ=          -1639.7846 YYZZ=           -218.2345
 XXYZ=             64.1970 YYXZ=             -5.7769 ZZXY=              2.1062
 N-N= 1.094888829295D+03 E-N=-4.131262699945D+03  KE= 8.269906789923D+02
 Evaluate density.
 Using the total density.
 Monte-Carlo method of calculating molar volume:
 based on  0.001 e/bohr**3 density envelope.
 Number of points per bohr**3 =   20 CutOff= 1.00D-04
 Using the SCF density.
 There are       413 points.  Will hold       413 in memory.
 LenV=  4026253812 MDV=  4026531840.
 Box volume = 8866.101 fraction occupied=0.184
 Integrated density= 6.2537644066771307D+01 error=-6.1462355933228693D+01
 Molar volume = 1631.534 bohr**3/mol (145.596 cm**3/mol)
 Recommended a0 for SCRF calculation =  4.75 angstrom (  8.98 bohr)
 Calling FoFJK, ICntrl=      2127 FMM=F ISym2X=0 I1Cent= 0 IOpClX= 0 NMat=1 NMatS=1 NMatT=0.
 ***** Axes restored to original set *****
 -------------------------------------------------------------------
 Center     Atomic                   Forces (Hartrees/Bohr)
 Number     Number              X              Y              Z
 -------------------------------------------------------------------
      1        6           0.004539941    0.023220300   -0.006090355
      2        6           0.002560725    0.003292998    0.013524341
      3        6          -0.000923078   -0.012849043    0.019176420
      4        6           0.007282050    0.048853109   -0.041180845
      5        6          -0.000239697    0.005722791   -0.010250556
      6        6          -0.002174757    0.000380766   -0.015633966
      7        1          -0.002863152   -0.007072603   -0.008824911
      8        1           0.002806401    0.007277570    0.007853322
      9        1           0.000882100   -0.002750202    0.010971567
     10        8          -0.002893154   -0.005852558   -0.026013440
     11        6          -0.002716220   -0.060327532    0.030832556
     12        6           0.003518614    0.019561666   -0.006014532
     13        6          -0.004570225   -0.011952039    0.015209342
     14        6           0.000869537    0.007941288    0.010512231
     15        6          -0.008027034   -0.013943723    0.002178325
     16        1           0.003800437    0.006237363    0.009005502
     17        6           0.006902812    0.015135813   -0.043596404
     18        1          -0.002718687   -0.006873555   -0.008270268
     19        1           0.003856294    0.010038236    0.000238749
     20        1          -0.002617230   -0.022694860    0.012519847
     21        1           0.000741152    0.018263400   -0.017585595
     22        7           0.004362727    0.021623180   -0.004379873
     23        8           0.047238113   -0.023652933   -0.003822836
     24        8          -0.052224523   -0.001075439    0.008911253
     25        6          -0.008123923   -0.020425428    0.056042432
     26        7           0.000730781    0.001921436   -0.005312308
 -------------------------------------------------------------------
 Cartesian Forces:  Max     0.060327532 RMS     0.018421733

 GradGradGradGradGradGradGradGradGradGradGradGradGradGradGradGradGradGrad
 Berny optimization.
 FormGI is forming the generalized inverse of G from B-inverse, IUseBI=4.
 Internal  Forces:  Max     0.165707876 RMS     0.026015128
 Search for a local minimum.
 Step number   1 out of a maximum of  135
 All quantities printed in internal units (Hartrees-Bohrs-Radians)
 Mixed Optimization -- RFO/linear search
 Second derivative matrix not updated -- first step.
 ITU=  0
     Eigenvalues ---    0.00230   0.00230   0.00766   0.00766   0.01655
     Eigenvalues ---    0.01752   0.01786   0.02070   0.02070   0.02070
     Eigenvalues ---    0.02070   0.02070   0.02070   0.02070   0.02070
     Eigenvalues ---    0.02070   0.02070   0.02070   0.02070   0.02070
     Eigenvalues ---    0.02070   0.02070   0.04867   0.04867   0.16000
     Eigenvalues ---    0.16000   0.16000   0.16000   0.16000   0.16000
     Eigenvalues ---    0.16000   0.16000   0.18708   0.22000   0.22000
     Eigenvalues ---    0.22966   0.22981   0.23969   0.24000   0.24759
     Eigenvalues ---    0.25000   0.25000   0.25000   0.25000   0.25000
     Eigenvalues ---    0.25000   0.27457   0.28519   0.35740   0.37230
     Eigenvalues ---    0.37230   0.37230   0.37230   0.37230   0.37230
     Eigenvalues ---    0.37230   0.37230   0.41268   0.41268   0.41631
     Eigenvalues ---    0.41640   0.45389   0.45389   0.45389   0.45389
     Eigenvalues ---    0.45389   0.45389   0.45389   0.45389   1.05155
     Eigenvalues ---    1.05157   1.27794
 RFO step:  Lambda=-1.86549901D-01 EMin= 2.30000000D-03
 Linear search not attempted -- first point.
 Maximum step size (   0.300) exceeded in Quadratic search.
    -- Step size scaled by   0.464
 Iteration  1 RMS(Cart)=  0.27307610 RMS(Int)=  0.01343300
 Iteration  2 RMS(Cart)=  0.13219831 RMS(Int)=  0.00242076
 Iteration  3 RMS(Cart)=  0.00633171 RMS(Int)=  0.00014059
 Iteration  4 RMS(Cart)=  0.00000352 RMS(Int)=  0.00014058
 Iteration  5 RMS(Cart)=  0.00000000 RMS(Int)=  0.00014058
 Variable       Old X    -DE/DX   Delta X   Delta X   Delta X     New X
                                 (Linear)    (Quad)   (Total)
    R1        2.64826  -0.01574   0.00000  -0.01158  -0.01159   2.63668
    R2        2.64826  -0.01530   0.00000  -0.01142  -0.01142   2.63684
    R3        2.77790   0.00324   0.00000   0.00277   0.00277   2.78067
    R4        2.64826  -0.00536   0.00000  -0.00373  -0.00374   2.64453
    R5        2.02201   0.01166   0.00000   0.00968   0.00968   2.03169
    R6        2.64826   0.00433   0.00000   0.00346   0.00347   2.65173
    R7        2.02201  -0.01925   0.00000  -0.01598  -0.01598   2.00603
    R8        2.64826  -0.00600   0.00000  -0.00417  -0.00416   2.64410
    R9        2.93342  -0.04380   0.00000  -0.04407  -0.04407   2.88935
   R10        2.64826  -0.00957   0.00000  -0.00709  -0.00708   2.64118
   R11        2.02201   0.01106   0.00000   0.00918   0.00918   2.03119
   R12        2.02201   0.01129   0.00000   0.00937   0.00937   2.03138
   R13        3.18558  -0.05426   0.00000  -0.06738  -0.06738   3.11820
   R14        2.64826  -0.00193   0.00000  -0.00137  -0.00137   2.64689
   R15        2.64826  -0.01098   0.00000  -0.00805  -0.00805   2.64021
   R16        2.64826  -0.00545   0.00000  -0.00382  -0.00382   2.64444
   R17        2.02201  -0.01963   0.00000  -0.01630  -0.01630   2.00571
   R18        2.64826  -0.00855   0.00000  -0.00632  -0.00632   2.64195
   R19        2.02201   0.01152   0.00000   0.00957   0.00957   2.03157
   R20        2.64826  -0.00788   0.00000  -0.00562  -0.00562   2.64265
   R21        2.02201   0.01107   0.00000   0.00919   0.00919   2.03120
   R22        2.64826  -0.00795   0.00000  -0.00579  -0.00579   2.64248
   R23        2.02201   0.01060   0.00000   0.00880   0.00880   2.03081
   R24        2.91018  -0.05450   0.00000  -0.05361  -0.05361   2.85657
   R25        2.26643   0.05132   0.00000   0.01923   0.01923   2.28566
   R26        2.26642   0.05134   0.00000   0.01924   0.01924   2.28566
   R27        2.19208   0.00570   0.00000   0.00180   0.00180   2.19389
    A1        2.09440   0.00384   0.00000   0.00320   0.00320   2.09759
    A2        2.09440  -0.00187   0.00000  -0.00155  -0.00154   2.09285
    A3        2.09440  -0.00197   0.00000  -0.00166  -0.00165   2.09274
    A4        2.09440  -0.00032   0.00000  -0.00054  -0.00055   2.09385
    A5        2.09440   0.00045   0.00000   0.00066   0.00066   2.09506
    A6        2.09440  -0.00013   0.00000  -0.00012  -0.00012   2.09428
    A7        2.09440   0.00311   0.00000   0.00419   0.00419   2.09859
    A8        2.09440  -0.01928   0.00000  -0.02583  -0.02583   2.06856
    A9        2.09440   0.01617   0.00000   0.02164   0.02164   2.11604
   A10        2.09440  -0.01340   0.00000  -0.01361  -0.01360   2.08080
   A11        2.09440   0.10254   0.00000   0.10866   0.10866   2.20305
   A12        2.09440  -0.08913   0.00000  -0.09505  -0.09506   1.99934
   A13        2.09440   0.00931   0.00000   0.01053   0.01054   2.10494
   A14        2.09440  -0.00516   0.00000  -0.00594  -0.00595   2.08845
   A15        2.09440  -0.00415   0.00000  -0.00459  -0.00459   2.08980
   A16        2.09440  -0.00253   0.00000  -0.00378  -0.00378   2.09061
   A17        2.09440   0.00241   0.00000   0.00342   0.00342   2.09782
   A18        2.09440   0.00012   0.00000   0.00036   0.00036   2.09476
   A19        2.23319   0.16571   0.00000   0.17612   0.17612   2.40932
   A20        2.01758   0.10402   0.00000   0.11153   0.11161   2.12919
   A21        2.16295  -0.09789   0.00000  -0.10425  -0.10437   2.05859
   A22        2.09440  -0.00549   0.00000  -0.00569  -0.00569   2.08871
   A23        2.09440   0.00130   0.00000   0.00159   0.00158   2.09597
   A24        2.09440   0.01434   0.00000   0.01927   0.01927   2.11367
   A25        2.09440  -0.01564   0.00000  -0.02086  -0.02087   2.07353
   A26        2.09440   0.00547   0.00000   0.00573   0.00573   2.10013
   A27        2.09440  -0.00268   0.00000  -0.00280  -0.00280   2.09160
   A28        2.09440  -0.00279   0.00000  -0.00293  -0.00293   2.09146
   A29        2.09440   0.00029   0.00000   0.00053   0.00053   2.09493
   A30        2.09440  -0.00080   0.00000  -0.00115  -0.00115   2.09325
   A31        2.09440   0.00051   0.00000   0.00062   0.00062   2.09501
   A32        2.09440  -0.00054   0.00000  -0.00103  -0.00103   2.09337
   A33        2.09440  -0.00156   0.00000  -0.00194  -0.00194   2.09246
   A34        2.09440   0.00210   0.00000   0.00297   0.00296   2.09736
   A35        2.09440  -0.00103   0.00000  -0.00114  -0.00114   2.09325
   A36        2.09440   0.00066   0.00000   0.00072   0.00072   2.09511
   A37        2.09440   0.00037   0.00000   0.00042   0.00042   2.09481
   A38        2.06635  -0.00992   0.00000  -0.01054  -0.01054   2.05582
   A39        2.06634  -0.00991   0.00000  -0.01053  -0.01053   2.05581
   A40        2.15049   0.01982   0.00000   0.02107   0.02107   2.17156
   A41        3.14159  -0.00009   0.00000  -0.00018  -0.00018   3.14141
   A42        3.14159  -0.00012   0.00000  -0.00024  -0.00024   3.14135
    D1        0.00000  -0.00006   0.00000  -0.00013  -0.00013  -0.00013
    D2       -3.14159  -0.00009   0.00000  -0.00020  -0.00020   3.14140
    D3       -3.14159  -0.00002   0.00000  -0.00004  -0.00004   3.14155
    D4        0.00000  -0.00005   0.00000  -0.00011  -0.00011  -0.00011
    D5        0.00000   0.00001   0.00000   0.00002   0.00002   0.00002
    D6        3.14159   0.00005   0.00000   0.00010   0.00011  -3.14149
    D7        3.14159  -0.00003   0.00000  -0.00006  -0.00006   3.14153
    D8        0.00000   0.00001   0.00000   0.00002   0.00002   0.00002
    D9        1.57667   0.00000   0.00000   0.00000   0.00000   1.57667
   D10       -1.56492   0.00006   0.00000   0.00015   0.00015  -1.56477
   D11       -1.56492   0.00004   0.00000   0.00008   0.00008  -1.56483
   D12        1.57667   0.00010   0.00000   0.00023   0.00023   1.57690
   D13        0.00000   0.00002   0.00000   0.00004   0.00004   0.00004
   D14       -3.14159  -0.00031   0.00000  -0.00070  -0.00069   3.14090
   D15        3.14159   0.00005   0.00000   0.00011   0.00010  -3.14149
   D16        0.00000  -0.00028   0.00000  -0.00063  -0.00062  -0.00062
   D17        0.00000   0.00007   0.00000   0.00016   0.00016   0.00016
   D18        3.14159   0.00016   0.00000   0.00037   0.00038  -3.14122
   D19        3.14159   0.00040   0.00000   0.00090   0.00090  -3.14069
   D20        0.00000   0.00049   0.00000   0.00111   0.00112   0.00112
   D21        0.00000  -0.00012   0.00000  -0.00027  -0.00027  -0.00027
   D22       -3.14159  -0.00004   0.00000  -0.00009  -0.00010   3.14150
   D23       -3.14159  -0.00021   0.00000  -0.00048  -0.00046   3.14113
   D24        0.00000  -0.00013   0.00000  -0.00030  -0.00029  -0.00029
   D25       -0.09171   0.00114   0.00000   0.00280   0.00280  -0.08892
   D26        3.04988   0.00123   0.00000   0.00301   0.00301   3.05289
   D27        0.00000   0.00008   0.00000   0.00018   0.00018   0.00018
   D28       -3.14159   0.00004   0.00000   0.00009   0.00009  -3.14150
   D29       -3.14159   0.00000   0.00000   0.00000   0.00001  -3.14158
   D30        0.00000  -0.00004   0.00000  -0.00008  -0.00008  -0.00008
   D31        0.07603   0.01132   0.00000   0.02729   0.02698   0.10301
   D32       -2.92738   0.00512   0.00000   0.01308   0.01340  -2.91398
   D33       -3.00924   0.00356   0.00000  -0.00100  -0.00185  -3.01108
   D34        0.13235   0.00548   0.00000   0.00481   0.00417   0.13652
   D35        0.00000   0.00115   0.00000   0.00370   0.00381   0.00382
   D36       -3.14159   0.00307   0.00000   0.00951   0.00983  -3.13176
   D37        2.99766   0.01142   0.00000   0.01738   0.01670   3.01436
   D38       -0.14393   0.01046   0.00000   0.01682   0.01628  -0.12765
   D39        0.00000  -0.00272   0.00000  -0.00565  -0.00562  -0.00562
   D40        3.14159  -0.00368   0.00000  -0.00621  -0.00604   3.13555
   D41        0.00000   0.00114   0.00000   0.00086   0.00069   0.00068
   D42        3.14159   0.00040   0.00000   0.00081   0.00078  -3.14081
   D43        3.14159  -0.00077   0.00000  -0.00495  -0.00519   3.13640
   D44        0.00000  -0.00151   0.00000  -0.00499  -0.00509  -0.00510
   D45        0.00000   0.00199   0.00000   0.00303   0.00291   0.00291
   D46        3.14159   0.00058   0.00000   0.00140   0.00142  -3.14018
   D47        3.14159   0.00296   0.00000   0.00359   0.00333  -3.13826
   D48        0.00000   0.00155   0.00000   0.00196   0.00184   0.00183
   D49        0.00000  -0.00187   0.00000  -0.00348  -0.00341  -0.00341
   D50       -3.14159  -0.00080   0.00000  -0.00098  -0.00090   3.14069
   D51       -3.14159  -0.00113   0.00000  -0.00343  -0.00350   3.13809
   D52        0.00000  -0.00006   0.00000  -0.00094  -0.00100  -0.00100
   D53        0.00000   0.00031   0.00000   0.00154   0.00162   0.00162
   D54       -3.14159  -0.00077   0.00000  -0.00096  -0.00089   3.14071
   D55       -3.14159   0.00171   0.00000   0.00317   0.00312  -3.13847
   D56        0.00000   0.00064   0.00000   0.00067   0.00062   0.00061
         Item               Value     Threshold  Converged?
 Maximum Force            0.165708     0.000450     NO 
 RMS     Force            0.026015     0.000300     NO 
 Maximum Displacement     1.395299     0.001800     NO 
 RMS     Displacement     0.397717     0.001200     NO 
 Predicted change in Energy=-7.503198D-02
 GradGradGradGradGradGradGradGradGradGradGradGradGradGradGradGradGradGrad

                          Input orientation:                          
 ---------------------------------------------------------------------
 Center     Atomic      Atomic             Coordinates (Angstroms)
 Number     Number       Type             X           Y           Z
 ---------------------------------------------------------------------
      1          6           0       -4.757695   -0.318606   -0.161288
      2          6           0       -4.899211   -0.098096   -1.531734
      3          6           0       -4.659377    1.173931   -2.063534
      4          6           0       -4.276485    2.230520   -1.223248
      5          6           0       -4.137921    1.995996    0.149178
      6          6           0       -4.377233    0.726152    0.681774
      7          1           0       -5.192296   -0.904805   -2.179201
      8          1           0       -3.844876    2.800241    0.799281
      9          1           0       -4.268051    0.556472    1.737628
     10          8           0       -3.981894    3.667320   -1.655218
     11          6           0       -3.867884    4.527861   -3.058514
     12          6           0       -4.185419    3.965849   -4.301578
     13          6           0       -3.297020    5.801750   -3.000910
     14          6           0       -3.927264    4.676247   -5.479264
     15          6           0       -3.036298    6.512323   -4.176357
     16          1           0       -3.057382    6.237952   -2.047988
     17          6           0       -3.350763    5.948785   -5.416876
     18          1           0       -4.172607    4.242863   -6.431797
     19          1           0       -2.595818    7.491155   -4.123881
     20          1           0       -4.773274    1.315779   -3.109375
     21          1           0       -4.627835    3.003601   -4.371339
     22          7           0       -5.010240   -1.656605    0.396556
     23          8           0       -4.077131   -2.422782    0.468760
     24          8           0       -6.136948   -1.915999    0.751772
     25          6           0       -3.070719    6.715903   -6.688937
     26          7           0       -2.855919    7.304988   -7.666002
 ---------------------------------------------------------------------
                    Distance matrix (angstroms):
                    1          2          3          4          5
     1  C    0.000000
     2  C    1.395269   0.000000
     3  C    2.419891   1.399423   0.000000
     4  C    2.803100   2.430104   1.403234   0.000000
     5  C    2.416173   2.791101   2.417395   1.399198   0.000000
     6  C    1.395358   2.418980   2.795859   2.429482   1.397653
     7  H    2.145805   1.075124   2.149076   3.403354   3.866225
     8  H    3.388678   3.865955   3.391755   2.145108   1.074858
     9  H    2.147415   3.393457   3.870816   3.401366   2.147634
    10  O    4.326812   3.877509   2.615854   1.528979   2.464450
    11  C    5.716112   4.979375   3.586822   2.968659   4.095431
    12  C    5.985487   4.969626   3.609471   3.534936   4.867423
    13  C    6.903317   6.287581   4.914407   4.107690   5.011381
    14  C    7.342959   6.270727   4.946657   4.921098   6.237586
    15  C    8.108365   7.359491   5.966308   5.347219   6.349885
    16  H    7.031298   6.618485   5.311396   4.269182   4.897887
    17  C    8.299450   7.352332   5.979683   5.680579   6.872054
    18  H    7.776157   6.586539   5.360692   5.584739   6.954053
    19  H    9.020434   8.343954   6.957774   6.237996   7.129789
    20  H    3.370857   2.122228   1.061545   2.154304   3.388884
    21  H    5.364556   4.213968   2.945276   3.260611   4.657291
    22  N    1.471465   2.481850   3.766574   4.274564   3.763459
    23  O    2.299496   3.175210   4.437101   4.955386   4.430736
    24  O    2.299496   3.170357   4.433602   4.955365   4.434290
    25  C    9.743738   8.739034   7.391322   7.172607   8.377128
    26  N   10.865389   9.829036   8.498822   8.323300   9.534463
                    6          7          8          9         10
     6  C    0.000000
     7  H    3.392569   0.000000
     8  H    2.144542   4.941079   0.000000
     9  H    1.074960   4.281484   2.468617   0.000000
    10  O    3.777340   4.758567   2.606753   4.612012   0.000000
    11  C    5.357443   5.660488   4.227030   6.239795   1.650082
    12  C    5.946951   5.407546   5.243412   6.935609   2.670911
    13  C    6.363232   7.017489   4.873464   7.135095   2.614523
    14  C    7.332402   6.605972   6.553343   8.316983   3.955281
    15  C    7.673286   7.978142   6.260217   8.483194   3.917185
    16  H    6.290751   7.456141   4.532653   6.933672   2.759916
    17  C    8.094633   7.800352   6.985562   9.005852   4.444489
    18  H    7.938012   6.754468   7.380857   8.963152   4.814908
    19  H    8.487228   9.000868   6.913924   9.232739   4.757859
    20  H    3.857113   2.443726   4.282889   4.932061   2.875865
    21  H    5.548291   4.516605   5.233516   6.590702   2.869683
    22  N    2.481849   2.689399   4.624255   2.692031   5.797538
    23  O    3.170366   3.249545   5.238621   3.243830   6.450558
    24  O    3.175289   3.241216   5.243927   3.252354   6.450683
    25  C    9.587048   9.105713   8.485584  10.506150   5.955034
    26  N   10.736892  10.147135   9.640114  11.660396   7.115475
                   11         12         13         14         15
    11  C    0.000000
    12  C    1.400676   0.000000
    13  C    1.397138   2.418991   0.000000
    14  C    2.426020   1.399376   2.793958   0.000000
    15  C    2.424705   2.796549   1.398058   2.421273   0.000000
    16  H    2.145340   3.393167   1.075062   3.869014   2.146084
    17  C    2.801483   2.423340   2.421032   1.398428   1.398338
    18  H    3.398988   2.148194   3.868820   1.074865   3.395387
    19  H    3.396214   3.871200   2.146354   3.396104   1.074658
    20  H    3.337632   2.964758   4.723878   4.198196   5.582078
    21  H    2.150443   1.061377   3.388035   2.125098   3.857738
    22  N    7.175661   7.373247   8.372870   8.706498   9.567620
    23  O    7.797236   7.973861   8.960475   9.262703  10.124058
    24  O    7.822421   7.996308   9.039439   9.336285  10.243881
    25  C    4.313116   3.808522   3.806367   2.521344   2.521049
    26  N    5.474071   4.923086   4.921116   3.583279   3.583082
                   16         17         18         19         20
    16  H    0.000000
    17  C    3.393979   0.000000
    18  H    4.943874   2.148409   0.000000
    19  H    2.468378   2.149578   4.285340   0.000000
    20  H    5.319643   5.367760   4.468457   6.626145   0.000000
    21  H    4.280807   3.376118   2.447139   4.932390   2.112451
    22  N    8.491965   9.715545   9.062657  10.485480   4.602474
    23  O    9.076465  10.259213   9.594667  11.026005   5.221542
    24  O    9.154742  10.376410   9.664051  11.171667   5.216556
    25  C    4.665515   1.511633   2.719596   2.721408   6.698753
    26  N    5.721996   2.672588   3.554369   3.556534   7.765934
                   21         22         23         24         25
    21  H    0.000000
    22  N    6.678066   0.000000
    23  O    7.292151   1.209518   0.000000
    24  O    7.261277   1.209518   2.140039   0.000000
    25  C    4.645111  11.138440  11.651655  11.801510   0.000000
    26  N    5.700564  12.245656  12.739515  12.909325   1.160955
                   26
    26  N    0.000000
 Stoichiometry    C13H8N2O3
 Framework group  C1[X(C13H8N2O3)]
 Deg. of freedom    72
 Full point group                 C1      NOp   1
 Largest Abelian subgroup         C1      NOp   1
 Largest concise Abelian subgroup C1      NOp   1
                         Standard orientation:                         
 ---------------------------------------------------------------------
 Center     Atomic      Atomic             Coordinates (Angstroms)
 Number     Number       Type             X           Y           Z
 ---------------------------------------------------------------------
      1          6           0       -3.698657   -0.125127    0.035926
      2          6           0       -2.705184   -1.097115   -0.086656
      3          6           0       -1.360192   -0.717022   -0.156726
      4          6           0       -1.005538    0.639635   -0.104123
      5          6           0       -2.011479    1.604335    0.019133
      6          6           0       -3.355202    1.226256    0.089100
      7          1           0       -2.972434   -2.137702   -0.127232
      8          1           0       -1.747756    2.645529    0.060171
      9          1           0       -4.120430    1.975274    0.183634
     10          8           0        0.413243    1.205857   -0.169152
     11          6           0        1.961264    0.635934   -0.209064
     12          6           0        2.246174   -0.732053   -0.305668
     13          6           0        2.999541    1.544969    0.009182
     14          6           0        3.564244   -1.184821   -0.179391
     15          6           0        4.316799    1.094571    0.137775
     16          1           0        2.784591    2.596060    0.078203
     17          6           0        4.599494   -0.271706    0.044394
     18          1           0        3.780129   -2.235088   -0.254663
     19          1           0        5.109820    1.799859    0.306819
     20          1           0       -0.623295   -1.475522   -0.249128
     21          1           0        1.476229   -1.441506   -0.479974
     22          7           0       -5.112500   -0.526191    0.109446
     23          8           0       -5.583489   -0.734140    1.203913
     24          8           0       -5.725119   -0.625789   -0.928683
     25          6           0        6.023236   -0.760640    0.182003
     26          7           0        7.116652   -1.136327    0.287444
 ---------------------------------------------------------------------
 Rotational constants (GHZ):           1.7351066           0.1271887           0.1209142
 Standard basis: 6-31+G(d) (6D, 7F)
 There are   358 symmetry adapted cartesian basis functions of A   symmetry.
 There are   358 symmetry adapted basis functions of A   symmetry.
   358 basis functions,   608 primitive gaussians,   358 cartesian basis functions
    62 alpha electrons       62 beta electrons
       nuclear repulsion energy      1082.5351241724 Hartrees.
 NAtoms=   26 NActive=   26 NUniq=   26 SFac= 1.00D+00 NAtFMM=   60 NAOKFM=F Big=F
 Integral buffers will be    131072 words long.
 Raffenetti 2 integral format.
 Two-electron integral symmetry is turned on.
 Nuclear repulsion after empirical dispersion term =     1082.5148079862 Hartrees.
 One-electron integrals computed using PRISM.
 NBasis=   358 RedAO= T EigKep=  1.50D-06  NBF=   358
 NBsUse=   357 1.00D-06 EigRej=  6.13D-07 NBFU=   357
 Initial guess from the checkpoint file:  "molecule_80.chk"
 B after Tr=     0.000000    0.000000    0.000000
         Rot=    0.999423    0.033957    0.000224   -0.001144 Ang=   3.89 deg.
 ExpMin= 4.38D-02 ExpMax= 5.48D+03 ExpMxC= 8.25D+02 IAcc=3 IRadAn=         5 AccDes= 0.00D+00
 Harris functional with IExCor=  402 and IRadAn=       5 diagonalized for initial guess.
 HarFok:  IExCor=  402 AccDes= 0.00D+00 IRadAn=         5 IDoV= 1 UseB2=F ITyADJ=14
 ICtDFT=  3500011 ScaDFX=  1.000000  1.000000  1.000000  1.000000
 FoFCou: FMM=F IPFlag=           0 FMFlag=      100000 FMFlg1=           0
         NFxFlg=           0 DoJE=T BraDBF=F KetDBF=T FulRan=T
         wScrn=  0.000000 ICntrl=       500 IOpCl=  0 I1Cent=   200000004 NGrid=           0
         NMat0=    1 NMatS0=      1 NMatT0=    0 NMatD0=    1 NMtDS0=    0 NMtDT0=    0
 Petite list used in FoFCou.
 Requested convergence on RMS density matrix=1.00D-08 within 128 cycles.
 Requested convergence on MAX density matrix=1.00D-06.
 Requested convergence on             energy=1.00D-06.
 No special actions if energy rises.
 SCF Done:  E(RB3LYP) =  -835.230493573     A.U. after   17 cycles
            NFock= 17  Conv=0.93D-08     -V/T= 2.0100
 Calling FoFJK, ICntrl=      2127 FMM=F ISym2X=0 I1Cent= 0 IOpClX= 0 NMat=1 NMatS=1 NMatT=0.
 ***** Axes restored to original set *****
 -------------------------------------------------------------------
 Center     Atomic                   Forces (Hartrees/Bohr)
 Number     Number              X              Y              Z
 -------------------------------------------------------------------
      1        6           0.002627173    0.014991820   -0.007770813
      2        6           0.001732061    0.002434950    0.008054680
      3        6           0.003289626    0.005909529    0.012701451
      4        6           0.006683094    0.042211086   -0.035140046
      5        6           0.000226825    0.004091141   -0.004581671
      6        6          -0.001499572   -0.000999566   -0.008049843
      7        1          -0.002072078   -0.005295089   -0.005202966
      8        1           0.002067976    0.006089399    0.003554126
      9        1           0.001007666   -0.000439426    0.007600705
     10        8          -0.002052324    0.003012705   -0.022229732
     11        6          -0.001769557   -0.056006598    0.029747835
     12        6           0.003688221    0.009073604    0.008042616
     13        6          -0.003176712   -0.008289096    0.013817708
     14        6          -0.000452777    0.002639664    0.008560899
     15        6          -0.006326130   -0.008453000    0.002058829
     16        1           0.002743147    0.001839021    0.007018547
     17        6           0.007613098    0.020173009   -0.034781085
     18        1          -0.001979639   -0.003672062   -0.006068114
     19        1           0.002934115    0.006502442    0.001569135
     20        1          -0.001362071    0.002852791   -0.015462678
     21        1          -0.005856032   -0.014622394   -0.000194955
     22        7           0.002655318    0.014162988   -0.006074151
     23        8           0.028730524   -0.015590568   -0.000679715
     24        8          -0.031823406   -0.000740272    0.007551960
     25        6          -0.008308332   -0.023904469    0.039288958
     26        7           0.000679786    0.002028392   -0.003331680
 -------------------------------------------------------------------
 Cartesian Forces:  Max     0.056006598 RMS     0.014319762

 GradGradGradGradGradGradGradGradGradGradGradGradGradGradGradGradGradGrad
 Berny optimization.
 Using GEDIIS/GDIIS optimizer.
 FormGI is forming the generalized inverse of G from B-inverse, IUseBI=4.
 Internal  Forces:  Max     0.094513119 RMS     0.014399882
 Search for a local minimum.
 Step number   2 out of a maximum of  135
 All quantities printed in internal units (Hartrees-Bohrs-Radians)
 Mixed Optimization -- RFO/linear search
 Update second derivatives using D2CorX and points    1    2
 DE= -3.31D-02 DEPred=-7.50D-02 R= 4.42D-01
 Trust test= 4.42D-01 RLast= 3.03D-01 DXMaxT set to 3.00D-01
 ITU=  0  0
 Use linear search instead of GDIIS.
     Eigenvalues ---    0.00230   0.00232   0.00766   0.00766   0.01655
     Eigenvalues ---    0.01746   0.01779   0.02070   0.02070   0.02070
     Eigenvalues ---    0.02070   0.02070   0.02070   0.02070   0.02070
     Eigenvalues ---    0.02070   0.02070   0.02070   0.02070   0.02070
     Eigenvalues ---    0.02070   0.02073   0.04867   0.04867   0.14961
     Eigenvalues ---    0.16000   0.16000   0.16000   0.16000   0.16000
     Eigenvalues ---    0.16000   0.16009   0.16118   0.21999   0.22001
     Eigenvalues ---    0.22725   0.22983   0.23278   0.23988   0.24292
     Eigenvalues ---    0.24927   0.25000   0.25000   0.25000   0.25000
     Eigenvalues ---    0.26219   0.28296   0.35738   0.36802   0.37078
     Eigenvalues ---    0.37230   0.37230   0.37230   0.37230   0.37230
     Eigenvalues ---    0.37230   0.41218   0.41239   0.41433   0.41613
     Eigenvalues ---    0.45206   0.45379   0.45389   0.45389   0.45389
     Eigenvalues ---    0.45389   0.45389   0.45389   1.02410   1.05156
     Eigenvalues ---    1.25478   1.27778
 RFO step:  Lambda=-1.88208807D-01 EMin= 2.29997692D-03
 Quartic linear search produced a step of  0.92966.
 Maximum step size (   0.300) exceeded in Quadratic search.
    -- Step size scaled by   0.433
 Iteration  1 RMS(Cart)=  0.30971611 RMS(Int)=  0.02037364
 Iteration  2 RMS(Cart)=  0.10122475 RMS(Int)=  0.00132584
 Iteration  3 RMS(Cart)=  0.00303259 RMS(Int)=  0.00068664
 Iteration  4 RMS(Cart)=  0.00000328 RMS(Int)=  0.00068664
 Iteration  5 RMS(Cart)=  0.00000001 RMS(Int)=  0.00068664
 Variable       Old X    -DE/DX   Delta X   Delta X   Delta X     New X
                                 (Linear)    (Quad)   (Total)
    R1        2.63668  -0.00367  -0.01077  -0.00562  -0.01639   2.62029
    R2        2.63684  -0.00167  -0.01061  -0.00334  -0.01394   2.62290
[...]
 46,0.00000014,0.00002135,0.00000505,0.00000011,0.00000094,0.00000003,0
 .00000090,0.00000098,-0.00000377,-0.00000299,0.00000024,-0.00000219,-0
 .00007068,0.00012421,0.00000302,0.00292675,-0.00218154,-0.00205813,0.0
 0018114,0.00070433,-0.00015010,0.00475543,0.00110035,-0.00154332,-0.00
 068817,-0.00173860,-0.00480754,-0.21946289,-0.13844990,0.05098547,-0.0
 0051010,0.00185391,0.00112822,-0.01275115,-0.01376470,0.00739649,-0.00
 055998,-0.00079251,0.00037651,0.22702354,-0.00002034,-0.00004587,0.000
 01701,0.00002527,0.00001935,-0.00001953,0.00002109,-0.00010968,-0.0000
 1021,-0.00003363,0.00036786,0.00003536,-0.00003782,-0.00008827,0.00001
 688,0.00000392,0.00002202,0.00001876,-0.00000475,-0.00000506,0.0000032
 5,-0.00000196,0.00000345,-0.00000698,0.00000266,-0.00000612,0.00000133
 ,-0.00023527,-0.00085875,0.00027786,-0.00168393,0.00498255,0.00373581,
 0.00062817,-0.00034053,-0.00028408,-0.01040400,-0.00355427,0.00252307,
 -0.00217243,0.00411535,0.00072717,-0.13906280,-0.14903784,0.05013528,0
 .00206756,-0.00233810,-0.00134512,-0.00238422,0.00100751,0.00206403,-0
 .00021323,0.00019876,0.00020889,0.15156367,0.14797279,0.00001574,0.000
 08074,-0.00001492,-0.00001276,-0.00001765,0.00002485,0.00001813,0.0000
 7370,0.00001956,0.00011694,-0.00053577,-0.00030585,0.00001744,0.000241
 56,-0.00006319,0.00000593,-0.00005806,-0.00005967,-0.00000109,0.000005
 10,-0.00000226,0.,-0.00000263,0.00000930,0.00000892,0.00001464,0.00000
 221,0.00113110,0.00163001,-0.00060009,-0.00268446,0.00327459,-0.002718
 54,-0.00026270,-0.00009598,-0.00094041,0.02249549,0.01721507,-0.002675
 20,-0.00398670,0.00126045,-0.00205166,0.05231067,0.05090166,-0.0757774
 2,0.00073960,-0.00164730,0.00001779,-0.01668032,-0.01293049,0.00851710
 ,-0.00090880,-0.00060239,0.00052546,-0.05254219,-0.05677905,0.07571399
 ,0.00608639,-0.00188320,0.00176599,-0.00013867,-0.00078970,0.00599880,
 -0.08875005,-0.02505473,0.11540697,0.00139402,-0.00203859,0.00425287,0
 .00438722,0.00020354,0.00183312,-0.00051961,0.00031163,-0.00043537,-0.
 00363024,0.00059207,-0.00197644,0.00007316,-0.00013637,0.00018139,-0.0
 0050921,0.00007496,-0.00019624,-0.00248186,0.00110245,-0.00152748,-0.0
 0023977,0.00014975,0.00082619,0.00045264,-0.00013156,0.00001704,0.0002
 0512,0.00022721,-0.00031898,0.00015970,0.00018384,-0.00063217,0.000095
 78,-0.00018340,0.00041348,-0.00005048,-0.00002728,0.00000444,-0.000401
 28,-0.00017405,0.00002625,0.00000820,0.00000897,-0.00003783,-0.0000045
 2,-0.00001722,0.00000017,0.08398924,-0.00137539,-0.00454439,-0.0003627
 8,-0.01282855,-0.00190413,0.02774088,-0.02510861,-0.06816527,0.0455479
 9,0.01041042,0.00982060,-0.02150526,-0.00010712,-0.00374871,-0.0028377
 1,0.00007952,-0.00123231,-0.00021519,0.00061594,0.00080766,0.00002408,
 0.00042033,0.00038394,-0.00117958,0.00006259,0.00005250,0.00007829,0.0
 0028384,0.00135883,0.00157283,0.00007126,-0.00192765,-0.00068371,0.000
 89570,-0.00138200,0.00061356,-0.00010072,-0.00000238,0.00013994,0.0001
 3585,-0.00003236,-0.00008320,0.00003592,-0.00007474,0.00009154,0.00001
 121,0.00004243,-0.00000828,-0.00008870,-0.00003869,-0.00002237,-0.0000
 1988,0.00003389,-0.00001688,0.00001407,-0.00000640,-0.00000770,0.02740
 326,0.07060213,0.00200576,0.00053544,0.00262185,0.00204986,0.00045812,
 -0.00178975,0.11590550,0.04453550,-0.28248171,0.00875578,0.00604918,-0
 .01431785,0.00168629,-0.00371348,-0.00008150,-0.00049299,-0.00045335,0
 .00031829,-0.00187269,0.00038450,-0.00003756,0.00038552,0.00036534,-0.
 00061985,-0.00019388,0.00007098,-0.00011803,-0.00144350,0.00143781,0.0
 0001654,-0.00026654,0.00037096,0.00048747,-0.00023587,0.00100764,-0.00
 019355,-0.00022552,-0.00023259,0.00023756,-0.00022346,0.00000216,0.000
 23575,-0.00006080,0.00002640,-0.00009936,0.00001472,-0.00007293,-0.000
 03801,0.00018921,0.00006456,-0.00008576,-0.00000135,-0.00000273,-0.000
 02695,-0.00001031,0.00001730,0.00000343,-0.12631063,-0.05058233,0.2960
 1707,-0.00022424,-0.00011453,0.00031116,0.00032962,0.00043037,-0.00017
 845,0.00029364,-0.00013452,0.00009536,-0.00052339,-0.00018384,-0.00075
 852,0.00023423,0.00033214,-0.00028490,-0.00001669,-0.00027590,0.000010
 67,0.00001428,0.00001981,0.00000356,-0.00004724,-0.00000463,0.00001766
 ,0.00000671,0.00000400,0.00000041,0.00035242,0.00193507,0.00121356,-0.
 01378962,-0.01499350,0.00896685,-0.22097763,-0.13766594,0.05204288,-0.
 00076919,-0.00166928,-0.00462855,0.00433993,0.00137926,-0.00091348,-0.
 00012475,0.00078027,-0.00063481,-0.00061273,-0.00076410,0.00040503,0.0
 0308735,-0.00156469,-0.00181853,-0.00039749,0.00190439,0.00107696,-0.0
 0020330,0.00028143,0.00021243,-0.00046243,-0.00003755,0.00013900,0.229
 28031,-0.00000201,0.00002201,-0.00002337,0.00009705,-0.00011971,-0.000
 00533,0.00029222,-0.00062401,0.00054282,0.00085324,0.00041378,0.000672
 14,-0.00010314,-0.00001809,-0.00008867,0.00002845,0.00004909,-0.000009
 91,-0.00002482,-0.00002380,-0.00000448,-0.00002469,0.00000622,-0.00005
 936,0.00001843,-0.00000587,0.00000603,0.00194408,-0.00261475,-0.000605
 85,-0.00369837,0.00060341,0.00239415,-0.13869966,-0.14275461,0.0503096
 1,-0.00201890,0.00380134,0.00060442,-0.00984772,-0.00429187,0.00230196
 ,0.00067285,-0.00031115,-0.00016146,-0.00011975,0.00008551,0.00017740,
 -0.00155590,0.00427190,0.00376940,0.00203086,-0.00239397,-0.00139014,0
 .00028577,-0.00051467,-0.00023932,0.00016351,0.00004368,-0.00000104,0.
 15028019,0.14444069,0.00009663,-0.00011075,-0.00015656,-0.00020113,-0.
 00020574,0.00003587,-0.00069749,0.00082182,-0.00018217,-0.00044582,0.0
 0065402,-0.00095826,0.00004776,-0.00009388,0.00008286,-0.00001683,0.00
 028076,-0.00001958,-0.00000227,-0.00003321,0.00001670,0.00000420,-0.00
 001118,-0.00000903,-0.00000440,0.00000400,-0.00000657,0.00189164,-0.00
 125364,0.00137039,-0.01608292,-0.01241741,0.00984062,0.05251911,0.0508
 7842,-0.07549444,-0.00393886,0.00108790,-0.00215293,0.02309311,0.01694
 035,-0.00310637,-0.00037457,-0.00010856,-0.00096777,-0.00081938,-0.000
 69732,0.00038135,-0.00212907,0.00367376,-0.00325454,0.00080014,-0.0016
 7985,0.00000898,0.00020960,-0.00025341,-0.00001500,0.00026735,-0.00000
 381,-0.00004502,-0.05513439,-0.05844870,0.07499346,-0.08058137,-0.0063
 1255,0.01347529,-0.00778392,-0.01590484,0.00261038,0.00565113,0.000827
 14,0.00624127,-0.00278947,-0.00223384,0.00162929,0.00731482,0.00370335
 ,0.00215081,-0.00062287,-0.00321246,-0.00992913,-0.00373737,0.00050037
 ,-0.00095130,0.00111754,0.00051586,0.00026479,-0.00386973,0.00156303,0
 .00015995,0.00074599,0.00328597,-0.00167823,-0.00065412,-0.00081195,0.
 00172482,0.00000313,0.00008852,-0.00034915,0.00006505,0.00028063,-0.00
 027380,-0.00001560,-0.00008740,0.00001773,0.00007753,-0.00006293,0.000
 14428,-0.00003170,-0.00004450,0.00002195,-0.00006442,0.00008093,-0.000
 16320,0.00000393,0.00000983,-0.00004704,0.00001363,0.00000629,-0.00002
 955,0.00090975,-0.00062635,0.00032742,0.00009702,-0.00005667,0.0000812
 4,0.32233512,-0.00623902,-0.11748725,0.00033610,-0.01391523,-0.0183430
 6,0.02778458,0.00138788,0.01297360,0.00055053,-0.00363537,-0.01235748,
 0.00095158,0.00301953,0.00576106,-0.01059015,-0.00522833,-0.04564561,-
 0.00158302,0.00173525,-0.00035177,-0.00352563,-0.00036091,-0.00004059,
 0.00045671,0.00029637,0.00068227,0.00139799,0.00571607,0.01186095,-0.0
 0642151,-0.00164804,-0.00279000,0.00699503,-0.00048454,0.00056786,-0.0
 0173561,0.00017545,0.00066939,-0.00108016,-0.00020370,-0.00039960,0.00
 067102,0.00002511,0.00001367,0.00030580,-0.00012929,-0.00017216,0.0000
 8521,0.00023683,0.00047881,-0.00081869,-0.00006255,0.00010652,-0.00012
 890,0.00003970,0.00007388,-0.00011458,0.00022807,0.00070281,-0.0005582
 2,0.00045729,-0.00011668,0.00018160,0.01998944,0.66165687,0.01286369,0
 .00063127,-0.10428058,0.00375924,0.03294817,-0.00250936,0.00569753,-0.
 00157912,-0.00607192,0.00223170,0.00161411,-0.00462980,0.00299685,-0.0
 0850280,-0.00088277,-0.01048116,-0.00696841,0.01794559,-0.00034642,-0.
 00009660,-0.00322876,-0.00003255,-0.00151740,0.00075848,-0.00036374,-0
 .00201229,-0.00406874,-0.00202088,-0.00305992,0.00133956,0.00049652,0.
 00070780,-0.00173126,0.00014391,-0.00013149,0.00037219,-0.00005492,-0.
 00019229,0.00028930,0.00004933,0.00006031,-0.00013285,0.00000167,-0.00
 001597,-0.00011224,0.00001652,0.00005872,-0.00000617,-0.00003471,-0.00
 007958,0.00019728,-0.00000586,0.00001611,0.00003100,-0.00001795,-0.000
 00570,0.00003359,0.00061910,0.00150613,0.00011739,-0.00011704,0.000078
 79,0.00000506,-0.23156352,0.10678852,0.81888351,0.00485713,-0.01679679
 ,0.02504093,0.00378453,-0.00200325,-0.00091310,-0.00123640,-0.00131834
 ,-0.00046834,0.00068309,0.00194228,0.00005781,-0.00080287,-0.00112399,
 0.00039654,0.00088915,0.00304628,0.00274841,0.00063053,0.00034382,-0.0
 0029285,-0.00004207,-0.00010939,-0.00001503,0.00001907,-0.00113375,-0.
 00063039,-0.00072786,-0.00187969,0.00075130,0.00027671,0.00048860,-0.0
 0102177,0.00004831,-0.00011354,0.00021757,-0.00001011,-0.00013480,0.00
 015282,0.00002570,0.00005762,-0.00007564,-0.00001889,0.00001729,-0.000
 05829,0.00001518,0.00003462,-0.00000790,-0.00000720,-0.00006367,0.0001
 1021,-0.00000196,-0.00000382,0.00002687,-0.00000867,-0.00000534,0.0000
 1904,-0.00050231,-0.00020364,-0.00012230,-0.00008797,0.00004339,-0.000
 01780,-0.14613582,-0.03922430,0.15963429,0.12640162,-0.02172826,-0.008
 75618,0.04298439,0.00074293,-0.00516196,-0.00453339,-0.00116940,-0.002
 49676,0.00183436,0.00028318,0.00300790,0.00100458,-0.00041293,0.000682
 09,0.00169301,-0.00142715,-0.00539191,0.00119740,-0.00016457,0.0001191
 2,0.00042652,0.00003023,-0.00006486,-0.00007969,-0.00157573,-0.0040539
 3,0.00243183,-0.00116522,-0.00298521,0.00181827,0.00027109,0.00077117,
 -0.00190042,0.00017137,-0.00017700,0.00047697,-0.00002009,-0.00021869,
 0.00031389,0.00005839,0.00011558,-0.00023456,-0.00002466,-0.00000174,-
 0.00009212,0.00003204,0.00005295,-0.00001880,-0.00007631,-0.00014340,0
 .00022955,0.00001551,-0.00002197,0.00003336,-0.00001329,-0.00001953,0.
 00003478,-0.00011075,-0.00069389,0.00016243,-0.00016192,0.00004848,-0.
 00005429,-0.04095402,-0.14498957,0.07372536,0.04332305,0.14077933,0.02
 352807,0.03136320,-0.02788320,-0.00020968,0.00163910,0.00470104,0.0000
 0829,0.00310591,0.00054413,-0.00104118,-0.00386299,0.00044200,0.000207
 87,0.00302289,-0.00105673,0.00118241,-0.00969567,-0.00440323,-0.000627
 58,-0.00086645,0.00125222,0.00003188,0.00023563,-0.00003326,-0.0007099
 0,0.00134387,0.00225399,0.00145291,0.00335157,-0.00121108,-0.00052999,
 -0.00067037,0.00170947,-0.00010325,0.00023192,-0.00040267,0.00002074,0
 .00010472,-0.00027170,-0.00007266,-0.00008660,0.00019423,-0.00002493,0
 .00002843,0.00006929,-0.00002025,-0.00005974,0.00001018,0.00008600,0.0
 0010584,-0.00020838,-0.00000017,0.00000087,-0.00003769,0.00001511,0.00
 001256,-0.00003510,-0.00010872,0.00035980,-0.00016913,0.00015410,-0.00
 007823,-0.00000375,0.15906683,0.06943906,-0.43330870,-0.22386069,-0.06
 467096,0.54462610,0.01808669,-0.00239973,-0.00183355,-0.00027518,-0.00
 312510,0.00330512,-0.00008424,0.00067389,-0.00097113,0.00033493,-0.000
 33606,-0.00030944,-0.00081707,-0.00046832,-0.00096545,0.00256932,-0.00
 113511,0.00225371,-0.00004566,-0.00170202,-0.00067954,-0.00048723,-0.0
 0007278,-0.00014899,0.00038650,-0.00050118,-0.00013780,0.00004287,-0.0
 0025639,0.00001699,0.00000081,0.00012848,-0.00015688,0.00001226,-0.000
 02033,0.00003078,0.00000540,-0.00006198,0.00002281,-0.00000513,0.00001
 305,-0.00000456,-0.00001938,0.00001651,-0.00002788,0.00000133,0.000011
 96,0.00000308,0.00001586,-0.00000642,0.00001515,-0.00000397,0.00000053
 ,0.00000748,-0.00000225,0.00000398,0.00000292,-0.00002343,0.00007057,-
 0.00000256,-0.00002183,0.00001076,-0.00001912,-0.09204823,0.03778463,0
 .05653792,0.01195373,0.02409034,0.04154269,0.06041913,0.00247276,-0.05
 985271,-0.03336958,0.00143614,-0.00114793,-0.00445325,-0.00015743,-0.0
 0249750,-0.00091732,0.00229492,0.00399440,-0.00248696,-0.00050444,-0.0
 0402541,0.00116272,-0.00389078,-0.00038743,0.00761909,-0.00120039,-0.0
 0387978,0.00163997,-0.00014856,-0.00078432,0.00031063,-0.00000579,0.00
 087664,0.00000852,-0.00228426,-0.00467404,0.00307141,0.00059337,0.0012
 2186,-0.00306391,0.00020460,-0.00020702,0.00073657,-0.00009256,-0.0003
 3838,0.00051140,0.00006863,0.00017121,-0.00026535,-0.00003891,0.000009
 45,-0.00016562,0.00006326,0.00006899,-0.00004219,-0.00006994,-0.000197
 32,0.00036096,0.00002915,-0.00005015,0.00005635,-0.00001546,-0.0000354
 3,0.00004916,-0.00011013,-0.00011055,0.00014409,-0.00018480,0.00003510
 ,-0.00011217,0.03946704,-0.35273966,-0.19398281,0.01480724,0.02956712,
 -0.03433644,-0.05272041,0.39493273,-0.00020487,-0.02193915,0.01011085,
 0.00499109,0.00653370,-0.00751407,-0.00134937,-0.00221567,0.00119892,0
 .00056242,0.00223374,0.00005892,-0.00102936,-0.00013215,0.00168453,0.0
 0131456,0.00148371,0.00110366,-0.00042319,0.00267810,0.00208306,-0.000
 18275,0.00005152,-0.00011210,-0.00000983,0.00133012,0.00074150,-0.0007
 3669,-0.00125182,0.00101057,0.00019606,0.00025197,-0.00077105,0.000019
 47,-0.00008437,0.00020902,-0.00002617,-0.00002112,0.00012120,0.0000181
 3,0.00005876,-0.00004667,0.00001224,-0.00000788,-0.00000822,0.00002538
 ,0.00001031,-0.00002048,-0.00003441,-0.00006182,0.00009002,0.00001644,
 -0.00003567,0.00001848,0.00000076,-0.00001444,0.00001018,-0.00004690,-
 0.00018183,0.00003612,-0.00002197,-0.00002559,-0.00003558,0.05703253,-
 0.18953643,-0.27896729,0.03835189,-0.05673376,-0.08682123,-0.09847547,
 0.25758988,0.35582644,-0.00004294,-0.00000759,0.00004678,0.00005547,0.
 00006355,-0.00001150,0.00006005,-0.00005277,0.00003127,-0.00008311,-0.
 00007044,0.00002439,0.00003600,0.00005530,-0.00004197,0.00001235,-0.00
 005075,-0.00001324,0.00000630,0.00000576,-0.00000159,-0.00001147,-0.00
 000307,-0.00000217,-0.00000040,-0.00000026,-0.00000080,0.00014948,0.00
 057068,0.00009994,-0.00269555,-0.00091735,-0.00038978,-0.00208781,-0.0
 0587047,0.00042954,-0.00191096,-0.00328926,-0.00503401,0.00467496,-0.0
 0942491,0.02581293,0.00562106,0.01415997,-0.02246928,0.00040195,0.0003
 8855,-0.00120011,-0.07613842,-0.01210167,-0.00320063,-0.00091074,0.001
 01156,0.00151151,-0.00092780,0.00183357,-0.00014284,-0.00004542,-0.000
 02166,0.00000559,0.00034309,-0.00072404,0.00104871,0.00000682,0.000044
 57,-0.00001454,-0.00000933,-0.00001624,0.00001852,-0.00000105,-0.00001
 205,0.00000036,0.10818390,0.00009160,0.00029035,-0.00010968,-0.0000693
 8,-0.00014325,0.00008813,-0.00003178,0.00038181,0.00006424,-0.00058199
 ,-0.00117512,0.00038977,0.00005913,0.00020590,-0.00014718,-0.00003028,
 -0.00009008,-0.00002054,-0.00001168,0.00000341,-0.00000901,-0.00001134
 ,-0.00001080,0.00003216,0.00000576,0.00000760,0.00000290,0.00141843,0.
 00079219,-0.00219390,-0.00104838,-0.00193307,0.00168868,-0.00676980,0.
 00288643,-0.00059051,-0.00246848,0.00656087,-0.00127996,-0.00422714,-0
 .01547305,0.02698303,0.00850526,0.00290235,0.00535483,-0.00019624,0.00
 067409,-0.00012764,-0.01181534,-0.10338477,0.08727099,0.00179185,-0.00
 200892,-0.00107571,0.00103955,-0.00215773,-0.00207114,0.00005100,-0.00
 001958,-0.00003582,-0.00011259,0.00011732,0.00103610,-0.00009997,-0.00
 046731,0.00012819,0.00007293,0.00014622,-0.00013818,0.00001428,0.00019
 709,0.00003520,0.01935813,0.36915204,-0.00016047,-0.00053303,0.0001616
 9,0.00011175,0.00021399,-0.00016659,-0.00007897,-0.00062886,-0.0000497
 1,0.00132623,0.00211224,-0.00080123,-0.00015227,-0.00040432,0.00023108
 ,0.00002191,0.00021759,0.00006842,0.00000241,-0.00001666,0.00002509,0.
 00001925,0.00002532,-0.00005374,-0.00000737,-0.00001555,-0.00000664,-0
 .00103999,-0.00267180,0.00397687,-0.00016934,0.00132001,-0.00487196,0.
 00224603,0.00139300,0.00783855,-0.00683241,-0.00345412,0.00404972,0.01
 430257,0.01947169,-0.02220849,-0.01108431,0.01275533,-0.04144066,0.000
 01430,0.00063121,-0.00053618,-0.00310165,0.08737389,-0.24202930,-0.000
 18628,-0.00215904,0.00033146,0.00151441,-0.00096169,0.00047456,-0.0001
 1016,0.00011989,0.00007264,-0.00015581,0.00025465,0.00000255,0.0001989
 6,0.00091538,-0.00021232,-0.00013459,-0.00028316,0.00024103,-0.0000234
 9,-0.00040649,-0.00008307,-0.00914858,-0.57458511,1.28269373,0.0000097
 3,0.00000011,-0.00001388,-0.00001013,-0.00001428,0.00000176,-0.0000088
 9,0.00000782,-0.00000019,0.00001937,0.00003458,-0.00001751,-0.00000042
 ,-0.00001576,0.00001507,-0.00000077,0.00001565,0.00000154,-0.00000747,
 -0.00000179,0.00000005,-0.00000216,0.00000095,-0.00000341,-0.00000262,
 0.00000097,-0.00000131,-0.00001342,-0.00009874,0.00002676,0.00069595,0
 .00026583,0.00010124,0.00041563,0.00103897,-0.00013690,0.00039001,0.00
 051351,0.00096494,-0.00117713,-0.00063006,-0.00256650,-0.00139197,-0.0
 0242859,0.00093273,-0.00013385,-0.00004892,0.00023273,0.01859871,0.001
 42951,0.00121212,0.00024087,0.00002137,-0.00022267,0.00024883,-0.00016
 068,0.00015689,-0.00000196,0.00000770,-0.00000226,-0.00012011,0.000154
 85,-0.00017546,-0.00000681,-0.00000494,0.00000502,0.00000668,0.0000024
 2,-0.00000641,0.00000580,-0.00000118,-0.00000034,-0.03468643,-0.004933
 55,0.01262787,0.01693255,-0.00006441,-0.00020756,0.00007167,0.00004891
 ,0.00009863,-0.00006633,0.00000464,-0.00023906,-0.00003141,0.00040590,
 0.00077381,-0.00026851,-0.00004742,-0.00015769,0.00009423,0.00001106,0
 .00007866,0.00002732,0.00000353,0.00000057,0.00000267,0.00000528,0.000
 00756,-0.00001798,-0.00000295,-0.00000627,-0.00000296,-0.00058869,-0.0
 0080192,0.00138993,0.00036462,0.00085874,-0.00141977,0.00107550,-0.000
 76657,0.00088023,0.00053540,-0.00149217,0.00096217,0.00190706,0.003958
 82,-0.00208877,-0.00484968,-0.00035335,-0.00192557,0.00002586,-0.00028
 449,0.00011981,0.00136101,0.00850972,0.01634220,-0.00027922,0.00016741
 ,0.00002357,0.00013502,0.00035472,0.00032061,-0.00004328,0.00003457,0.
 00002007,0.00006355,-0.00014938,-0.00007480,0.00008909,0.00035305,-0.0
 0011909,-0.00006281,-0.00011337,0.00012026,-0.00001315,-0.00014694,-0.
 00001534,-0.00492910,-0.25745400,0.45931563,0.00484429,0.24697650,0.00
 013689,0.00044364,-0.00013925,-0.00010466,-0.00019854,0.00014130,0.000
 04975,0.00051993,0.00004939,-0.00090080,-0.00171829,0.00057647,0.00010
 871,0.00033983,-0.00020210,-0.00002284,-0.00018613,-0.00005573,-0.0000
 0380,0.00001205,-0.00002116,-0.00001267,-0.00001884,0.00004587,0.00000
 519,0.00001161,0.00000534,0.00091378,0.00195374,-0.00282836,-0.0000903
 3,-0.00116891,0.00330336,-0.00020877,0.00048966,-0.00294797,0.00097610
 ,0.00144183,-0.00214083,-0.00774870,-0.00525057,0.00268953,0.00611777,
 0.00128395,0.00719781,0.00007763,0.00002366,-0.00019745,0.00121365,0.0
 1628391,-0.01739726,0.00040575,0.00046619,0.00008833,-0.00047241,-0.00
 011437,-0.00009269,0.00008775,-0.00010431,-0.00006008,-0.00000317,0.00
 003007,-0.00033028,-0.00016263,-0.00076620,0.00016980,0.00011101,0.000
 23445,-0.00019784,0.00001720,0.00034133,0.00007629,0.01264151,0.459310
 15,-0.98770748,-0.01313189,-0.47365985,0.99997499\\0.00000309,0.000010
 87,-0.00000540,0.,-0.00000082,0.00000111,0.00000199,-0.00000233,0.0000
 0218,-0.00001347,-0.00000159,-0.00000531,0.00000216,-0.00000507,0.0000
 0516,0.00000346,0.00000148,0.00000329,-0.00000002,-0.00000025,0.000000
 52,-0.00000117,0.00000003,-0.00000105,-0.00000135,-0.00000025,-0.00000
 135,0.00000556,0.00000705,-0.00000552,0.,0.00000238,0.00000444,0.00000
 028,0.00000012,-0.00000371,0.00000060,0.00000244,-0.00000265,-0.000001
 07,-0.00000115,0.00000121,0.00000188,-0.00000242,0.00000357,0.00000072
 ,0.00000122,0.00000030,0.00000010,-0.00000010,0.00000206,-0.00000026,-
 0.00000103,0.00000065,0.00000025,0.00000002,0.00000131,0.00000182,-0.0
 0000043,0.00000014,-0.00000199,-0.00000018,-0.00000076,-0.00000560,-0.
 00001411,0.00000611,0.00000355,-0.00000057,-0.00000646,-0.00000041,0.0
 0000372,0.00000330,-0.00000031,0.00000081,-0.00000322,0.00000022,0.000
 00014,0.00000009\\\@


 THERE IS NO SCIENCE WITHOUT FANCY, NOR ART WITHOUT FACTS.
     -- VLADIMIR NABAKOV
 Job cpu time:       0 days  2 hours 38 minutes 52.4 seconds.
 Elapsed time:       0 days  0 hours  5 minutes 17.8 seconds.
 File lengths (MBytes):  RWF=    356 Int=      0 D2E=      0 Chk=     13 Scr=      1
 Normal termination of Gaussian 16 at Fri Sep 15 13:58:05 2023.
