 Entering Gaussian System, Link 0=/home/ubuntu/g16/g16
 Input=/home/ubuntu/products/molecule_14.gjf
 Output=/home/ubuntu/products/molecule_14.log
 Initial command:
 /home/ubuntu/g16/l1.exe "/home/ubuntu/Scratch/Gau-47836.inp" -scrdir="/home/ubuntu/Scratch/"
 Entering Link 1 = /home/ubuntu/g16/l1.exe PID=     47838.
  
 Copyright (c) 1988-2017, Gaussian, Inc.  All Rights Reserved.
  
 This is part of the Gaussian(R) 16 program.  It is based on
 the Gaussian(R) 09 system (copyright 2009, Gaussian, Inc.),
 the Gaussian(R) 03 system (copyright 2003, Gaussian, Inc.),
 the Gaussian(R) 98 system (copyright 1998, Gaussian, Inc.),
 the Gaussian(R) 94 system (copyright 1995, Gaussian, Inc.),
 the Gaussian 92(TM) system (copyright 1992, Gaussian, Inc.),
 the Gaussian 90(TM) system (copyright 1990, Gaussian, Inc.),
 the Gaussian 88(TM) system (copyright 1988, Gaussian, Inc.),
 the Gaussian 86(TM) system (copyright 1986, Carnegie Mellon
 University), and the Gaussian 82(TM) system (copyright 1983,
 Carnegie Mellon University). Gaussian is a federally registered
 trademark of Gaussian, Inc.
  
 This software contains proprietary and confidential information,
 including trade secrets, belonging to Gaussian, Inc.
  
 This software is provided under written license and may be
 used, copied, transmitted, or stored only in accord with that
 written license.
  
 The following legend is applicable only to US Government
 contracts under FAR:
  
                    RESTRICTED RIGHTS LEGEND
  
 Use, reproduction and disclosure by the US Government is
 subject to restrictions as set forth in subparagraphs (a)
 and (c) of the Commercial Computer Software - Restricted
 Rights clause in FAR 52.227-19.
  
 Gaussian, Inc.
 340 Quinnipiac St., Bldg. 40, Wallingford CT 06492
  
  
 ---------------------------------------------------------------
 Warning -- This program may not be used in any manner that
 competes with the business of Gaussian, Inc. or will provide
 assistance to any competitor of Gaussian, Inc.  The licensee
 of this program is prohibited from giving any competitor of
 Gaussian, Inc. access to this program.  By using this program,
 the user acknowledges that Gaussian, Inc. is engaged in the
 business of creating and licensing software in the field of
 computational chemistry and represents and warrants to the
 licensee that it is not a competitor of Gaussian, Inc. and that
 it will not use this program in any manner prohibited above.
 ---------------------------------------------------------------
  

 Cite this work as:
 Gaussian 16, Revision B.01,
 M. J. Frisch, G. W. Trucks, H. B. Schlegel, G. E. Scuseria, 
 M. A. Robb, J. R. Cheeseman, G. Scalmani, V. Barone, 
 G. A. Petersson, H. Nakatsuji, X. Li, M. Caricato, A. V. Marenich, 
 J. Bloino, B. G. Janesko, R. Gomperts, B. Mennucci, H. P. Hratchian, 
 J. V. Ortiz, A. F. Izmaylov, J. L. Sonnenberg, D. Williams-Young, 
 F. Ding, F. Lipparini, F. Egidi, J. Goings, B. Peng, A. Petrone, 
 T. Henderson, D. Ranasinghe, V. G. Zakrzewski, J. Gao, N. Rega, 
 G. Zheng, W. Liang, M. Hada, M. Ehara, K. Toyota, R. Fukuda, 
 J. Hasegawa, M. Ishida, T. Nakajima, Y. Honda, O. Kitao, H. Nakai, 
 T. Vreven, K. Throssell, J. A. Montgomery, Jr., J. E. Peralta, 
 F. Ogliaro, M. J. Bearpark, J. J. Heyd, E. N. Brothers, K. N. Kudin, 
 V. N. Staroverov, T. A. Keith, R. Kobayashi, J. Normand, 
 K. Raghavachari, A. P. Rendell, J. C. Burant, S. S. Iyengar, 
 J. Tomasi, M. Cossi, J. M. Millam, M. Klene, C. Adamo, R. Cammi, 
 J. W. Ochterski, R. L. Martin, K. Morokuma, O. Farkas, 
 J. B. Foresman, and D. J. Fox, Gaussian, Inc., Wallingford CT, 2016.
 
 ******************************************
 Gaussian 16:  EM64L-G16RevB.01 20-Dec-2017
                17-Sep-2023 
 ******************************************
 %nprocshared=30
 Will use up to   30 processors via shared memory.
 %mem=30GB
 %chk=molecule_14.chk
 ---------------------------------------------------------
 # opt freq b3lyp/6-31+g(d) empiricaldispersion=gd3 volume
 ---------------------------------------------------------
 1/18=20,19=15,26=3,38=1/1,3;
 2/9=110,12=2,17=6,18=5,40=1/2;
 3/5=1,6=6,7=11,11=2,25=1,30=1,71=1,74=-5,124=31/1,2,3;
 4//1;
 5/5=2,38=5/2;
 6/7=2,8=2,9=2,10=2,28=1,44=1/1,4;
 7//1,2,3,16;
 1/18=20,19=15,26=3/3(2);
 2/9=110/2;
 99//99;
 2/9=110/2;
 3/5=1,6=6,7=11,11=2,25=1,30=1,71=1,74=-5,124=31/1,2,3;
 4/5=5,16=3,69=1/1;
 5/5=2,38=5/2;
 7//1,2,3,16;
 1/18=20,19=15,26=3/3(-5);
 2/9=110/2;
 6/7=2,8=2,9=2,10=2,19=2,28=1,44=1/1,4;
 99/9=1/99;
 -------------------
 Title Card Required
 -------------------
 Symbolic Z-matrix:
 Charge =  0 Multiplicity = 1
 C                    -4.94406  -1.2187    0.00013 
 C                    -3.553    -1.2201   -0.00007 
 C                    -2.8367   -0.00398   0.00027 
 C                    -3.56341   1.20275   0.00092 
 C                    -4.95729   1.18797   0.00115 
 C                    -5.6732   -0.01759   0.00058 
 H                    -5.47799  -2.16696   0.00009 
 H                    -3.00587  -2.1585   -0.00026 
 H                    -3.02643   2.14692   0.00149 
 H                    -5.49869   2.13143   0.00187 
 C                    -1.4128    0.00301   0.00022 
 C                    -0.19495   0.01099   0.00011 
 C                     1.22723   0.02656  -0.00001 
 C                     1.9604   -1.17862   0.00042 
 C                     1.93415   1.25059  -0.00047 
 C                     3.35175  -1.15746   0.00034 
 H                     1.42701  -2.1245    0.00082 
 C                     3.32193   1.26175  -0.00054 
 H                     1.37755   2.1831   -0.0008 
 C                     4.05385   0.06035  -0.00016 
 H                     3.88746  -2.1017    0.00068 
 H                     3.86857   2.19962  -0.0009 
 C                     5.54953   0.13014  -0.00019 
 O                     6.12592   1.21115  -0.00027 
 C                     6.34568  -1.1644   -0.00003 
 H                     6.11177  -1.76941   0.88479 
 H                     6.11084  -1.77055  -0.88377 
 H                     7.41017  -0.92216  -0.00066 
 C                    -7.18352  -0.03799  -0.00157 
 H                    -7.57379  -0.58129   0.86842 
 H                    -7.57118  -0.54111  -0.89674 
 H                    -7.60018   0.97429   0.0205 
 

 GradGradGradGradGradGradGradGradGradGradGradGradGradGradGradGradGradGrad
 Berny optimization.
 Initialization pass.
                           ----------------------------
                           !    Initial Parameters    !
                           ! (Angstroms and Degrees)  !
 --------------------------                            --------------------------
 ! Name  Definition              Value          Derivative Info.                !
 --------------------------------------------------------------------------------
 ! R1    R(1,2)                  1.3911         estimate D2E/DX2                !
 ! R2    R(1,6)                  1.4051         estimate D2E/DX2                !
 ! R3    R(1,7)                  1.0882         estimate D2E/DX2                !
 ! R4    R(2,3)                  1.4114         estimate D2E/DX2                !
 ! R5    R(2,8)                  1.0863         estimate D2E/DX2                !
 ! R6    R(3,4)                  1.4087         estimate D2E/DX2                !
 ! R7    R(3,11)                 1.4239         estimate D2E/DX2                !
 ! R8    R(4,5)                  1.394          estimate D2E/DX2                !
 ! R9    R(4,9)                  1.0862         estimate D2E/DX2                !
 ! R10   R(5,6)                  1.4021         estimate D2E/DX2                !
 ! R11   R(5,10)                 1.0878         estimate D2E/DX2                !
 ! R12   R(6,29)                 1.5105         estimate D2E/DX2                !
 ! R13   R(11,12)                1.2179         estimate D2E/DX2                !
 ! R14   R(12,13)                1.4223         estimate D2E/DX2                !
 ! R15   R(13,14)                1.4107         estimate D2E/DX2                !
 ! R16   R(13,15)                1.4135         estimate D2E/DX2                !
 ! R17   R(14,16)                1.3915         estimate D2E/DX2                !
 ! R18   R(14,17)                1.0859         estimate D2E/DX2                !
 ! R19   R(15,18)                1.3878         estimate D2E/DX2                !
 ! R20   R(15,19)                1.086          estimate D2E/DX2                !
 ! R21   R(16,20)                1.4057         estimate D2E/DX2                !
 ! R22   R(16,21)                1.0856         estimate D2E/DX2                !
 ! R23   R(18,20)                1.4068         estimate D2E/DX2                !
 ! R24   R(18,22)                1.0856         estimate D2E/DX2                !
 ! R25   R(20,23)                1.4973         estimate D2E/DX2                !
 ! R26   R(23,24)                1.2251         estimate D2E/DX2                !
 ! R27   R(23,25)                1.5198         estimate D2E/DX2                !
 ! R28   R(25,26)                1.0971         estimate D2E/DX2                !
 ! R29   R(25,27)                1.0971         estimate D2E/DX2                !
 ! R30   R(25,28)                1.0917         estimate D2E/DX2                !
 ! R31   R(29,30)                1.0974         estimate D2E/DX2                !
 ! R32   R(29,31)                1.0976         estimate D2E/DX2                !
 ! R33   R(29,32)                1.0949         estimate D2E/DX2                !
 ! A1    A(2,1,6)              121.3176         estimate D2E/DX2                !
 ! A2    A(2,1,7)              119.3245         estimate D2E/DX2                !
 ! A3    A(6,1,7)              119.358          estimate D2E/DX2                !
 ! A4    A(1,2,3)              120.4408         estimate D2E/DX2                !
 ! A5    A(1,2,8)              120.3014         estimate D2E/DX2                !
 ! A6    A(3,2,8)              119.2578         estimate D2E/DX2                !
 ! A7    A(2,3,4)              118.4445         estimate D2E/DX2                !
 ! A8    A(2,3,11)             120.7799         estimate D2E/DX2                !
 ! A9    A(4,3,11)             120.7756         estimate D2E/DX2                !
 ! A10   A(3,4,5)              120.4496         estimate D2E/DX2                !
 ! A11   A(3,4,9)              119.3148         estimate D2E/DX2                !
 ! A12   A(5,4,9)              120.2356         estimate D2E/DX2                !
 ! A13   A(4,5,6)              121.311          estimate D2E/DX2                !
 ! A14   A(4,5,10)             119.2417         estimate D2E/DX2                !
 ! A15   A(6,5,10)             119.4473         estimate D2E/DX2                !
 ! A16   A(1,6,5)              118.0365         estimate D2E/DX2                !
 ! A17   A(1,6,29)             120.4858         estimate D2E/DX2                !
 ! A18   A(5,6,29)             121.4776         estimate D2E/DX2                !
 ! A19   A(12,13,14)           120.6871         estimate D2E/DX2                !
 ! A20   A(12,13,15)           120.6351         estimate D2E/DX2                !
 ! A21   A(14,13,15)           118.6778         estimate D2E/DX2                !
 ! A22   A(13,14,16)           120.4431         estimate D2E/DX2                !
 ! A23   A(13,14,17)           119.2667         estimate D2E/DX2                !
 ! A24   A(16,14,17)           120.2902         estimate D2E/DX2                !
 ! A25   A(13,15,18)           120.4688         estimate D2E/DX2                !
 ! A26   A(13,15,19)           119.1598         estimate D2E/DX2                !
 ! A27   A(18,15,19)           120.3714         estimate D2E/DX2                !
 ! A28   A(14,16,20)           120.8356         estimate D2E/DX2                !
 ! A29   A(14,16,21)           118.6973         estimate D2E/DX2                !
 ! A30   A(20,16,21)           120.4671         estimate D2E/DX2                !
 ! A31   A(15,18,20)           120.8898         estimate D2E/DX2                !
 ! A32   A(15,18,22)           120.6967         estimate D2E/DX2                !
 ! A33   A(20,18,22)           118.4134         estimate D2E/DX2                !
 ! A34   A(16,20,18)           118.6849         estimate D2E/DX2                !
 ! A35   A(16,20,23)           122.6359         estimate D2E/DX2                !
 ! A36   A(18,20,23)           118.6792         estimate D2E/DX2                !
 ! A37   A(20,23,24)           120.7374         estimate D2E/DX2                !
 ! A38   A(20,23,25)           118.9202         estimate D2E/DX2                !
 ! A39   A(24,23,25)           120.3424         estimate D2E/DX2                !
 ! A40   A(23,25,26)           110.9857         estimate D2E/DX2                !
 ! A41   A(23,25,27)           111.0024         estimate D2E/DX2                !
 ! A42   A(23,25,28)           108.7711         estimate D2E/DX2                !
 ! A43   A(26,25,27)           107.4186         estimate D2E/DX2                !
 ! A44   A(26,25,28)           109.3124         estimate D2E/DX2                !
 ! A45   A(27,25,28)           109.3206         estimate D2E/DX2                !
 ! A46   A(6,29,30)            111.1704         estimate D2E/DX2                !
 ! A47   A(6,29,31)            111.1312         estimate D2E/DX2                !
 ! A48   A(6,29,32)            111.5918         estimate D2E/DX2                !
 ! A49   A(30,29,31)           107.0985         estimate D2E/DX2                !
 ! A50   A(30,29,32)           107.8423         estimate D2E/DX2                !
 ! A51   A(31,29,32)           107.8081         estimate D2E/DX2                !
 ! A52   L(3,11,12,9,-1)       179.9061         estimate D2E/DX2                !
 ! A53   L(11,12,13,19,-1)     179.7482         estimate D2E/DX2                !
 ! A54   L(3,11,12,9,-2)       180.0041         estimate D2E/DX2                !
 ! A55   L(11,12,13,19,-2)     179.9994         estimate D2E/DX2                !
 ! D1    D(6,1,2,3)              0.0045         estimate D2E/DX2                !
 ! D2    D(6,1,2,8)            179.9907         estimate D2E/DX2                !
 ! D3    D(7,1,2,3)           -179.986          estimate D2E/DX2                !
 ! D4    D(7,1,2,8)              0.0002         estimate D2E/DX2                !
 ! D5    D(2,1,6,5)             -0.0152         estimate D2E/DX2                !
 ! D6    D(2,1,6,29)           179.8963         estimate D2E/DX2                !
 ! D7    D(7,1,6,5)            179.9753         estimate D2E/DX2                !
 ! D8    D(7,1,6,29)            -0.1132         estimate D2E/DX2                !
 ! D9    D(1,2,3,4)              0.0047         estimate D2E/DX2                !
 ! D10   D(1,2,3,11)           179.993          estimate D2E/DX2                !
 ! D11   D(8,2,3,4)           -179.9817         estimate D2E/DX2                !
 ! D12   D(8,2,3,11)             0.0066         estimate D2E/DX2                !
 ! D13   D(2,3,4,5)             -0.0027         estimate D2E/DX2                !
 ! D14   D(2,3,4,9)            179.9818         estimate D2E/DX2                !
 ! D15   D(11,3,4,5)          -179.991          estimate D2E/DX2                !
 ! D16   D(11,3,4,9)            -0.0065         estimate D2E/DX2                !
 ! D17   D(2,3,13,14)           -0.0408         estimate D2E/DX2                !
 ! D18   D(2,3,13,15)          179.962          estimate D2E/DX2                !
 ! D19   D(4,3,13,14)          179.9497         estimate D2E/DX2                !
 ! D20   D(4,3,13,15)           -0.0475         estimate D2E/DX2                !
 ! D21   D(3,4,5,6)             -0.0085         estimate D2E/DX2                !
 ! D22   D(3,4,5,10)           179.9867         estimate D2E/DX2                !
 ! D23   D(9,4,5,6)           -179.9928         estimate D2E/DX2                !
 ! D24   D(9,4,5,10)             0.0024         estimate D2E/DX2                !
 ! D25   D(4,5,6,1)              0.0172         estimate D2E/DX2                !
 ! D26   D(4,5,6,29)          -179.8933         estimate D2E/DX2                !
 ! D27   D(10,5,6,1)          -179.978          estimate D2E/DX2                !
 ! D28   D(10,5,6,29)            0.1115         estimate D2E/DX2                !
 ! D29   D(1,6,29,30)           58.3545         estimate D2E/DX2                !
 ! D30   D(1,6,29,31)          -60.8355         estimate D2E/DX2                !
 ! D31   D(1,6,29,32)          178.7947         estimate D2E/DX2                !
 ! D32   D(5,6,29,30)         -121.7371         estimate D2E/DX2                !
 ! D33   D(5,6,29,31)          119.0729         estimate D2E/DX2                !
 ! D34   D(5,6,29,32)           -1.2969         estimate D2E/DX2                !
 ! D35   D(12,13,14,16)       -179.9978         estimate D2E/DX2                !
 ! D36   D(12,13,14,17)          0.0008         estimate D2E/DX2                !
 ! D37   D(15,13,14,16)         -0.0014         estimate D2E/DX2                !
 ! D38   D(15,13,14,17)        179.9971         estimate D2E/DX2                !
 ! D39   D(12,13,15,18)        179.9979         estimate D2E/DX2                !
 ! D40   D(12,13,15,19)         -0.004          estimate D2E/DX2                !
 ! D41   D(14,13,15,18)          0.0016         estimate D2E/DX2                !
 ! D42   D(14,13,15,19)        179.9997         estimate D2E/DX2                !
 ! D43   D(13,14,16,20)         -0.0005         estimate D2E/DX2                !
 ! D44   D(13,14,16,21)        179.9999         estimate D2E/DX2                !
 ! D45   D(17,14,16,20)       -179.9991         estimate D2E/DX2                !
 ! D46   D(17,14,16,21)          0.0013         estimate D2E/DX2                !
 ! D47   D(13,15,18,20)          0.0002         estimate D2E/DX2                !
 ! D48   D(13,15,18,22)        179.9997         estimate D2E/DX2                !
 ! D49   D(19,15,18,20)       -179.9979         estimate D2E/DX2                !
 ! D50   D(19,15,18,22)          0.0016         estimate D2E/DX2                !
 ! D51   D(14,16,20,18)          0.0023         estimate D2E/DX2                !
 ! D52   D(14,16,20,23)        179.9973         estimate D2E/DX2                !
 ! D53   D(21,16,20,18)       -179.9981         estimate D2E/DX2                !
 ! D54   D(21,16,20,23)         -0.0031         estimate D2E/DX2                !
 ! D55   D(15,18,20,16)         -0.0021         estimate D2E/DX2                !
 ! D56   D(15,18,20,23)       -179.9974         estimate D2E/DX2                !
 ! D57   D(22,18,20,16)        179.9984         estimate D2E/DX2                !
 ! D58   D(22,18,20,23)          0.0031         estimate D2E/DX2                !
 ! D59   D(16,20,23,24)       -179.9799         estimate D2E/DX2                !
 ! D60   D(16,20,23,25)          0.0153         estimate D2E/DX2                !
 ! D61   D(18,20,23,24)          0.0151         estimate D2E/DX2                !
 ! D62   D(18,20,23,25)       -179.9896         estimate D2E/DX2                !
 ! D63   D(20,23,25,26)        -59.7354         estimate D2E/DX2                !
 ! D64   D(20,23,25,27)         59.6508         estimate D2E/DX2                !
 ! D65   D(20,23,25,28)        179.9679         estimate D2E/DX2                !
 ! D66   D(24,23,25,26)        120.2598         estimate D2E/DX2                !
 ! D67   D(24,23,25,27)       -120.354          estimate D2E/DX2                !
 ! D68   D(24,23,25,28)         -0.0369         estimate D2E/DX2                !
 --------------------------------------------------------------------------------
 Trust Radius=3.00D-01 FncErr=1.00D-07 GrdErr=1.00D-06 EigMax=2.50D+02 EigMin=1.00D-04
 Number of steps in this run=    166 maximum allowed number of steps=    192.
 GradGradGradGradGradGradGradGradGradGradGradGradGradGradGradGradGradGrad

                          Input orientation:                          
 ---------------------------------------------------------------------
 Center     Atomic      Atomic             Coordinates (Angstroms)
 Number     Number       Type             X           Y           Z
 ---------------------------------------------------------------------
      1          6           0       -4.944059   -1.218697    0.000128
      2          6           0       -3.553001   -1.220096   -0.000069
      3          6           0       -2.836699   -0.003981    0.000273
      4          6           0       -3.563412    1.202748    0.000916
      5          6           0       -4.957291    1.187969    0.001148
      6          6           0       -5.673197   -0.017585    0.000575
      7          1           0       -5.477985   -2.166956    0.000089
      8          1           0       -3.005874   -2.158505   -0.000263
      9          1           0       -3.026431    2.146924    0.001486
     10          1           0       -5.498694    2.131434    0.001866
     11          6           0       -1.412804    0.003014    0.000224
     12          6           0       -0.194954    0.010992    0.000114
     13          6           0        1.227226    0.026558   -0.000005
     14          6           0        1.960396   -1.178620    0.000415
     15          6           0        1.934148    1.250588   -0.000467
     16          6           0        3.351748   -1.157464    0.000343
     17          1           0        1.427005   -2.124500    0.000819
     18          6           0        3.321928    1.261749   -0.000538
     19          1           0        1.377551    2.183096   -0.000797
     20          6           0        4.053846    0.060348   -0.000158
     21          1           0        3.887462   -2.101703    0.000676
     22          1           0        3.868570    2.199620   -0.000897
     23          6           0        5.549533    0.130136   -0.000194
     24          8           0        6.125918    1.211154   -0.000269
     25          6           0        6.345679   -1.164404   -0.000025
     26          1           0        6.111775   -1.769413    0.884792
     27          1           0        6.110844   -1.770552   -0.883773
     28          1           0        7.410169   -0.922157   -0.000657
     29          6           0       -7.183520   -0.037991   -0.001574
     30          1           0       -7.573786   -0.581290    0.868421
     31          1           0       -7.571175   -0.541109   -0.896738
     32          1           0       -7.600180    0.974293    0.020496
 ---------------------------------------------------------------------
                    Distance matrix (angstroms):
                    1          2          3          4          5
     1  C    0.000000
     2  C    1.391059   0.000000
     3  C    2.432386   1.411391   0.000000
     4  C    2.787397   2.422867   1.408654   0.000000
     5  C    2.406703   2.787617   2.432623   1.393957   0.000000
     6  C    1.405102   2.437471   2.836531   2.437295   1.402099
     7  H    1.088243   2.145252   3.413920   3.875628   3.395091
     8  H    2.154020   1.086259   2.161156   3.407179   3.873876
     9  H    3.873591   3.407947   2.159257   1.086194   2.155879
    10  H    3.395733   3.875368   3.412655   2.146573   1.087770
    11  C    3.736621   2.465044   1.423912   2.462616   3.737313
    12  C    4.905725   3.576599   2.641787   3.573065   4.905622
    13  C    6.295667   4.940113   4.064040   4.932914   6.292625
    14  C    6.904571   5.513553   4.938815   6.015261   7.311302
    15  C    7.308016   6.017731   4.933044   5.497768   6.891724
    16  C    8.296033   6.905033   6.295030   7.306849   8.633724
    17  H    6.435133   5.061463   4.761909   5.997903   7.192474
    18  C    8.630131   7.309186   6.287349   6.885593   8.279548
    19  H    7.178785   5.990998   4.747969   5.037281   6.412527
    20  C    9.088358   7.713861   6.890845   7.702448   9.081416
    21  H    8.875554   7.492511   7.043776   8.150762   9.436715
    22  H    9.452371   8.171547   7.058080   7.498541   8.883652
    23  C   10.579926   9.202133   8.387304   9.175852  10.559941
    24  O   11.333515   9.979602   9.044615   9.689334  11.083233
    25  C   11.289869   9.898837   9.255412  10.187909  11.545163
    26  H   11.104836   9.720732   9.163750  10.159932  11.491351
    27  H   11.103905   9.719765   9.163015  10.159450  11.490846
    28  H   12.357786  10.967218  10.287923  11.177419  12.546183
    29  C    2.531651   3.818120   4.346954   3.826829   2.541472
    30  H    2.841775   4.162819   4.850460   4.474199   3.275437
    31  H    2.857487   4.172620   4.848546   4.461948   3.260107
    32  H    3.444503   4.603849   4.862939   4.043275   2.651583
                    6          7          8          9         10
     6  C    0.000000
     7  H    2.158218   0.000000
     8  H    3.420256   2.472125   0.000000
     9  H    3.419133   4.961822   4.305478   0.000000
    10  H    2.156093   4.298440   4.961626   2.472312   0.000000
    11  C    4.260443   4.608087   2.685151   2.683308   4.607024
    12  C    5.478318   5.714357   3.550773   3.546755   5.711912
    13  C    6.900564   7.054882   4.763784   4.752847   7.047589
    14  C    7.721382   7.503754   5.062017   5.993971   8.160544
    15  C    7.712325   8.162066   6.002144   5.040909   7.484854
    16  C    9.096645   8.887253   6.435949   7.183324   9.441778
    17  H    7.406211   6.905121   4.433010   6.170750   8.128855
    18  C    9.085646   9.444283   7.192998   6.409774   8.863393
    19  H    7.386206   8.119195   6.169596   4.404131   6.876440
    20  C    9.727355   9.788600   7.400200   7.381336   9.774478
    21  H    9.785180   9.365674   6.893570   8.114971  10.296571
    22  H    9.795985  10.316253   8.139486   6.895203   9.367513
    23  C   11.223702  11.264226   8.856233   8.809915  11.228024
    24  O   11.862922  12.085619   9.733665   9.200063  11.660983
    25  C   12.073466  11.866092   9.404243   9.939886  12.294378
    26  H   11.947230  11.630274   9.168764   9.981219  12.280031
    27  H   11.946488  11.629244   9.167641   9.980987  12.279708
    28  H   13.114599  12.948129  10.489161  10.878506  13.265111
    29  C    1.510462   2.727883   4.685009   4.696302   2.746826
    30  H    2.164061   2.767800   4.909994   5.373376   3.523606
    31  H    2.163693   2.798057   4.925608   5.356027   3.499307
    32  H    2.167368   3.790986   5.560800   4.721716   2.399076
                   11         12         13         14         15
    11  C    0.000000
    12  C    1.217876   0.000000
    13  C    2.640135   1.422265   0.000000
    14  C    3.574176   2.461851   1.410671   0.000000
    15  C    3.571908   2.463671   1.413502   2.429350   0.000000
    16  C    4.903842   3.734218   2.432180   1.391513   2.794334
    17  H    3.548356   2.681618   2.160315   1.085907   3.412977
    18  C    4.899194   3.732674   2.431763   2.794489   1.387825
    19  H    3.541022   2.681568   2.161771   3.411868   1.085989
    20  C    5.466951   4.249087   2.826822   2.432607   2.431006
    21  H    5.702864   4.596695   3.406809   2.136742   3.879857
    22  H    5.719964   4.615444   3.420365   3.879901   2.154681
    23  C    6.963497   5.745722   4.323548   3.820307   3.785026
    24  O    7.634915   6.433802   5.039886   4.802353   4.191955
    25  C    7.845822   6.645407   5.255183   4.385306   5.029293
    26  H    7.780954   6.612664   5.278939   4.285453   5.230359
    27  H    7.780248   6.611977   5.278293   4.284669   5.229943
    28  H    8.871347   7.662158   6.255305   5.455804   5.891318
    29  C    5.770862   6.988738   8.410994   9.214784   9.208274
    30  H    6.249230   7.453316   8.864618   9.592229   9.721705
    31  H    6.247091   7.451026   8.862180   9.594902   9.714147
    32  H    6.263179   7.467646   8.878160   9.800003   9.538354
                   16         17         18         19         20
    16  C    0.000000
    17  H    2.154018   0.000000
    18  C    2.419397   3.880389   0.000000
    19  H    3.880309   4.307880   2.151623   0.000000
    20  C    1.405705   3.416702   1.406794   3.415935   0.000000
    21  H    1.085623   2.460563   3.410666   4.965799   2.168444
    22  H    3.396634   4.965809   1.085550   2.491074   2.147280
    23  C    2.547189   4.698789   2.498554   4.649740   1.497314
    24  O    3.647790   5.762497   2.804446   4.846820   2.370198
    25  C    2.993939   5.011501   3.876763   5.990664   2.598560
    26  H    2.962175   4.780645   4.213668   6.230527   2.892444
    27  H    2.961444   4.779763   4.213432   6.230172   2.892095
    28  H    4.065237   6.102777   4.634993   6.784915   3.497173
    29  C   10.594579   8.859722  10.585545   8.844499  11.237796
    30  H   10.975100   9.173247  11.084605   9.408709  11.677669
    31  H   10.977017   9.180413  11.077597   9.397005  11.675047
    32  H   11.157487   9.544264  10.925910   9.058770  11.689827
                   21         22         23         24         25
    21  H    0.000000
    22  H    4.301365   0.000000
    23  C    2.782730   2.666158   0.000000
    24  O    3.998213   2.464282   1.225079   0.000000
    25  C    2.630848   4.177646   1.519764   2.385701   0.000000
    26  H    2.416536   4.644312   2.169701   3.109230   1.097109
    27  H    2.415645   4.644301   2.169884   3.109884   1.097075
    28  H    3.714942   4.721061   2.137589   2.490043   1.091706
    29  C   11.261685  11.276329  12.734163  13.367928  13.576010
    30  H   11.594173  11.807484  13.171261  13.843748  13.958715
    31  H   11.599188  11.797538  13.168422  13.837790  13.959635
    32  H   11.892353  11.534041  13.176797  13.728157  14.108913
                   26         27         28         29         30
    26  H    0.000000
    27  H    1.768566   0.000000
    28  H    1.785410   1.785473   0.000000
    29  C   13.436828  13.435779  14.620448   0.000000
    30  H   13.737048  13.847513  15.013008   1.097439   0.000000
    31  H   13.853003  13.737152  15.012955   1.097599   1.765618
    32  H   14.010448  14.012282  15.129691   1.094903   1.771867
                   31         32
    31  H    0.000000
    32  H    1.771610   0.000000
 Stoichiometry    C17H14O
 Framework group  C1[X(C17H14O)]
 Deg. of freedom    90
 Full point group                 C1      NOp   1
 Largest Abelian subgroup         C1      NOp   1
 Largest concise Abelian subgroup C1      NOp   1
                         Standard orientation:                         
 ---------------------------------------------------------------------
 Center     Atomic      Atomic             Coordinates (Angstroms)
 Number     Number       Type             X           Y           Z
 ---------------------------------------------------------------------
      1          6           0       -4.944059    1.218697   -0.000128
      2          6           0       -3.553001    1.220096    0.000069
      3          6           0       -2.836699    0.003981   -0.000273
      4          6           0       -3.563412   -1.202748   -0.000916
      5          6           0       -4.957291   -1.187969   -0.001148
      6          6           0       -5.673197    0.017585   -0.000575
      7          1           0       -5.477985    2.166956   -0.000089
      8          1           0       -3.005874    2.158505    0.000263
      9          1           0       -3.026431   -2.146924   -0.001486
     10          1           0       -5.498694   -2.131434   -0.001866
     11          6           0       -1.412804   -0.003014   -0.000224
     12          6           0       -0.194954   -0.010992   -0.000114
     13          6           0        1.227226   -0.026558    0.000005
     14          6           0        1.960396    1.178620   -0.000415
     15          6           0        1.934148   -1.250588    0.000467
     16          6           0        3.351748    1.157464   -0.000343
     17          1           0        1.427005    2.124500   -0.000819
     18          6           0        3.321928   -1.261749    0.000538
     19          1           0        1.377551   -2.183096    0.000797
     20          6           0        4.053846   -0.060348    0.000158
     21          1           0        3.887462    2.101703   -0.000676
     22          1           0        3.868570   -2.199620    0.000897
     23          6           0        5.549533   -0.130136    0.000194
     24          8           0        6.125918   -1.211154    0.000269
     25          6           0        6.345679    1.164404    0.000025
     26          1           0        6.111775    1.769413   -0.884792
     27          1           0        6.110844    1.770552    0.883773
     28          1           0        7.410169    0.922157    0.000657
     29          6           0       -7.183520    0.037991    0.001574
     30          1           0       -7.573786    0.581290   -0.868421
     31          1           0       -7.571175    0.541109    0.896738
     32          1           0       -7.600180   -0.974293   -0.020496
 ---------------------------------------------------------------------
 Rotational constants (GHZ):           2.2011043           0.1131684           0.1077789
 Standard basis: 6-31+G(d) (6D, 7F)
 There are   370 symmetry adapted cartesian basis functions of A   symmetry.
 There are   370 symmetry adapted basis functions of A   symmetry.
   370 basis functions,   632 primitive gaussians,   370 cartesian basis functions
    62 alpha electrons       62 beta electrons
       nuclear repulsion energy      1049.9998610343 Hartrees.
 NAtoms=   32 NActive=   32 NUniq=   32 SFac= 1.00D+00 NAtFMM=   60 NAOKFM=F Big=F
 Integral buffers will be    131072 words long.
 Raffenetti 2 integral format.
 Two-electron integral symmetry is turned on.
 Nuclear repulsion after empirical dispersion term =     1049.9765614397 Hartrees.
 One-electron integrals computed using PRISM.
 NBasis=   370 RedAO= T EigKep=  1.07D-06  NBF=   370
 NBsUse=   365 1.00D-06 EigRej=  8.52D-07 NBFU=   365
 ExpMin= 4.38D-02 ExpMax= 5.48D+03 ExpMxC= 8.25D+02 IAcc=3 IRadAn=         5 AccDes= 0.00D+00
 Harris functional with IExCor=  402 and IRadAn=       5 diagonalized for initial guess.
 HarFok:  IExCor=  402 AccDes= 0.00D+00 IRadAn=         5 IDoV= 1 UseB2=F ITyADJ=14
 ICtDFT=  3500011 ScaDFX=  1.000000  1.000000  1.000000  1.000000
 FoFCou: FMM=F IPFlag=           0 FMFlag=      100000 FMFlg1=           0
         NFxFlg=           0 DoJE=T BraDBF=F KetDBF=T FulRan=T
         wScrn=  0.000000 ICntrl=       500 IOpCl=  0 I1Cent=   200000004 NGrid=           0
         NMat0=    1 NMatS0=      1 NMatT0=    0 NMatD0=    1 NMtDS0=    0 NMtDT0=    0
 Petite list used in FoFCou.
 Requested convergence on RMS density matrix=1.00D-08 within 128 cycles.
 Requested convergence on MAX density matrix=1.00D-06.
 Requested convergence on             energy=1.00D-06.
 No special actions if energy rises.
 SCF Done:  E(RB3LYP) =  -731.478204037     A.U. after   15 cycles
            NFock= 15  Conv=0.95D-08     -V/T= 2.0099

 **********************************************************************

            Population analysis using the SCF Density.

 **********************************************************************

 Orbital symmetries:
       Occupied  (A) (A) (A) (A) (A) (A) (A) (A) (A) (A) (A) (A)
                 (A) (A) (A) (A) (A) (A) (A) (A) (A) (A) (A) (A)
                 (A) (A) (A) (A) (A) (A) (A) (A) (A) (A) (A) (A)
                 (A) (A) (A) (A) (A) (A) (A) (A) (A) (A) (A) (A)
                 (A) (A) (A) (A) (A) (A) (A) (A) (A) (A) (A) (A)
                 (A) (A)
       Virtual   (A) (A) (A) (A) (A) (A) (A) (A) (A) (A) (A) (A)
                 (A) (A) (A) (A) (A) (A) (A) (A) (A) (A) (A) (A)
                 (A) (A) (A) (A) (A) (A) (A) (A) (A) (A) (A) (A)
                 (A) (A) (A) (A) (A) (A) (A) (A) (A) (A) (A) (A)
                 (A) (A) (A) (A) (A) (A) (A) (A) (A) (A) (A) (A)
                 (A) (A) (A) (A) (A) (A) (A) (A) (A) (A) (A) (A)
                 (A) (A) (A) (A) (A) (A) (A) (A) (A) (A) (A) (A)
                 (A) (A) (A) (A) (A) (A) (A) (A) (A) (A) (A) (A)
                 (A) (A) (A) (A) (A) (A) (A) (A) (A) (A) (A) (A)
                 (A) (A) (A) (A) (A) (A) (A) (A) (A) (A) (A) (A)
                 (A) (A) (A) (A) (A) (A) (A) (A) (A) (A) (A) (A)
                 (A) (A) (A) (A) (A) (A) (A) (A) (A) (A) (A) (A)
                 (A) (A) (A) (A) (A) (A) (A) (A) (A) (A) (A) (A)
                 (A) (A) (A) (A) (A) (A) (A) (A) (A) (A) (A) (A)
                 (A) (A) (A) (A) (A) (A) (A) (A) (A) (A) (A) (A)
                 (A) (A) (A) (A) (A) (A) (A) (A) (A) (A) (A) (A)
                 (A) (A) (A) (A) (A) (A) (A) (A) (A) (A) (A) (A)
                 (A) (A) (A) (A) (A) (A) (A) (A) (A) (A) (A) (A)
                 (A) (A) (A) (A) (A) (A) (A) (A) (A) (A) (A) (A)
                 (A) (A) (A) (A) (A) (A) (A) (A) (A) (A) (A) (A)
                 (A) (A) (A) (A) (A) (A) (A) (A) (A) (A) (A) (A)
                 (A) (A) (A) (A) (A) (A) (A) (A) (A) (A) (A) (A)
                 (A) (A) (A) (A) (A) (A) (A) (A) (A) (A) (A) (A)
                 (A) (A) (A) (A) (A) (A) (A) (A) (A) (A) (A) (A)
                 (A) (A) (A) (A) (A) (A) (A) (A) (A) (A) (A) (A)
                 (A) (A) (A)
 The electronic state is 1-A.
 Alpha  occ. eigenvalues --  -19.14760 -10.28593 -10.23707 -10.22775 -10.21731
 Alpha  occ. eigenvalues --  -10.21668 -10.21394 -10.21368 -10.21180 -10.21058
 Alpha  occ. eigenvalues --  -10.21013 -10.20879 -10.20670 -10.20525 -10.20508
 Alpha  occ. eigenvalues --  -10.20305 -10.19793 -10.19659  -1.04454  -0.88092
 Alpha  occ. eigenvalues --   -0.87658  -0.81305  -0.79735  -0.76838  -0.76160
 Alpha  occ. eigenvalues --   -0.75535  -0.73702  -0.70169  -0.65325  -0.62523
 Alpha  occ. eigenvalues --   -0.62346  -0.60968  -0.56445  -0.55833  -0.53373
 Alpha  occ. eigenvalues --   -0.48711  -0.48142  -0.47815  -0.47531  -0.46113
 Alpha  occ. eigenvalues --   -0.45072  -0.44038  -0.43994  -0.43556  -0.43365
 Alpha  occ. eigenvalues --   -0.42481  -0.40922  -0.40177  -0.39872  -0.38254
 Alpha  occ. eigenvalues --   -0.38252  -0.36751  -0.36606  -0.36271  -0.35709
 Alpha  occ. eigenvalues --   -0.32354  -0.28281  -0.27911  -0.27270  -0.26835
 Alpha  occ. eigenvalues --   -0.25931  -0.22437
 Alpha virt. eigenvalues --   -0.08351  -0.03477  -0.02614  -0.02381  -0.00270
 Alpha virt. eigenvalues --    0.00285   0.01255   0.01453   0.01692   0.02733
 Alpha virt. eigenvalues --    0.02926   0.03580   0.04287   0.04383   0.04394
 Alpha virt. eigenvalues --    0.04777   0.05125   0.05705   0.06050   0.06202
 Alpha virt. eigenvalues --    0.06708   0.07603   0.07666   0.08139   0.08530
 Alpha virt. eigenvalues --    0.08775   0.08911   0.09967   0.10131   0.10530
 Alpha virt. eigenvalues --    0.10671   0.11609   0.11646   0.12566   0.13085
 Alpha virt. eigenvalues --    0.13125   0.13587   0.14159   0.14535   0.14673
 Alpha virt. eigenvalues --    0.14775   0.15210   0.15427   0.15519   0.16177
 Alpha virt. eigenvalues --    0.16754   0.17463   0.17521   0.18322   0.18346
 Alpha virt. eigenvalues --    0.18591   0.19084   0.19708   0.20084   0.20597
 Alpha virt. eigenvalues --    0.20789   0.21196   0.21568   0.21825   0.22162
 Alpha virt. eigenvalues --    0.22237   0.22838   0.23642   0.23799   0.23947
 Alpha virt. eigenvalues --    0.24125   0.24203   0.25108   0.25356   0.25529
 Alpha virt. eigenvalues --    0.25944   0.26058   0.26642   0.26967   0.27785
 Alpha virt. eigenvalues --    0.28448   0.28862   0.29327   0.29830   0.30142
 Alpha virt. eigenvalues --    0.30370   0.31029   0.31505   0.31797   0.32174
 Alpha virt. eigenvalues --    0.33238   0.33630   0.33984   0.34407   0.34539
 Alpha virt. eigenvalues --    0.35160   0.37086   0.38016   0.38334   0.38911
 Alpha virt. eigenvalues --    0.40393   0.41503   0.41798   0.43198   0.44250
 Alpha virt. eigenvalues --    0.44750   0.47963   0.49952   0.51651   0.56302
 Alpha virt. eigenvalues --    0.58288   0.59263   0.59694   0.63617   0.64662
 Alpha virt. eigenvalues --    0.65443   0.66229   0.66326   0.66415   0.68123
 Alpha virt. eigenvalues --    0.68822   0.69709   0.70197   0.70352   0.70845
 Alpha virt. eigenvalues --    0.71218   0.71739   0.71953   0.73190   0.73229
 Alpha virt. eigenvalues --    0.73910   0.74603   0.74800   0.75287   0.76576
 Alpha virt. eigenvalues --    0.76867   0.78026   0.78061   0.78666   0.79394
 Alpha virt. eigenvalues --    0.79935   0.79953   0.80472   0.82230   0.83220
 Alpha virt. eigenvalues --    0.83400   0.84674   0.85442   0.85841   0.87376
 Alpha virt. eigenvalues --    0.90301   0.91766   0.92698   0.94159   0.94646
 Alpha virt. eigenvalues --    0.94811   0.96492   0.97061   0.98144   0.99097
 Alpha virt. eigenvalues --    0.99344   1.01499   1.03946   1.04928   1.05890
 Alpha virt. eigenvalues --    1.06760   1.08508   1.10923   1.12701   1.12987
 Alpha virt. eigenvalues --    1.14277   1.15752   1.16611   1.17850   1.19099
 Alpha virt. eigenvalues --    1.19430   1.20010   1.21898   1.22661   1.23206
 Alpha virt. eigenvalues --    1.23465   1.24274   1.25047   1.26538   1.26560
 Alpha virt. eigenvalues --    1.28655   1.29889   1.31852   1.33005   1.33438
 Alpha virt. eigenvalues --    1.34030   1.36790   1.37974   1.38331   1.39707
 Alpha virt. eigenvalues --    1.41616   1.42368   1.43657   1.44578   1.44661
 Alpha virt. eigenvalues --    1.44991   1.45739   1.46525   1.49131   1.49702
 Alpha virt. eigenvalues --    1.52653   1.54472   1.55532   1.56885   1.57289
 Alpha virt. eigenvalues --    1.60055   1.70616   1.71637   1.74910   1.75778
 Alpha virt. eigenvalues --    1.76528   1.81566   1.82404   1.83018   1.85442
 Alpha virt. eigenvalues --    1.85742   1.86037   1.87754   1.89759   1.89840
 Alpha virt. eigenvalues --    1.90229   1.91322   1.91660   1.92676   1.97777
 Alpha virt. eigenvalues --    1.97989   1.98693   2.00485   2.03116   2.05505
 Alpha virt. eigenvalues --    2.06710   2.08557   2.10050   2.10108   2.10893
 Alpha virt. eigenvalues --    2.13096   2.13470   2.14725   2.16210   2.18226
 Alpha virt. eigenvalues --    2.18918   2.22008   2.23271   2.24322   2.26204
 Alpha virt. eigenvalues --    2.27455   2.29658   2.29911   2.30486   2.32332
 Alpha virt. eigenvalues --    2.34068   2.35364   2.38042   2.41187   2.42938
 Alpha virt. eigenvalues --    2.44338   2.46856   2.50457   2.52573   2.56006
 Alpha virt. eigenvalues --    2.57879   2.59961   2.62356   2.63301   2.63524
 Alpha virt. eigenvalues --    2.65372   2.67164   2.70659   2.74899   2.76160
 Alpha virt. eigenvalues --    2.79610   2.80078   2.85546   2.88100   2.91488
 Alpha virt. eigenvalues --    2.91490   2.96987   3.01950   3.02826   3.10949
 Alpha virt. eigenvalues --    3.19762   3.28861   3.33702   3.40765   3.60070
 Alpha virt. eigenvalues --    4.19789   4.21290   4.22714   4.23380   4.24613
 Alpha virt. eigenvalues --    4.25491   4.29142   4.32095   4.33782   4.39128
 Alpha virt. eigenvalues --    4.39657   4.40778   4.44044   4.54991   4.61826
 Alpha virt. eigenvalues --    4.68017   4.78274   4.99377
          Condensed to atoms (all electrons):
               1          2          3          4          5          6
     1  C    7.444313  -1.542198   0.250573  -0.328482   0.046089   0.388400
     2  C   -1.542198  10.205874  -0.437755  -0.771516  -1.616368  -0.367666
     3  C    0.250573  -0.437755   6.432526   0.273984   0.163215   0.132842
     4  C   -0.328482  -0.771516   0.273984   6.563303   0.392353  -0.061008
     5  C    0.046089  -1.616368   0.163215   0.392353   7.345712   0.041626
     6  C    0.388400  -0.367666   0.132842  -0.061008   0.041626   7.251908
     7  H    0.272676  -0.117262   0.030989   0.000477   0.063289   0.057892
     8  H   -0.109504   0.373615  -0.030467   0.020207  -0.007852   0.006208
     9  H   -0.008546   0.023496  -0.017928   0.348467  -0.095965  -0.002520
    10  H    0.030797  -0.001652   0.036623  -0.066674   0.280772   0.042258
    11  C   -0.113053   0.187744  -0.094741  -0.174816   0.036016  -0.151694
    12  C    0.011715  -0.095125  -0.486151  -0.059586   0.018973  -0.136683
    13  C    0.068810  -0.084990   0.169337   0.012971   0.026318   0.040225
    14  C   -0.015995  -0.027144  -0.060163   0.036743   0.009793  -0.000088
    15  C    0.030681   0.010311  -0.118488   0.026137  -0.019269  -0.004714
    16  C   -0.031266  -0.003122   0.059952  -0.014605   0.003094   0.002421
    17  H   -0.000224   0.001991  -0.000561  -0.000059   0.000000   0.000017
    18  C   -0.020363   0.034886   0.139510  -0.077236  -0.007466   0.004813
    19  H    0.000026  -0.000183  -0.000413   0.002596   0.000028   0.000029
    20  C    0.004726  -0.011254   0.036575   0.008221  -0.000072   0.002010
    21  H    0.000008   0.000095  -0.000147  -0.000029  -0.000002   0.000000
    22  H   -0.000003  -0.000018  -0.000045   0.000027   0.000006   0.000000
    23  C    0.000449  -0.001040   0.011390   0.001189  -0.000180   0.000170
    24  O    0.000000  -0.000005   0.000016   0.000011   0.000000   0.000000
    25  C   -0.000073  -0.000055   0.000112  -0.000123   0.000002   0.000003
    26  H    0.000000   0.000001  -0.000001   0.000000   0.000000   0.000000
    27  H    0.000000   0.000001   0.000000   0.000000   0.000000   0.000000
    28  H    0.000000   0.000000   0.000000   0.000000   0.000000   0.000000
    29  C   -0.183142   0.023199  -0.461534   0.105954   0.058020  -1.268987
    30  H   -0.028674   0.004137  -0.002250   0.000976   0.021448  -0.094252
    31  H   -0.031711   0.003107  -0.002201   0.001561   0.021219  -0.087477
    32  H    0.020487  -0.009579  -0.004041   0.002308  -0.009232  -0.156331
               7          8          9         10         11         12
     1  C    0.272676  -0.109504  -0.008546   0.030797  -0.113053   0.011715
     2  C   -0.117262   0.373615   0.023496  -0.001652   0.187744  -0.095125
     3  C    0.030989  -0.030467  -0.017928   0.036623  -0.094741  -0.486151
     4  C    0.000477   0.020207   0.348467  -0.066674  -0.174816  -0.059586
     5  C    0.063289  -0.007852  -0.095965   0.280772   0.036016   0.018973
     6  C    0.057892   0.006208  -0.002520   0.042258  -0.151694  -0.136683
     7  H    0.541378  -0.004321   0.000018  -0.000164  -0.006591   0.001612
     8  H   -0.004321   0.527326  -0.000154   0.000017   0.030281   0.000010
     9  H    0.000018  -0.000154   0.526224  -0.004330   0.033254  -0.000619
    10  H   -0.000164   0.000017  -0.004330   0.541874  -0.006703   0.001039
    11  C   -0.006591   0.030281   0.033254  -0.006703   6.553595   0.477858
    12  C    0.001612   0.000010  -0.000619   0.001039   0.477858   6.611403
    13  C   -0.000222  -0.001974  -0.000280  -0.000178  -0.487801  -0.156008
    14  C    0.000083   0.002534   0.000130  -0.000042   0.051698  -0.082502
    15  C   -0.000029  -0.000155   0.002114   0.000101   0.059974   0.158723
    16  C    0.000008   0.000335   0.000047  -0.000003  -0.088586   0.038261
    17  H    0.000000   0.000002   0.000000   0.000000   0.002605   0.025493
    18  C   -0.000001   0.000070   0.000484   0.000004  -0.171037  -0.102796
    19  H    0.000000   0.000000   0.000002   0.000000  -0.005511   0.029897
    20  C   -0.000001  -0.000036  -0.000023   0.000000  -0.142521  -0.249941
    21  H    0.000000   0.000000   0.000000   0.000000   0.001347  -0.006948
    22  H    0.000000   0.000000   0.000000   0.000000   0.000439  -0.004602
    23  C    0.000000  -0.000003  -0.000002   0.000000  -0.049656   0.093145
    24  O    0.000000   0.000000   0.000000   0.000000  -0.000257   0.000417
    25  C    0.000000   0.000000   0.000000   0.000000  -0.001516  -0.005559
    26  H    0.000000   0.000000   0.000000   0.000000  -0.000001   0.000101
    27  H    0.000000   0.000000   0.000000   0.000000  -0.000001   0.000103
    28  H    0.000000   0.000000   0.000000   0.000000  -0.000005  -0.000053
    29  C   -0.022027   0.000928   0.001656  -0.037168   0.086606  -0.052004
    30  H    0.001001  -0.000002   0.000002   0.000108   0.000511  -0.000029
    31  H    0.000904  -0.000001   0.000002   0.000117   0.000486  -0.000030
    32  H    0.000071   0.000002  -0.000006   0.004396   0.000232  -0.000019
              13         14         15         16         17         18
     1  C    0.068810  -0.015995   0.030681  -0.031266  -0.000224  -0.020363
     2  C   -0.084990  -0.027144   0.010311  -0.003122   0.001991   0.034886
     3  C    0.169337  -0.060163  -0.118488   0.059952  -0.000561   0.139510
     4  C    0.012971   0.036743   0.026137  -0.014605  -0.000059  -0.077236
     5  C    0.026318   0.009793  -0.019269   0.003094   0.000000  -0.007466
     6  C    0.040225  -0.000088  -0.004714   0.002421   0.000017   0.004813
     7  H   -0.000222   0.000083  -0.000029   0.000008   0.000000  -0.000001
     8  H   -0.001974   0.002534  -0.000155   0.000335   0.000002   0.000070
     9  H   -0.000280   0.000130   0.002114   0.000047   0.000000   0.000484
    10  H   -0.000178  -0.000042   0.000101  -0.000003   0.000000   0.000004
    11  C   -0.487801   0.051698   0.059974  -0.088586   0.002605  -0.171037
    12  C   -0.156008  -0.082502   0.158723   0.038261   0.025493  -0.102796
    13  C    7.229345   0.459758  -0.755843  -0.193886  -0.025061   0.409862
    14  C    0.459758   8.385243   0.596860   0.515075   0.300706  -2.547536
    15  C   -0.755843   0.596860  12.869979  -3.057078   0.001530  -3.311673
    16  C   -0.193886   0.515075  -3.057078   9.555329  -0.041345  -0.341170
    17  H   -0.025061   0.300706   0.001530  -0.041345   0.521947   0.011602
    18  C    0.409862  -2.547536  -3.311673  -0.341170   0.011602  11.697024
    19  H   -0.045172   0.020279   0.396025  -0.015451  -0.000143  -0.105411
    20  C   -0.185962  -0.789104  -1.707929   0.696108   0.008183  -0.385671
    21  H    0.045610  -0.070131   0.014590   0.235077  -0.004220   0.037876
    22  H    0.046754  -0.016281  -0.203018   0.017217   0.000014   0.469571
    23  C   -0.646678  -0.051926   1.338348  -0.269026   0.000257  -0.093246
    24  O    0.003736  -0.011468   0.157801  -0.101668   0.000033   0.117773
    25  C    0.035414  -0.136227  -0.197825  -0.175058   0.001807   0.189492
    26  H    0.002663   0.034270  -0.001961   0.053741  -0.000002  -0.031096
    27  H    0.002629   0.034346  -0.001929   0.053614  -0.000002  -0.031146
    28  H   -0.000233  -0.005121  -0.005055  -0.017084   0.000000  -0.011484
    29  C    0.011628  -0.000319   0.000040   0.000236  -0.000001   0.000202
    30  H   -0.000001   0.000000   0.000001   0.000000   0.000000   0.000000
    31  H    0.000000   0.000000   0.000001   0.000000   0.000000   0.000000
    32  H    0.000008   0.000000  -0.000001   0.000000   0.000000   0.000000
              19         20         21         22         23         24
     1  C    0.000026   0.004726   0.000008  -0.000003   0.000449   0.000000
     2  C   -0.000183  -0.011254   0.000095  -0.000018  -0.001040  -0.000005
     3  C   -0.000413   0.036575  -0.000147  -0.000045   0.011390   0.000016
     4  C    0.002596   0.008221  -0.000029   0.000027   0.001189   0.000011
     5  C    0.000028  -0.000072  -0.000002   0.000006  -0.000180   0.000000
     6  C    0.000029   0.002010   0.000000   0.000000   0.000170   0.000000
     7  H    0.000000  -0.000001   0.000000   0.000000   0.000000   0.000000
     8  H    0.000000  -0.000036   0.000000   0.000000  -0.000003   0.000000
     9  H    0.000002  -0.000023   0.000000   0.000000  -0.000002   0.000000
    10  H    0.000000   0.000000   0.000000   0.000000   0.000000   0.000000
    11  C   -0.005511  -0.142521   0.001347   0.000439  -0.049656  -0.000257
    12  C    0.029897  -0.249941  -0.006948  -0.004602   0.093145   0.000417
    13  C   -0.045172  -0.185962   0.045610   0.046754  -0.646678   0.003736
    14  C    0.020279  -0.789104  -0.070131  -0.016281  -0.051926  -0.011468
    15  C    0.396025  -1.707929   0.014590  -0.203018   1.338348   0.157801
    16  C   -0.015451   0.696108   0.235077   0.017217  -0.269026  -0.101668
    17  H   -0.000143   0.008183  -0.004220   0.000014   0.000257   0.000033
    18  C   -0.105411  -0.385671   0.037876   0.469571  -0.093246   0.117773
    19  H    0.519080   0.006407   0.000016  -0.003705   0.003548   0.000132
    20  C    0.006407  11.229489   0.059085   0.007031  -3.153952  -0.415090
    21  H    0.000016   0.059085   0.537542  -0.000139  -0.034699  -0.000367
    22  H   -0.003705   0.007031  -0.000139   0.488630  -0.045904   0.006354
    23  C    0.003548  -3.153952  -0.034699  -0.045904   9.279429   0.478102
    24  O    0.000132  -0.415090  -0.000367   0.006354   0.478102   8.279258
    25  C   -0.000029   0.152905   0.001650   0.014619  -1.164535  -0.081555
    26  H    0.000000  -0.023087  -0.000963  -0.000003  -0.101271   0.002975
    27  H    0.000000  -0.023027  -0.000961  -0.000003  -0.101350   0.002993
    28  H    0.000000   0.081214   0.000104  -0.000007  -0.166737   0.001448
    29  C   -0.000001   0.000192   0.000000   0.000000   0.000008   0.000000
    30  H    0.000000   0.000000   0.000000   0.000000   0.000000   0.000000
    31  H    0.000000   0.000000   0.000000   0.000000   0.000000   0.000000
    32  H    0.000000   0.000000   0.000000   0.000000   0.000000   0.000000
              25         26         27         28         29         30
     1  C   -0.000073   0.000000   0.000000   0.000000  -0.183142  -0.028674
     2  C   -0.000055   0.000001   0.000001   0.000000   0.023199   0.004137
     3  C    0.000112  -0.000001   0.000000   0.000000  -0.461534  -0.002250
     4  C   -0.000123   0.000000   0.000000   0.000000   0.105954   0.000976
     5  C    0.000002   0.000000   0.000000   0.000000   0.058020   0.021448
     6  C    0.000003   0.000000   0.000000   0.000000  -1.268987  -0.094252
     7  H    0.000000   0.000000   0.000000   0.000000  -0.022027   0.001001
     8  H    0.000000   0.000000   0.000000   0.000000   0.000928  -0.000002
     9  H    0.000000   0.000000   0.000000   0.000000   0.001656   0.000002
    10  H    0.000000   0.000000   0.000000   0.000000  -0.037168   0.000108
    11  C   -0.001516  -0.000001  -0.000001  -0.000005   0.086606   0.000511
    12  C   -0.005559   0.000101   0.000103  -0.000053  -0.052004  -0.000029
    13  C    0.035414   0.002663   0.002629  -0.000233   0.011628  -0.000001
    14  C   -0.136227   0.034270   0.034346  -0.005121  -0.000319   0.000000
    15  C   -0.197825  -0.001961  -0.001929  -0.005055   0.000040   0.000001
    16  C   -0.175058   0.053741   0.053614  -0.017084   0.000236   0.000000
    17  H    0.001807  -0.000002  -0.000002   0.000000  -0.000001   0.000000
    18  C    0.189492  -0.031096  -0.031146  -0.011484   0.000202   0.000000
    19  H   -0.000029   0.000000   0.000000   0.000000  -0.000001   0.000000
    20  C    0.152905  -0.023087  -0.023027   0.081214   0.000192   0.000000
    21  H    0.001650  -0.000963  -0.000961   0.000104   0.000000   0.000000
    22  H    0.014619  -0.000003  -0.000003  -0.000007   0.000000   0.000000
    23  C   -1.164535  -0.101271  -0.101350  -0.166737   0.000008   0.000000
    24  O   -0.081555   0.002975   0.002993   0.001448   0.000000   0.000000
    25  C    6.991236   0.398311   0.398429   0.470086   0.000000   0.000000
    26  H    0.398311   0.489952  -0.029914  -0.021368   0.000000   0.000000
    27  H    0.398429  -0.029914   0.489975  -0.021373   0.000000   0.000000
    28  H    0.470086  -0.021368  -0.021373   0.453488   0.000000   0.000000
    29  C    0.000000   0.000000   0.000000   0.000000   7.107522   0.429583
    30  H    0.000000   0.000000   0.000000   0.000000   0.429583   0.500153
    31  H    0.000000   0.000000   0.000000   0.000000   0.426092  -0.032353
    32  H    0.000000   0.000000   0.000000   0.000000   0.495002  -0.025718
              31         32
     1  C   -0.031711   0.020487
     2  C    0.003107  -0.009579
     3  C   -0.002201  -0.004041
     4  C    0.001561   0.002308
     5  C    0.021219  -0.009232
     6  C   -0.087477  -0.156331
     7  H    0.000904   0.000071
     8  H   -0.000001   0.000002
     9  H    0.000002  -0.000006
    10  H    0.000117   0.004396
    11  C    0.000486   0.000232
    12  C   -0.000030  -0.000019
    13  C    0.000000   0.000008
    14  C    0.000000   0.000000
    15  C    0.000001  -0.000001
    16  C    0.000000   0.000000
    17  H    0.000000   0.000000
    18  C    0.000000   0.000000
    19  H    0.000000   0.000000
    20  C    0.000000   0.000000
    21  H    0.000000   0.000000
    22  H    0.000000   0.000000
    23  C    0.000000   0.000000
    24  O    0.000000   0.000000
    25  C    0.000000   0.000000
    26  H    0.000000   0.000000
    27  H    0.000000   0.000000
    28  H    0.000000   0.000000
    29  C    0.426092   0.495002
    30  H   -0.032353  -0.025718
    31  H    0.499606  -0.025811
    32  H   -0.025811   0.501013
 Mulliken charges:
               1
     1  C   -0.156515
     2  C    0.218474
     3  C   -0.020759
     4  C   -0.243348
     5  C   -0.771564
     6  C    0.360601
     7  H    0.180221
     8  H    0.192932
     9  H    0.194479
    10  H    0.178806
    11  C   -0.028157
    12  C   -0.030094
    13  C    0.019219
    14  C   -0.633474
    15  C   -0.278249
    16  C   -0.881167
    17  H    0.195431
    18  C    0.124164
    19  H    0.197953
    20  C    0.795525
    21  H    0.185606
    22  H    0.223066
    23  C    0.674170
    24  O   -0.440640
    25  C   -0.891510
    26  H    0.227652
    27  H    0.227617
    28  H    0.242182
    29  C   -0.721686
    30  H    0.225357
    31  H    0.226490
    32  H    0.207220
 Sum of Mulliken charges =   0.00000
 Mulliken charges with hydrogens summed into heavy atoms:
               1
     1  C    0.023705
     2  C    0.411406
     3  C   -0.020759
     4  C   -0.048869
     5  C   -0.592758
     6  C    0.360601
    11  C   -0.028157
    12  C   -0.030094
    13  C    0.019219
    14  C   -0.438043
    15  C   -0.080296
    16  C   -0.695561
    18  C    0.347229
    20  C    0.795525
    23  C    0.674170
    24  O   -0.440640
    25  C   -0.194059
    29  C   -0.062619
 Electronic spatial extent (au):  <R**2>=           9432.2006
 Charge=              0.0000 electrons
 Dipole moment (field-independent basis, Debye):
    X=             -3.8101    Y=              2.5201    Z=              0.0027  Tot=              4.5681
 Quadrupole moment (field-independent basis, Debye-Ang):
   XX=           -102.9882   YY=            -97.9393   ZZ=           -111.2388
   XY=             16.1826   XZ=             -0.0236   YZ=              0.0007
 Traceless Quadrupole moment (field-independent basis, Debye-Ang):
   XX=              1.0673   YY=              6.1161   ZZ=             -7.1834
   XY=             16.1826   XZ=             -0.0236   YZ=              0.0007
 Octapole moment (field-independent basis, Debye-Ang**2):
  XXX=           -230.1307  YYY=             -0.8072  ZZZ=              0.0540  XYY=            -13.7263
  XXY=            107.4311  XXZ=              0.1246  XZZ=             17.6095  YZZ=              0.1607
  YYZ=             -0.0426  XYZ=             -0.0192
 Hexadecapole moment (field-independent basis, Debye-Ang**3):
 XXXX=         -12148.8616 YYYY=           -722.3605 ZZZZ=           -145.7018 XXXY=            639.1670
 XXXZ=             -1.0063 YYYX=              5.7754 YYYZ=             -0.0038 ZZZX=             -0.3980
 ZZZY=              0.0029 XXYY=          -2128.4050 XXZZ=          -2113.7620 YYZZ=           -164.1176
 XXYZ=              0.0501 YYXZ=              0.3227 ZZXY=             -7.2475
 N-N= 1.049976561440D+03 E-N=-3.794690103282D+03  KE= 7.243176228987D+02
 Evaluate density.
 Using the total density.
 Monte-Carlo method of calculating molar volume:
 based on  0.001 e/bohr**3 density envelope.
 Number of points per bohr**3 =   20 CutOff= 1.00D-04
 Using the SCF density.
 There are       414 points.  Will hold       414 in memory.
 LenV=  4026239734 MDV=  4026531840.
 Box volume = 8908.751 fraction occupied=0.244
 Integrated density= 1.2658007287685732D+02 error= 2.5800728768573151D+00
 Molar volume = 2173.391 bohr**3/mol (193.951 cm**3/mol)
 Recommended a0 for SCRF calculation =  5.18 angstrom (  9.79 bohr)
 Calling FoFJK, ICntrl=      2127 FMM=F ISym2X=0 I1Cent= 0 IOpClX= 0 NMat=1 NMatS=1 NMatT=0.
 ***** Axes restored to original set *****
 -------------------------------------------------------------------
 Center     Atomic                   Forces (Hartrees/Bohr)
 Number     Number              X              Y              Z
 -------------------------------------------------------------------
      1        6          -0.000026681   -0.000022038    0.000000801
      2        6           0.000042773   -0.000009335    0.000001271
      3        6          -0.000038327   -0.000005438   -0.000001718
      4        6           0.000036600    0.000024659    0.000000973
      5        6          -0.000037053    0.000008243   -0.000002209
      6        6          -0.000017612    0.000043615    0.000001497
      7        1           0.000018313   -0.000005868    0.000000418
      8        1          -0.000001280    0.000006287   -0.000000028
      9        1           0.000002120   -0.000005224    0.000000237
     10        1           0.000021970   -0.000006815    0.000000092
     11        6          -0.000059945    0.000002510   -0.000001089
     12        6           0.000060764   -0.000000236   -0.000002117
     13        6           0.000030865   -0.000004658    0.000006462
     14        6          -0.000041456   -0.000030158    0.000000132
     15        6          -0.000026086    0.000009659   -0.000003366
     16        6           0.000026111   -0.000002276   -0.000004468
     17        1          -0.000000774    0.000003543   -0.000000524
     18        6           0.000020245    0.000023169   -0.000001382
     19        1           0.000003942   -0.000007088    0.000001139
     20        6          -0.000000767    0.000005139    0.000005008
     21        1          -0.000001343    0.000004807    0.000000937
     22        1          -0.000013571    0.000004100    0.000000390
     23        6           0.000001216    0.000027657   -0.000004850
     24        8           0.000006575   -0.000014221   -0.000002109
     25        6           0.000055657   -0.000047778    0.000023594
     26        1          -0.000032666    0.000011178   -0.000020650
     27        1          -0.000034594    0.000012172    0.000005902
     28        1           0.000005607    0.000002672   -0.000003573
     29        6           0.000032814   -0.000041603    0.000006524
     30        1           0.000001339    0.000000948   -0.000000964
     31        1          -0.000003895    0.000005546   -0.000002778
     32        1          -0.000030860    0.000006830   -0.000003554
 -------------------------------------------------------------------
 Cartesian Forces:  Max     0.000060764 RMS     0.000020126

 GradGradGradGradGradGradGradGradGradGradGradGradGradGradGradGradGradGrad
 Berny optimization.
 FormGI is forming the generalized inverse of G from B-inverse, IUseBI=4.
 Internal  Forces:  Max     0.000133582 RMS     0.000027178
 Search for a local minimum.
 Step number   1 out of a maximum of  166
 All quantities printed in internal units (Hartrees-Bohrs-Radians)
 Mixed Optimization -- En-DIIS/RFO-DIIS
 Second derivative matrix not updated -- first step.
 ITU=  0
     Eigenvalues ---    0.00230   0.00505   0.00624   0.00628   0.00801
     Eigenvalues ---    0.01026   0.01374   0.01487   0.01637   0.01794
     Eigenvalues ---    0.01879   0.01957   0.01979   0.02042   0.02048
     Eigenvalues ---    0.02052   0.02060   0.02090   0.02093   0.02100
     Eigenvalues ---    0.02102   0.02123   0.02130   0.02134   0.02152
     Eigenvalues ---    0.03778   0.04498   0.07049   0.07145   0.07149
     Eigenvalues ---    0.07319   0.16000   0.16000   0.16000   0.16000
     Eigenvalues ---    0.16000   0.16000   0.16000   0.16000   0.16000
     Eigenvalues ---    0.16000   0.16000   0.16000   0.16000   0.16000
     Eigenvalues ---    0.22000   0.22000   0.22957   0.22958   0.24000
     Eigenvalues ---    0.24000   0.25000   0.25000   0.25000   0.25000
     Eigenvalues ---    0.25000   0.25000   0.30389   0.31304   0.32661
     Eigenvalues ---    0.33949   0.33967   0.34004   0.34008   0.34252
     Eigenvalues ---    0.34616   0.35017   0.35072   0.35249   0.35256
     Eigenvalues ---    0.35280   0.35290   0.35323   0.35332   0.40605
     Eigenvalues ---    0.40935   0.41382   0.41407   0.41877   0.42121
     Eigenvalues ---    0.44115   0.44220   0.44467   0.44566   0.45697
     Eigenvalues ---    0.45764   0.46917   0.47422   0.93168   0.96330
 RFO step:  Lambda=-1.58830202D-06 EMin= 2.30000000D-03
 Linear search not attempted -- first point.
 Iteration  1 RMS(Cart)=  0.01121861 RMS(Int)=  0.00001504
 Iteration  2 RMS(Cart)=  0.00005420 RMS(Int)=  0.00000008
 Iteration  3 RMS(Cart)=  0.00000000 RMS(Int)=  0.00000008
 Variable       Old X    -DE/DX   Delta X   Delta X   Delta X     New X
                                 (Linear)    (Quad)   (Total)
    R1        2.62872   0.00000   0.00000  -0.00001  -0.00001   2.62871
    R2        2.65526   0.00002   0.00000   0.00005   0.00005   2.65531
    R3        2.05648   0.00000   0.00000  -0.00001  -0.00001   2.05647
    R4        2.66714  -0.00003   0.00000  -0.00006  -0.00006   2.66708
    R5        2.05273  -0.00001   0.00000  -0.00002  -0.00002   2.05272
    R6        2.66197   0.00001   0.00000   0.00001   0.00001   2.66198
    R7        2.69080   0.00000   0.00000   0.00000   0.00000   2.69080
    R8        2.63420   0.00004   0.00000   0.00010   0.00010   2.63430
    R9        2.05261   0.00000   0.00000  -0.00001  -0.00001   2.05260
   R10        2.64958   0.00003   0.00000   0.00007   0.00007   2.64966
   R11        2.05559  -0.00002   0.00000  -0.00005  -0.00005   2.05554
   R12        2.85436   0.00000   0.00000   0.00000   0.00000   2.85436
   R13        2.30145   0.00006   0.00000   0.00006   0.00006   2.30151
   R14        2.68769   0.00000   0.00000   0.00000   0.00000   2.68769
   R15        2.66578  -0.00002   0.00000  -0.00004  -0.00004   2.66574
   R16        2.67113   0.00001   0.00000   0.00003   0.00003   2.67116
   R17        2.62958   0.00000   0.00000  -0.00001  -0.00001   2.62957
   R18        2.05207   0.00000   0.00000  -0.00001  -0.00001   2.05206
   R19        2.62261   0.00003   0.00000   0.00008   0.00008   2.62268
   R20        2.05222  -0.00001   0.00000  -0.00002  -0.00002   2.05220
   R21        2.65640   0.00000   0.00000   0.00000   0.00000   2.65640
   R22        2.05153   0.00000   0.00000  -0.00001  -0.00001   2.05152
   R23        2.65845   0.00003   0.00000   0.00007   0.00007   2.65853
   R24        2.05139   0.00000   0.00000  -0.00001  -0.00001   2.05138
   R25        2.82951   0.00000   0.00000   0.00000   0.00000   2.82952
   R26        2.31506  -0.00001   0.00000  -0.00001  -0.00001   2.31505
   R27        2.87194   0.00002   0.00000   0.00005   0.00005   2.87199
   R28        2.07324  -0.00002   0.00000  -0.00005  -0.00005   2.07319
   R29        2.07317   0.00000   0.00000  -0.00001  -0.00001   2.07316
   R30        2.06303   0.00001   0.00000   0.00002   0.00002   2.06304
   R31        2.07386   0.00000   0.00000  -0.00001  -0.00001   2.07385
   R32        2.07416   0.00000   0.00000   0.00000   0.00000   2.07416
   R33        2.06907   0.00002   0.00000   0.00005   0.00005   2.06912
    A1        2.11739   0.00000   0.00000   0.00000   0.00000   2.11739
    A2        2.08260  -0.00002   0.00000  -0.00012  -0.00012   2.08249
    A3        2.08319   0.00002   0.00000   0.00012   0.00012   2.08331
    A4        2.10209   0.00000   0.00000   0.00000   0.00000   2.10209
    A5        2.09966   0.00000   0.00000   0.00001   0.00001   2.09967
    A6        2.08144   0.00000   0.00000  -0.00001  -0.00001   2.08143
    A7        2.06725   0.00002   0.00000   0.00009   0.00009   2.06733
    A8        2.10801  -0.00008   0.00000  -0.00032  -0.00032   2.10769
    A9        2.10793   0.00006   0.00000   0.00023   0.00023   2.10817
   A10        2.10224  -0.00002   0.00000  -0.00008  -0.00008   2.10217
   A11        2.08244   0.00001   0.00000   0.00001   0.00001   2.08244
   A12        2.09851   0.00001   0.00000   0.00007   0.00007   2.09857
   A13        2.11728  -0.00001   0.00000   0.00000   0.00000   2.11727
   A14        2.08116  -0.00001   0.00000  -0.00010  -0.00010   2.08106
   A15        2.08475   0.00002   0.00000   0.00010   0.00010   2.08485
   A16        2.06013   0.00000   0.00000   0.00000   0.00000   2.06012
   A17        2.10287  -0.00006   0.00000  -0.00025  -0.00025   2.10263
   A18        2.12018   0.00006   0.00000   0.00025   0.00025   2.12044
   A19        2.10639  -0.00007   0.00000  -0.00027  -0.00027   2.10612
   A20        2.10548   0.00004   0.00000   0.00018   0.00018   2.10566
   A21        2.07132   0.00002   0.00000   0.00009   0.00009   2.07141
   A22        2.10213  -0.00002   0.00000  -0.00009  -0.00009   2.10204
   A23        2.08160   0.00001   0.00000   0.00003   0.00003   2.08162
   A24        2.09946   0.00001   0.00000   0.00006   0.00006   2.09952
   A25        2.10258   0.00000   0.00000   0.00000   0.00000   2.10257
   A26        2.07973   0.00000   0.00000   0.00000   0.00000   2.07973
   A27        2.10088   0.00000   0.00000   0.00000   0.00000   2.10088
   A28        2.10898   0.00002   0.00000   0.00006   0.00006   2.10904
   A29        2.07166  -0.00001   0.00000  -0.00002  -0.00002   2.07164
   A30        2.10255  -0.00001   0.00000  -0.00004  -0.00004   2.10251
   A31        2.10993  -0.00002   0.00000  -0.00009  -0.00009   2.10983
   A32        2.10656   0.00000   0.00000  -0.00004  -0.00004   2.10651
   A33        2.06670   0.00003   0.00000   0.00013   0.00013   2.06684
   A34        2.07144   0.00001   0.00000   0.00003   0.00003   2.07148
   A35        2.14040  -0.00010   0.00000  -0.00040  -0.00040   2.14000
   A36        2.07134   0.00009   0.00000   0.00036   0.00036   2.07171
   A37        2.10727   0.00006   0.00000   0.00026   0.00026   2.10752
   A38        2.07555  -0.00010   0.00000  -0.00040  -0.00040   2.07515
   A39        2.10037   0.00003   0.00000   0.00014   0.00014   2.10051
   A40        1.93707  -0.00003   0.00000  -0.00022  -0.00022   1.93684
   A41        1.93736  -0.00004   0.00000  -0.00034  -0.00034   1.93702
   A42        1.89841   0.00002   0.00000   0.00023   0.00023   1.89865
   A43        1.87481   0.00001   0.00000  -0.00014  -0.00014   1.87467
   A44        1.90786   0.00002   0.00000   0.00027   0.00027   1.90813
   A45        1.90800   0.00002   0.00000   0.00021   0.00021   1.90821
   A46        1.94029  -0.00001   0.00000  -0.00005  -0.00005   1.94024
   A47        1.93961   0.00000   0.00000  -0.00003  -0.00003   1.93958
   A48        1.94764   0.00004   0.00000   0.00025   0.00025   1.94789
   A49        1.86922   0.00000   0.00000  -0.00002  -0.00002   1.86920
   A50        1.88220  -0.00001   0.00000  -0.00005  -0.00005   1.88215
   A51        1.88161  -0.00002   0.00000  -0.00011  -0.00011   1.88149
   A52        3.13995   0.00013   0.00000   0.00297   0.00297   3.14292
   A53        3.13720   0.00012   0.00000   0.00684   0.00684   3.14404
   A54        3.14166   0.00000   0.00000  -0.00007  -0.00007   3.14160
   A55        3.14158   0.00000   0.00000  -0.00010  -0.00010   3.14148
    D1        0.00008   0.00000   0.00000   0.00000   0.00000   0.00008
    D2        3.14143   0.00000   0.00000   0.00000   0.00000   3.14143
    D3       -3.14135   0.00000   0.00000   0.00001   0.00001  -3.14134
    D4        0.00000   0.00000   0.00000   0.00000   0.00000   0.00001
    D5       -0.00027   0.00000   0.00000  -0.00001  -0.00001  -0.00027
    D6        3.13978   0.00000   0.00000  -0.00001  -0.00001   3.13978
    D7        3.14116   0.00000   0.00000  -0.00001  -0.00001   3.14115
    D8       -0.00198   0.00000   0.00000  -0.00001  -0.00001  -0.00199
    D9        0.00008   0.00000   0.00000   0.00001   0.00001   0.00010
   D10        3.14147   0.00000   0.00000  -0.00004  -0.00004   3.14143
   D11       -3.14127   0.00000   0.00000   0.00002   0.00002  -3.14125
   D12        0.00012   0.00000   0.00000  -0.00003  -0.00003   0.00009
   D13       -0.00005   0.00000   0.00000  -0.00003  -0.00003  -0.00008
   D14        3.14128   0.00000   0.00000  -0.00002  -0.00002   3.14125
   D15       -3.14144   0.00000   0.00000   0.00002   0.00002  -3.14142
   D16       -0.00011   0.00000   0.00000   0.00003   0.00003  -0.00009
   D17       -0.00071   0.00000   0.00000   0.00043   0.00043  -0.00029
   D18        3.14093   0.00000   0.00000   0.00041   0.00041   3.14134
   D19        3.14071   0.00000   0.00000   0.00030   0.00030   3.14101
   D20       -0.00083   0.00000   0.00000   0.00028   0.00028  -0.00055
   D21       -0.00015   0.00000   0.00000   0.00003   0.00003  -0.00012
   D22        3.14136   0.00000   0.00000   0.00001   0.00001   3.14137
   D23       -3.14147   0.00000   0.00000   0.00002   0.00002  -3.14145
   D24        0.00004   0.00000   0.00000   0.00000   0.00000   0.00004
   D25        0.00030   0.00000   0.00000  -0.00001  -0.00001   0.00029
   D26       -3.13973   0.00000   0.00000  -0.00001  -0.00001  -3.13974
   D27       -3.14121   0.00000   0.00000   0.00001   0.00001  -3.14120
   D28        0.00195   0.00000   0.00000   0.00001   0.00001   0.00196
   D29        1.01848   0.00000   0.00000  -0.00017  -0.00017   1.01831
   D30       -1.06178   0.00000   0.00000  -0.00009  -0.00009  -1.06187
   D31        3.12056   0.00000   0.00000  -0.00010  -0.00010   3.12046
   D32       -2.12471   0.00000   0.00000  -0.00017  -0.00017  -2.12488
   D33        2.07821   0.00000   0.00000  -0.00009  -0.00009   2.07812
   D34       -0.02264   0.00000   0.00000  -0.00010  -0.00010  -0.02273
   D35       -3.14155   0.00000   0.00000  -0.00006  -0.00006   3.14157
   D36        0.00001   0.00000   0.00000  -0.00004  -0.00004  -0.00003
   D37       -0.00003   0.00000   0.00000   0.00003   0.00003   0.00001
   D38        3.14154   0.00000   0.00000   0.00005   0.00005  -3.14159
   D39        3.14156   0.00000   0.00000   0.00004   0.00004  -3.14159
   D40       -0.00007   0.00000   0.00000   0.00008   0.00008   0.00001
   D41        0.00003   0.00000   0.00000  -0.00006  -0.00006  -0.00003
   D42        3.14159   0.00000   0.00000  -0.00001  -0.00001   3.14157
   D43       -0.00001   0.00000   0.00000   0.00003   0.00003   0.00002
   D44        3.14159   0.00000   0.00000  -0.00002  -0.00002   3.14157
   D45       -3.14158   0.00000   0.00000   0.00001   0.00001  -3.14157
   D46        0.00002   0.00000   0.00000  -0.00004  -0.00004  -0.00002
   D47        0.00000   0.00000   0.00000   0.00002   0.00002   0.00003
   D48        3.14159   0.00000   0.00000   0.00004   0.00004  -3.14156
   D49       -3.14156   0.00000   0.00000  -0.00002  -0.00002  -3.14158
   D50        0.00003   0.00000   0.00000  -0.00001  -0.00001   0.00002
   D51        0.00004   0.00000   0.00000  -0.00006  -0.00006  -0.00002
   D52        3.14155   0.00000   0.00000   0.00000   0.00000   3.14154
   D53       -3.14156   0.00000   0.00000  -0.00002  -0.00002  -3.14158
   D54       -0.00005   0.00000   0.00000   0.00004   0.00004  -0.00001
   D55       -0.00004   0.00000   0.00000   0.00004   0.00004   0.00000
   D56       -3.14155   0.00000   0.00000  -0.00002  -0.00002  -3.14157
   D57        3.14156   0.00000   0.00000   0.00002   0.00002   3.14159
   D58        0.00005   0.00000   0.00000  -0.00003  -0.00003   0.00002
   D59       -3.14124   0.00000   0.00000  -0.00008  -0.00008  -3.14132
   D60        0.00027   0.00000   0.00000  -0.00001  -0.00001   0.00026
   D61        0.00026   0.00000   0.00000  -0.00002  -0.00002   0.00024
   D62       -3.14141   0.00000   0.00000   0.00005   0.00005  -3.14136
   D63       -1.04258   0.00002   0.00000   0.00044   0.00044  -1.04214
   D64        1.04110  -0.00002   0.00000  -0.00010  -0.00010   1.04101
   D65        3.14103   0.00000   0.00000   0.00010   0.00010   3.14113
   D66        2.09893   0.00002   0.00000   0.00052   0.00052   2.09945
   D67       -2.10057  -0.00002   0.00000  -0.00002  -0.00002  -2.10060
   D68       -0.00064   0.00000   0.00000   0.00017   0.00017  -0.00047
         Item               Value     Threshold  Converged?
 Maximum Force            0.000134     0.000450     YES
 RMS     Force            0.000027     0.000300     YES
 Maximum Displacement     0.038521     0.001800     NO 
 RMS     Displacement     0.011232     0.001200     NO 
 Predicted change in Energy=-7.941406D-07
 GradGradGradGradGradGradGradGradGradGradGradGradGradGradGradGradGradGrad

                          Input orientation:                          
 ---------------------------------------------------------------------
 Center     Atomic      Atomic             Coordinates (Angstroms)
 Number     Number       Type             X           Y           Z
 ---------------------------------------------------------------------
      1          6           0       -4.936607   -1.219715    0.000374
      2          6           0       -3.545568   -1.213526    0.000084
      3          6           0       -2.835931    0.006450    0.000120
      4          6           0       -3.569117    1.209266    0.000574
      5          6           0       -4.962949    1.186896    0.000882
      6          6           0       -5.672297   -0.022573    0.000610
      7          1           0       -5.465237   -2.170930    0.000580
      8          1           0       -2.993322   -2.148921    0.000059
      9          1           0       -3.037225    2.156312    0.000931
     10          1           0       -5.509374    2.127432    0.001442
     11          6           0       -1.412091    0.020759    0.000019
     12          6           0       -0.194228    0.031377   -0.000071
     13          6           0        1.228007    0.040299   -0.000049
     14          6           0        1.955205   -1.168468    0.000201
     15          6           0        1.940866    1.260901   -0.000319
     16          6           0        3.346639   -1.154064    0.000192
     17          1           0        1.417176   -2.111713    0.000404
     18          6           0        3.328724    1.265326   -0.000298
     19          1           0        1.388805    2.196088   -0.000530
     20          6           0        4.054711    0.060285   -0.000044
     21          1           0        3.877740   -2.100897    0.000406
     22          1           0        3.879871    2.200551   -0.000476
     23          6           0        5.550749    0.122131    0.000000
     24          8           0        6.133139    1.199920    0.000073
     25          6           0        6.339511   -1.176954   -0.000034
     26          1           0        6.101630   -1.780798    0.884488
     27          1           0        6.100951   -1.781367   -0.883965
     28          1           0        7.405430   -0.941031   -0.000472
     29          6           0       -7.182481   -0.051585   -0.001442
     30          1           0       -7.569539   -0.597069    0.868616
     31          1           0       -7.567292   -0.557018   -0.896530
     32          1           0       -7.605162    0.958233    0.020534
 ---------------------------------------------------------------------
                    Distance matrix (angstroms):
                    1          2          3          4          5
     1  C    0.000000
     2  C    1.391053   0.000000
     3  C    2.432349   1.411357   0.000000
     4  C    2.787468   2.422907   1.408662   0.000000
     5  C    2.406756   2.787651   2.432624   1.394011   0.000000
     6  C    1.405130   2.437487   2.836514   2.437374   1.402138
     7  H    1.088237   2.145169   3.413830   3.875693   3.395187
[...]
 0.00037581,0.00007132,-0.00006001,0.00001868,0.00021618,-0.00172992,0.
 00216469,-0.00058039,-0.00083374,-0.00090068,0.04616246,0.11804325,-0.
 21638483,-0.05165401,-0.12933291,0.23517218,-0.00000359,0.00000323,0.0
 0000175,0.00000848,0.00001004,-0.00000543,-0.00003192,0.00000180,0.000
 00924,0.00000907,-0.00000644,-0.00000480,-0.00000334,-0.00000516,0.000
 00271,0.00000059,0.00000029,-0.00000130,0.00000004,0.00000034,-0.00000
 025,-0.00000151,-0.00000259,0.00000080,-0.00000104,0.00000133,-0.00000
 068,0.00000063,-0.00000044,-0.00000002,0.00007277,-0.00000159,0.000020
 94,-0.00011326,-0.00003478,-0.00009810,0.00007838,0.00024629,-0.000044
 34,0.00003441,-0.00011229,0.00036314,-0.00031109,-0.00031130,0.0002062
 1,-0.00098960,0.00038095,0.00015649,0.00000130,-0.00000252,-0.00000591
 ,0.00059155,-0.00034663,-0.00035767,0.00000975,-0.00000710,0.00004446,
 -0.00141951,0.00005582,-0.00170262,-0.00174621,-0.00014158,0.00058094,
 0.00007351,-0.00005413,-0.00002267,0.00652381,0.00524516,0.01712922,-0
 .00021528,0.00233555,-0.00189410,-0.06168861,-0.02914752,-0.04560769,0
 .00085918,0.00407093,0.00608321,0.06203940,0.00000566,-0.00000369,-0.0
 0000133,-0.00000673,-0.00000549,0.00000500,0.00002228,-0.00000186,0.00
 000073,-0.00000562,0.00000610,0.00000247,0.00000446,0.00000328,-0.0000
 0020,-0.00000218,0.,0.00000042,-0.00000004,0.00000025,-0.00000051,0.00
 000008,0.00000057,-0.00000089,-0.00000006,-0.00000069,-0.00000081,0.00
 000033,-0.00000036,-0.00000043,-0.00005155,0.00000232,-0.00002241,0.00
 008422,0.00000263,0.00002015,-0.00005931,0.00026840,0.00007769,0.00041
 722,-0.00005712,-0.00010771,-0.00020430,-0.00000313,-0.00020001,-0.000
 31530,0.00022660,0.00035399,0.00000469,0.00000229,0.00000269,0.0002335
 3,-0.00018855,0.00043576,0.00000844,-0.00000998,-0.00005040,0.00041515
 ,0.00012656,0.00185189,-0.00015692,0.00033144,-0.00001711,-0.00014488,
 0.00006211,0.00002288,-0.01079006,-0.01378463,-0.02390263,0.00344105,-
 0.00526322,0.00365588,-0.03061751,-0.12370033,-0.12209869,0.00407854,0
 .01166049,0.01546730,0.03430753,0.13409389,-0.00000268,0.00000295,-0.0
 0000004,-0.00000568,-0.00000166,0.00000038,0.00001732,-0.00000347,0.00
 000011,-0.00000614,-0.00000407,-0.00000052,-0.00000227,-0.00000108,0.0
 0000084,0.00000132,0.00000084,0.00000084,-0.00000085,-0.00000113,-0.00
 000031,0.00000193,0.00000226,-0.00000020,0.00000194,-0.00000056,-0.000
 00060,-0.00000240,0.00000158,-0.00000013,-0.00002614,0.00000199,0.0000
 0205,0.00001507,0.00004901,-0.00002892,-0.00007681,0.00006455,-0.00004
 724,0.00002840,0.00038836,0.00021269,-0.00009886,0.00000440,0.00000141
 ,-0.00034028,-0.00100523,0.00039854,0.00002304,-0.00001011,0.00000273,
 0.00026901,0.00007785,0.00002062,0.00001806,0.00000772,0.00000270,0.00
 015376,-0.00051922,-0.00017401,0.00029488,0.00061117,-0.00037583,-0.00
 007141,0.00006010,0.00001867,-0.00021750,0.00173573,0.00216202,0.00057
 922,0.00083405,-0.00089973,-0.04625102,-0.11807862,-0.21623152,-0.0060
 9971,-0.01548496,-0.02143793,0.05175624,0.12936542,0.23500131,-0.00001
 462,0.00001898,0.,-0.00001021,0.00001921,-0.00000006,0.00002445,0.0000
 0226,-0.00000004,-0.00000786,-0.00002000,-0.00000003,-0.00001400,-0.00
 002008,-0.00000004,0.00000651,0.00000455,0.00000055,-0.00000592,-0.000
 00531,0.00000002,0.00000553,0.00000291,0.00000002,0.00000558,-0.000003
 12,0.00000002,-0.00000629,0.00000501,0.00000002,0.00002558,-0.00000043
 ,0.,-0.00007161,-0.00000474,0.00000002,0.00011658,0.00006825,-0.000000
 07,0.00005293,-0.00002021,0.00000016,-0.00014787,0.00031627,-0.0000001
 0,0.00059735,0.00034519,-0.00000012,-0.00003869,-0.00001210,0.00000001
 ,-0.00074795,-0.00057368,0.00000007,-0.00010899,0.00000127,0.,-0.00023
 839,0.00324648,0.00000024,0.00013895,0.00005250,-0.00000019,0.00000920
 ,0.00006372,0.00000003,-0.02017125,-0.00546833,0.00000579,0.00394011,-
 0.00163441,-0.00000162,-0.31159297,-0.05968106,0.00009224,-0.00376223,
 -0.00066846,-0.00004182,-0.00377700,-0.00067097,0.00004533,0.33581194,
 0.00000215,-0.00000178,0.,0.00000032,-0.00000460,0.00000001,0.00000083
 ,-0.00000270,-0.00000001,-0.00000048,0.00000187,0.00000001,0.00000091,
 0.00000328,0.,0.00000102,-0.00000079,-0.00000003,0.00000057,0.00000027
 ,0.,0.00000030,0.00000101,0.,-0.00000053,0.00000017,0.,0.00000040,-0.0
 0000020,0.,-0.00001230,-0.00000125,0.,0.00001280,0.00005176,0.,-0.0001
 0924,-0.00009515,0.00000005,-0.00004530,0.00038440,-0.00000020,0.00017
 684,-0.00039139,0.00000004,-0.00045144,-0.00111309,0.00000039,0.000039
 75,0.00000113,0.,0.00140544,0.00056885,0.00000025,0.00013920,0.0000021
 8,-0.00000004,0.00111213,-0.00521355,0.00000057,-0.00019734,0.00057868
 ,-0.00000012,-0.00000399,0.00002042,0.,0.03259011,0.00557597,-0.000011
 69,-0.00135180,0.00234751,0.00000143,-0.06499181,-0.06183255,0.0000180
 9,-0.01647633,-0.00376700,-0.00188939,-0.01648492,-0.00376815,0.001902
 91,0.06464070,0.06665414,0.,0.,-0.00000086,0.,-0.00000002,0.00000107,0
 .,0.,-0.00000743,0.,0.00000001,0.00000128,0.,0.,-0.00000121,0.,0.,0.00
 000431,0.,0.,0.00000018,0.,0.,0.00000048,0.,0.,0.00000045,0.,0.,0.0000
 0041,-0.00000006,0.,-0.00000429,0.00000010,0.00000001,0.00000220,-0.00
 000013,-0.00000005,-0.00002081,0.00000007,0.00000007,0.00018200,0.0000
 0011,0.00000006,-0.00019283,-0.00000044,-0.00000023,0.00014569,0.,0.,0
 .00000771,-0.00000023,0.00000027,0.00035707,0.,0.,-0.00003913,0.,0.000
 00013,0.00145365,-0.00000002,0.00000008,-0.00041855,-0.00000003,0.0000
 0003,0.00007340,-0.00000232,0.00000342,-0.00093562,-0.00000068,-0.0000
 0136,-0.00105742,0.00009184,0.00001589,-0.04958263,0.02662104,0.004863
 07,0.00135363,-0.02660934,-0.00485910,0.00137253,-0.00009995,-0.000022
 29,0.04730589,-0.02431276,0.00508679,-0.00002954,0.00449500,0.00208233
 ,0.00003096,-0.00202693,-0.00153350,0.00001045,0.00145427,-0.00048459,
 0.00003017,-0.02008188,-0.00394237,-0.00003022,-0.21191578,-0.00377951
 ,-0.00018490,0.00082935,-0.00122957,-0.00003020,-0.00005397,-0.0001646
 9,-0.00000830,-0.00004515,0.00018971,-0.00000847,0.00127944,0.00175997
 ,-0.00002823,0.00118709,0.00002369,-0.00001473,-0.00070205,0.00001384,
 0.00000214,0.00027463,-0.00000117,0.00000053,-0.00007434,0.00006629,0.
 00000002,-0.00006979,-0.00006754,-0.00000004,0.00005185,0.00002151,-0.
 00000008,-0.00000211,0.00000277,0.00000002,0.00005130,-0.00002149,-0.0
 0000004,-0.00000241,-0.00000200,0.00000001,-0.00005844,0.00000121,0.00
 000023,0.00000108,0.00000053,-0.00000001,0.00000068,-0.00000024,-0.000
 00001,0.00003506,0.00001526,-0.00000006,-0.00001148,-0.00002066,0.,0.0
 0000124,0.00000173,-0.00000001,-0.00000109,0.00000107,-0.00000047,-0.0
 0000108,0.00000107,0.00000048,0.00000005,0.00000040,0.,0.48735853,0.02
 957170,0.00471251,0.00010458,0.00304725,-0.00532113,0.00007725,-0.0014
 1066,-0.00062345,0.00000267,-0.00048725,-0.00418146,-0.00007978,-0.028
 92065,0.00233558,-0.00010578,0.00290839,-0.08967413,0.00001887,0.00067
 525,0.00103197,-0.00006033,0.00151887,0.00005843,-0.00000741,-0.001256
 94,0.00004176,0.00000595,-0.00168849,0.00027578,0.00005608,0.00070260,
 0.00022362,-0.00000085,-0.00059273,0.00004006,0.00000027,0.00040452,-0
 .00001079,-0.00000020,-0.00015726,0.00004231,-0.00000006,-0.00015408,-
 0.00005109,0.00000034,0.00009945,0.00000680,-0.00000075,0.00000228,0.0
 0000213,0.00000010,0.00010664,-0.00000926,0.00000025,0.00000919,0.0000
 0444,-0.00000008,-0.00028283,0.00003095,0.00000059,-0.00000997,0.00001
 023,0.00000001,-0.00000401,-0.00000206,-0.00000004,0.00032078,0.000043
 93,-0.00000018,-0.00014921,-0.00010717,-0.00000003,-0.00002356,0.00002
 379,0.00000001,-0.00000082,0.00000094,0.00000177,-0.00000079,0.0000009
 4,-0.00000176,-0.00000963,0.00000104,0.,-0.01113070,0.58442046,0.00000
 660,0.00003045,0.00353688,0.00010033,-0.00002291,0.00504210,-0.0000801
 1,-0.00001126,-0.00108503,0.00007818,0.00003167,0.00783261,0.00002405,
 -0.00001969,0.00620610,0.00011055,0.00000075,-0.07167956,-0.00001731,0
 .00003936,-0.00228104,0.00001103,-0.00000013,0.00004061,0.00001119,0.0
 0000029,-0.00004725,-0.00001559,-0.00003552,-0.00422468,0.00004733,0.0
 0000067,-0.00056649,-0.00004004,-0.00000060,-0.00009398,0.00002972,0.0
 0000032,0.00009148,-0.00001166,0.00000328,0.00002145,-0.00001170,-0.00
 000287,-0.00000955,0.00000748,0.00000017,-0.00002202,0.00000051,-0.000
 00011,-0.00000070,0.00000763,-0.00000083,-0.00002013,0.00000050,0.0000
 0015,0.00000242,-0.00002121,0.00000231,-0.00001047,-0.00000065,0.00000
 079,0.00000412,-0.00000035,-0.00000015,0.00000475,0.00002456,0.0000031
 8,0.00000244,-0.00001126,-0.00000795,0.00000155,-0.00000185,0.00000183
 ,0.00000594,0.00000055,0.00000009,-0.00000028,-0.00000060,0.00000003,-
 0.00000059,-0.00000078,0.00000006,-0.00000123,-0.00081046,-0.00006275,
 0.53935687,0.00081859,-0.00113507,-0.00066648,-0.00007085,-0.00024896,
 -0.00099045,-0.00005055,-0.00011254,0.00023879,-0.00054906,-0.00053296
 ,-0.00147589,-0.00303519,0.00177117,0.00035120,-0.01460896,-0.01775132
 ,0.02589518,0.00013560,0.00073016,0.00057173,0.00000053,0.00003337,0.0
 0005517,-0.00030503,-0.00001864,-0.00002350,0.00002065,-0.00011324,0.0
 0052186,0.00002295,0.00005369,0.00013494,-0.00015859,0.00000405,-0.000
 02320,0.00020047,-0.00000265,-0.00000722,-0.00009200,0.00000410,0.0000
 0277,-0.00009175,-0.00000614,0.00000176,0.00005173,-0.00000088,-0.0000
 0610,0.00000662,-0.00000137,0.00000314,0.00005280,-0.00000284,-0.00000
 406,0.00000773,0.00000386,0.00000189,-0.00018792,0.00002201,0.00000503
 ,-0.00000825,0.00000776,0.00000051,-0.00000400,-0.00000146,0.00000048,
 0.00023063,0.00002446,-0.00000005,-0.00010774,-0.00006995,-0.00000090,
 -0.00001963,0.00001732,0.00000063,0.00000010,0.00000056,0.00000157,-0.
 00000008,0.00000036,-0.00000167,-0.00000778,0.00000071,0.00000006,-0.0
 7628133,-0.04271331,0.07254635,0.08576442,0.00223241,-0.00011130,-0.00
 023666,-0.00139867,-0.00032797,-0.00028348,0.00050084,0.00076143,-0.00
 004200,0.00019348,-0.00034568,-0.00042484,-0.00111580,0.00000718,-0.00
 002134,-0.00188710,-0.00019029,-0.00110870,-0.00002310,-0.00009429,0.0
 0039198,-0.00003905,-0.00000315,0.00000821,-0.00006712,-0.00001539,0.0
 0005335,0.00004202,0.00031868,0.00042211,-0.00029952,0.00002606,0.0001
 4894,0.00017154,-0.00001042,-0.00000879,-0.00007867,-0.00000164,-0.000
 00451,0.00002442,-0.00001535,-0.00000506,0.00002169,0.00001632,-0.0000
 0167,-0.00001792,-0.00000327,0.00000370,0.00000129,-0.00000182,0.00000
 042,-0.00001826,0.00000272,0.00000107,0.00000145,0.00000141,0.00000147
 ,0.00003075,-0.00000200,-0.00000430,0.00000018,-0.00000026,0.00000055,
 -0.00000002,0.00000015,0.00000074,-0.00002343,-0.00000466,0.00000163,0
 .00000877,0.00000927,-0.00000111,0.00000085,-0.00000168,0.00000018,0.0
 0000061,0.00000003,0.00000023,0.00000053,-0.00000042,-0.00000042,0.000
 00031,-0.00000024,0.00000016,-0.04177813,-0.11224933,0.10372724,0.0483
 9430,0.11771749,-0.00025081,0.00052924,0.00096565,0.00047659,-0.000055
 24,0.00019251,-0.00016760,-0.00030987,-0.00003530,-0.00028255,0.000004
 54,-0.00023171,-0.00020373,-0.00049832,-0.00040389,-0.00075256,-0.0018
 2124,0.00335931,0.00021567,-0.00031620,-0.00035883,0.00004191,0.000000
 75,-0.00000635,-0.00000585,-0.00001026,0.00003505,-0.00006294,-0.00005
 897,0.00008987,0.00006203,-0.00002154,-0.00004252,0.00000448,-0.000003
 38,0.00000705,-0.00005096,0.00000325,0.00000222,0.00002695,0.00000218,
 -0.00000116,0.00002479,-0.00000068,0.00000237,-0.00001467,0.00000008,-
 0.00000247,-0.00000312,0.00000127,0.00000015,-0.00001421,0.00000044,0.
 00000035,-0.00000282,-0.00000237,-0.00000085,0.00006159,-0.00000735,0.
 00000230,0.00000323,-0.00000297,-0.00000015,0.00000064,0.00000050,-0.0
 0000046,-0.00008304,-0.00000529,-0.00000082,0.00003957,0.00002198,0.00
 000040,0.00000812,-0.00000713,-0.00000015,-0.00000031,-0.00000002,-0.0
 0000044,-0.00000012,0.00000011,0.00000055,0.00000306,-0.00000003,-0.00
 000004,0.07141071,0.10393850,-0.21197896,-0.07769686,-0.11463369,0.229
 09998,0.00077177,-0.00111148,0.00066820,-0.00008719,-0.00025861,0.0010
 4620,-0.00005556,-0.00012431,-0.00024238,-0.00057232,-0.00045055,0.001
 50634,-0.00277196,0.00174338,-0.00029160,-0.01471723,-0.01648120,-0.02
 668495,0.00014308,0.00068957,-0.00058422,-0.00000463,0.00003449,-0.000
 05754,-0.00028795,-0.00002069,0.00001860,0.00001939,-0.00012553,-0.000
 54224,0.00001713,0.00004896,-0.00013979,-0.00016148,0.00000433,0.00002
 327,0.00020627,-0.00000230,0.00000747,-0.00009504,0.00000414,-0.000002
 74,-0.00009486,-0.00000572,-0.00000178,0.00005336,-0.00000107,0.000006
 16,0.00000692,-0.00000151,-0.00000321,0.00005446,-0.00000301,0.0000042
 1,0.00000794,0.00000388,-0.00000200,-0.00019458,0.00002276,-0.00000504
 ,-0.00000851,0.00000804,-0.00000054,-0.00000417,-0.00000151,-0.0000005
 1,0.00023889,0.00002542,0.,-0.00011167,-0.00007255,0.00000094,-0.00002
 035,0.00001791,-0.00000066,-0.00000007,0.00000037,0.00000175,0.0000001
 2,0.00000058,-0.00000164,-0.00000806,0.00000073,-0.00000005,-0.0756793
 1,-0.03923551,-0.07402562,0.00391335,0.00602245,0.00890401,0.08512607,
 0.00222950,-0.00014758,0.00017800,-0.00143320,-0.00036934,0.00022470,0
 .00048779,0.00081289,0.00003833,0.00025117,-0.00037345,0.00045771,-0.0
 0118197,-0.00003998,0.00011029,-0.00188874,-0.00016693,0.00095740,-0.0
 0002272,-0.00011718,-0.00034659,-0.00003582,-0.00000437,-0.00000239,-0
 .00006509,-0.00001630,-0.00005808,0.00002701,0.00028710,-0.00044495,-0
 .00029535,0.00002354,-0.00013949,0.00017104,-0.00001199,0.00000752,-0.
 00007990,-0.00000103,0.00000396,0.00002556,-0.00001509,0.00000538,0.00
 002229,0.00001625,0.00000129,-0.00001839,-0.00000349,-0.00000339,0.000
 00108,-0.00000174,-0.00000043,-0.00001851,0.00000273,-0.00000114,0.000
 00128,0.00000120,-0.00000138,0.00003259,-0.00000211,0.00000397,0.00000
 036,-0.00000039,-0.00000053,-0.00000005,0.00000018,-0.00000069,-0.0000
 2614,-0.00000457,-0.00000149,0.00001010,0.00000973,0.00000109,0.000001
 20,-0.00000196,-0.00000017,0.00000052,-0.00000040,0.00000040,0.0000005
 7,0.00000003,-0.00000022,0.00000043,-0.00000023,-0.00000015,-0.0382001
 5,-0.10286620,-0.09872877,0.00637964,0.00848445,0.01444747,0.04448634,
 0.10742508,0.00027480,-0.00054987,0.00097377,-0.00050774,0.00005027,0.
 00020083,0.00021393,0.00028305,-0.00003708,0.00018896,0.00000503,-0.00
 022610,0.00022472,0.00053284,-0.00041756,0.00043532,0.00163383,0.00348
 007,-0.00020047,0.00028787,-0.00037932,-0.00004351,-0.00000025,-0.0000
 0405,0.00000054,0.00000946,0.00003963,0.00005919,0.00007682,0.00007118
 ,-0.00009263,0.00002107,-0.00004765,0.00001469,0.00000355,0.00000757,0
 .00004079,-0.00000327,0.00000242,-0.00002361,-0.00000390,-0.00000099,-
 0.00002148,0.00000247,0.00000231,0.00001244,-0.00000043,-0.00000241,0.
 00000310,-0.00000133,0.00000005,0.00001188,0.00000001,0.00000039,0.000
 00282,0.00000240,-0.00000092,-0.00005656,0.00000684,0.00000219,-0.0000
 0312,0.00000283,-0.00000021,-0.00000061,-0.00000047,-0.00000050,0.0000
 7797,0.00000455,-0.00000081,-0.00003736,-0.00002027,0.00000048,-0.0000
 0778,0.00000675,-0.00000020,0.00000015,-0.00000014,0.00000056,0.000000
 34,0.00000001,-0.00000043,-0.00000292,0.,-0.00000005,-0.07250964,-0.09
 891436,-0.22127643,-0.00853618,-0.01303729,-0.02237927,0.07929189,0.10
 907932,0.23940410,-0.00675303,-0.00200410,0.00002323,0.00009357,0.0018
 6063,-0.00003822,0.00011752,-0.00030136,0.00000774,-0.00006376,-0.0000
 4244,-0.00001536,0.00135196,0.00207247,-0.00002870,-0.01222956,0.03229
 179,0.00065497,0.00006293,0.00000574,0.00001178,-0.00052031,-0.0000133
 9,-0.00000169,0.00004032,-0.00000904,0.00000067,-0.00049241,-0.0015009
 6,0.00002061,0.00009730,-0.00011039,0.00000134,-0.00009450,-0.00001285
 ,-0.00000039,0.00009826,0.00001094,0.00000021,-0.00003926,0.00001090,-
 0.00000021,-0.00004333,-0.00000154,0.00000014,0.00002369,-0.00000078,0
 .00000015,0.00000438,-0.00000306,0.00000002,0.00002389,-0.00000480,-0.
 00000018,0.00000265,0.00000022,0.00000007,-0.00007570,0.00000828,-0.00
 000018,-0.00000271,0.00000292,0.,-0.00000253,-0.00000052,0.00000002,0.
 00009260,0.00001307,0.00000011,-0.00004370,-0.00003142,-0.00000002,-0.
 00000725,0.00000630,-0.00000002,0.00000013,0.00000027,0.00000092,0.000
 00012,0.00000026,-0.00000092,-0.00000307,0.00000017,0.,-0.08569964,0.0
 8886146,0.00204265,0.00435255,-0.01090109,-0.00169118,0.00431620,-0.01
 086245,0.00119010,0.09539269,0.00002474,0.00058703,-0.00003835,-0.0004
 4868,-0.00003774,-0.00000906,-0.00000208,0.00020771,0.00000258,0.00030
 237,0.00029268,0.00003400,-0.00197687,0.00062726,0.00002110,-0.0015167
 9,0.00173987,0.00012024,-0.00023101,0.00033207,0.00000380,0.00003485,0
 .00001014,0.00000162,0.00006488,0.00000673,-0.00000233,-0.00004695,0.0
 0045413,-0.00002631,-0.00008629,0.00006970,-0.00000766,0.00012255,-0.0
 0000477,0.00000060,-0.00011596,-0.00000586,0.00000058,0.00004953,-0.00
 001231,0.00000008,0.00005182,0.00000566,-0.00000028,-0.00002834,-0.000
 00180,0.00000024,-0.00000517,0.00000433,-0.00000009,-0.00002809,0.0000
 0665,0.,-0.00000504,-0.00000249,0.,0.00009621,-0.00001037,-0.00000009,
 0.00000301,-0.00000407,-0.00000004,0.00000244,0.00000072,-0.00000002,-
 0.00012445,-0.00001839,0.,0.00006084,0.00004244,0.00000005,0.00001019,
 -0.00000868,-0.00000002,-0.00000058,-0.00000030,-0.00000159,-0.0000005
 8,-0.00000028,0.00000159,0.00000450,-0.00000003,-0.00000001,0.09308818
 ,-0.27821161,-0.00494910,0.00526381,-0.01396603,-0.00119575,0.00478223
 ,-0.01291886,0.00052260,-0.09934524,0.30081647,0.00000339,-0.00000161,
 0.00127168,-0.00005887,-0.00000896,0.00054271,0.00001425,0.00003039,-0
 .00001501,0.00000991,0.00000038,-0.00015128,-0.00000838,-0.00001497,-0
 .00020020,-0.00016856,0.00017181,-0.00130104,-0.00000105,-0.00001176,-
 0.00029529,-0.00000284,0.00000058,-0.00017590,0.00000048,-0.00000035,-
 0.00003735,0.00001777,0.00002055,0.00034083,-0.00001162,0.00000041,-0.
 00001130,0.00000905,-0.00000004,0.00000920,-0.00000671,-0.00000014,0.0
 0000721,0.00000254,-0.00000085,-0.00000494,0.00000261,0.00000063,-0.00
 000276,-0.00000165,-0.00000009,-0.00000126,-0.00000012,0.00000006,0.00
 000094,-0.00000168,0.00000027,0.00000143,-0.00000013,-0.00000003,0.000
 00147,0.00000473,-0.00000049,-0.00000275,0.00000012,-0.00000016,0.0000
 0053,0.00000009,0.00000003,0.00000052,-0.00000559,-0.00000084,0.000001
 31,0.00000262,0.00000193,-0.00000101,0.00000041,-0.00000039,0.00000026
 ,0.00000002,0.00000013,-0.00000008,-0.00000002,-0.00000016,0.,0.000000
 18,-0.00000001,0.00000017,0.00216970,-0.00497289,-0.04885093,-0.010900
 48,0.02505188,0.00168562,0.01110746,-0.02578696,0.00058845,-0.00217766
 ,0.00552165,0.04659877\\0.00000228,0.00000425,-0.00000089,0.00000454,0
 .00001877,0.00000025,0.00000147,-0.00005560,-0.00000074,-0.00000143,0.
 00002234,0.00000136,0.00000475,0.00002239,0.00000054,-0.00000534,-0.00
 002508,-0.00000013,0.00000271,-0.00000063,-0.00000022,-0.00000061,-0.0
 0000020,0.00000015,0.00000195,-0.00000047,0.00000012,0.00000346,-0.000
 00179,-0.00000009,-0.00002130,0.00002551,-0.00000055,0.00002060,-0.000
 01446,-0.00000196,-0.00000230,-0.00003031,0.00000445,-0.00000623,0.000
 00943,0.00000017,0.00000297,0.00001272,-0.00000215,0.00000307,0.000009
 04,-0.00000175,-0.00000116,-0.00000139,-0.00000005,-0.00000656,0.00002
 286,-0.00000068,0.00000174,-0.00000085,0.00000019,0.00000564,-0.000013
 34,0.00000131,0.00001036,-0.00000262,0.00000048,-0.00000159,-0.0000015
 2,0.00000021,-0.00001115,-0.00001661,-0.00000130,0.00002151,0.00000858
 ,0.00000242,-0.00001535,0.00000775,-0.00000502,-0.00000707,0.00000010,
 -0.00000130,-0.00000701,-0.00000147,0.00000465,0.00000883,-0.00000047,
 0.00000047,-0.00000497,0.00000361,-0.00000117,-0.00000085,-0.00000006,
 -0.00000050,-0.00000077,-0.00000101,0.00000231,-0.00000223,0.00000056,
 -0.00000058\\\@


 WORK FAITHFULLY FOR EIGHT HOURS A DAY AND DON'T WORRY.
 IN TIME YOU MAY BECOME BOSS AND WORK TWELVE HOURS A DAY
 AND HAVE ALL THE WORRY.
 Job cpu time:       0 days  2 hours 59 minutes  5.8 seconds.
 Elapsed time:       0 days  0 hours  5 minutes 58.3 seconds.
 File lengths (MBytes):  RWF=    439 Int=      0 D2E=      0 Chk=     12 Scr=      1
 Normal termination of Gaussian 16 at Sun Sep 17 16:39:15 2023.
