 Entering Gaussian System, Link 0=/home/ubuntu/g16/g16
 Input=/home/ubuntu/products/molecule_9.gjf
 Output=/home/ubuntu/products/molecule_9.log
 Initial command:
 /home/ubuntu/g16/l1.exe "/home/ubuntu/Scratch/Gau-31155.inp" -scrdir="/home/ubuntu/Scratch/"
 Entering Link 1 = /home/ubuntu/g16/l1.exe PID=     31157.
  
 Copyright (c) 1988-2017, Gaussian, Inc.  All Rights Reserved.
  
 This is part of the Gaussian(R) 16 program.  It is based on
 the Gaussian(R) 09 system (copyright 2009, Gaussian, Inc.),
 the Gaussian(R) 03 system (copyright 2003, Gaussian, Inc.),
 the Gaussian(R) 98 system (copyright 1998, Gaussian, Inc.),
 the Gaussian(R) 94 system (copyright 1995, Gaussian, Inc.),
 the Gaussian 92(TM) system (copyright 1992, Gaussian, Inc.),
 the Gaussian 90(TM) system (copyright 1990, Gaussian, Inc.),
 the Gaussian 88(TM) system (copyright 1988, Gaussian, Inc.),
 the Gaussian 86(TM) system (copyright 1986, Carnegie Mellon
 University), and the Gaussian 82(TM) system (copyright 1983,
 Carnegie Mellon University). Gaussian is a federally registered
 trademark of Gaussian, Inc.
  
 This software contains proprietary and confidential information,
 including trade secrets, belonging to Gaussian, Inc.
  
 This software is provided under written license and may be
 used, copied, transmitted, or stored only in accord with that
 written license.
  
 The following legend is applicable only to US Government
 contracts under FAR:
  
                    RESTRICTED RIGHTS LEGEND
  
 Use, reproduction and disclosure by the US Government is
 subject to restrictions as set forth in subparagraphs (a)
 and (c) of the Commercial Computer Software - Restricted
 Rights clause in FAR 52.227-19.
  
 Gaussian, Inc.
 340 Quinnipiac St., Bldg. 40, Wallingford CT 06492
  
  
 ---------------------------------------------------------------
 Warning -- This program may not be used in any manner that
 competes with the business of Gaussian, Inc. or will provide
 assistance to any competitor of Gaussian, Inc.  The licensee
 of this program is prohibited from giving any competitor of
 Gaussian, Inc. access to this program.  By using this program,
 the user acknowledges that Gaussian, Inc. is engaged in the
 business of creating and licensing software in the field of
 computational chemistry and represents and warrants to the
 licensee that it is not a competitor of Gaussian, Inc. and that
 it will not use this program in any manner prohibited above.
 ---------------------------------------------------------------
  

 Cite this work as:
 Gaussian 16, Revision B.01,
 M. J. Frisch, G. W. Trucks, H. B. Schlegel, G. E. Scuseria, 
 M. A. Robb, J. R. Cheeseman, G. Scalmani, V. Barone, 
 G. A. Petersson, H. Nakatsuji, X. Li, M. Caricato, A. V. Marenich, 
 J. Bloino, B. G. Janesko, R. Gomperts, B. Mennucci, H. P. Hratchian, 
 J. V. Ortiz, A. F. Izmaylov, J. L. Sonnenberg, D. Williams-Young, 
 F. Ding, F. Lipparini, F. Egidi, J. Goings, B. Peng, A. Petrone, 
 T. Henderson, D. Ranasinghe, V. G. Zakrzewski, J. Gao, N. Rega, 
 G. Zheng, W. Liang, M. Hada, M. Ehara, K. Toyota, R. Fukuda, 
 J. Hasegawa, M. Ishida, T. Nakajima, Y. Honda, O. Kitao, H. Nakai, 
 T. Vreven, K. Throssell, J. A. Montgomery, Jr., J. E. Peralta, 
 F. Ogliaro, M. J. Bearpark, J. J. Heyd, E. N. Brothers, K. N. Kudin, 
 V. N. Staroverov, T. A. Keith, R. Kobayashi, J. Normand, 
 K. Raghavachari, A. P. Rendell, J. C. Burant, S. S. Iyengar, 
 J. Tomasi, M. Cossi, J. M. Millam, M. Klene, C. Adamo, R. Cammi, 
 J. W. Ochterski, R. L. Martin, K. Morokuma, O. Farkas, 
 J. B. Foresman, and D. J. Fox, Gaussian, Inc., Wallingford CT, 2016.
 
 ******************************************
 Gaussian 16:  EM64L-G16RevB.01 20-Dec-2017
                17-Sep-2023 
 ******************************************
 %nprocshared=30
 Will use up to   30 processors via shared memory.
 %mem=30GB
 %chk=molecule_9.chk
 ---------------------------------------------------------
 # opt freq b3lyp/6-31+g(d) empiricaldispersion=gd3 volume
 ---------------------------------------------------------
 1/18=20,19=15,26=3,38=1/1,3;
 2/9=110,12=2,17=6,18=5,40=1/2;
 3/5=1,6=6,7=11,11=2,25=1,30=1,71=1,74=-5,124=31/1,2,3;
 4//1;
 5/5=2,38=5/2;
 6/7=2,8=2,9=2,10=2,28=1,44=1/1,4;
 7//1,2,3,16;
 1/18=20,19=15,26=3/3(2);
 2/9=110/2;
 99//99;
 2/9=110/2;
 3/5=1,6=6,7=11,11=2,25=1,30=1,71=1,74=-5,124=31/1,2,3;
 4/5=5,16=3,69=1/1;
 5/5=2,38=5/2;
 7//1,2,3,16;
 1/18=20,19=15,26=3/3(-5);
 2/9=110/2;
 6/7=2,8=2,9=2,10=2,19=2,28=1,44=1/1,4;
 99/9=1/99;
 -------------------
 Title Card Required
 -------------------
 Symbolic Z-matrix:
 Charge =  0 Multiplicity = 1
 C                    -5.30642  -0.95004   1.13808 
 C                    -3.91026  -0.97885   1.0873 
 C                    -3.24353  -0.49817  -0.05029 
 C                    -3.96927  -0.06568  -1.15526 
 C                    -5.36722  -0.03465  -1.10341 
 C                    -6.03529  -0.47585   0.04315 
 H                    -5.82877  -1.29526   2.03458 
 H                    -3.33932  -1.35081   1.9443 
 H                    -3.4475    0.28095  -2.05001 
 H                    -5.9376    0.33606  -1.95976 
 C                    -1.70232  -0.51098  -0.00174 
 C                    -0.50316  -0.51544   0.00061 
 C                     1.03814  -0.52118   0.00361 
 C                     1.73324  -0.49899   1.21632 
 C                     1.73531  -0.50038  -1.20582 
 C                     3.13124  -0.50192   1.21672 
 H                     1.18549  -0.5016    2.1622 
 C                     3.13359  -0.50384  -1.20525 
 H                     1.18944  -0.5035   -2.1542 
 C                     3.82894  -0.50274   0.00634 
 H                     3.67742  -0.50148   2.16417 
 H                     3.6812   -0.50459  -2.15173 
 O                    -7.464    -0.44384   0.0949 
 C                    -7.97293   0.10488  -1.12362 
 H                    -7.5899    1.09513  -1.25625 
 H                    -7.66817  -0.5085   -1.94569 
 H                    -9.04154   0.13858  -1.08069 
 C                     5.38916  -0.53949  -0.02644 
 O                     5.54698  -0.56129  -1.27471 
 C                     6.61687  -0.47966   0.90133 
 H                     6.60244   0.43683   1.45335 
 H                     6.591    -1.30577   1.58086 
 H                     7.51018  -0.52847   0.31438 
 

 GradGradGradGradGradGradGradGradGradGradGradGradGradGradGradGradGradGrad
 Berny optimization.
 Initialization pass.
                           ----------------------------
                           !    Initial Parameters    !
                           ! (Angstroms and Degrees)  !
 --------------------------                            --------------------------
 ! Name  Definition              Value          Derivative Info.                !
 --------------------------------------------------------------------------------
 ! R1    R(1,2)                  1.3974         estimate D2E/DX2                !
 ! R2    R(1,6)                  1.3982         estimate D2E/DX2                !
 ! R3    R(1,7)                  1.0935         estimate D2E/DX2                !
 ! R4    R(2,3)                  1.4035         estimate D2E/DX2                !
 ! R5    R(2,8)                  1.0949         estimate D2E/DX2                !
 ! R6    R(3,4)                  1.3909         estimate D2E/DX2                !
 ! R7    R(3,11)                 1.542          estimate D2E/DX2                !
 ! R8    R(4,5)                  1.3993         estimate D2E/DX2                !
 ! R9    R(4,9)                  1.0922         estimate D2E/DX2                !
 ! R10   R(5,6)                  1.3984         estimate D2E/DX2                !
 ! R11   R(5,10)                 1.0937         estimate D2E/DX2                !
 ! R12   R(6,23)                 1.43           estimate D2E/DX2                !
 ! R13   R(11,12)                1.1992         estimate D2E/DX2                !
 ! R14   R(12,13)                1.5413         estimate D2E/DX2                !
 ! R15   R(13,14)                1.398          estimate D2E/DX2                !
 ! R16   R(13,15)                1.3961         estimate D2E/DX2                !
 ! R17   R(14,16)                1.398          estimate D2E/DX2                !
 ! R18   R(14,17)                1.093          estimate D2E/DX2                !
 ! R19   R(15,18)                1.3983         estimate D2E/DX2                !
 ! R20   R(15,19)                1.0943         estimate D2E/DX2                !
 ! R21   R(16,20)                1.3971         estimate D2E/DX2                !
 ! R22   R(16,21)                1.0936         estimate D2E/DX2                !
 ! R23   R(18,20)                1.3969         estimate D2E/DX2                !
 ! R24   R(18,22)                1.0935         estimate D2E/DX2                !
 ! R25   R(20,28)                1.561          estimate D2E/DX2                !
 ! R26   R(23,24)                1.43           estimate D2E/DX2                !
 ! R27   R(24,25)                1.07           estimate D2E/DX2                !
 ! R28   R(24,26)                1.07           estimate D2E/DX2                !
 ! R29   R(24,27)                1.07           estimate D2E/DX2                !
 ! R30   R(28,29)                1.2584         estimate D2E/DX2                !
 ! R31   R(28,30)                1.54           estimate D2E/DX2                !
 ! R32   R(30,31)                1.07           estimate D2E/DX2                !
 ! R33   R(30,32)                1.07           estimate D2E/DX2                !
 ! R34   R(30,33)                1.07           estimate D2E/DX2                !
 ! A1    A(2,1,6)              119.958          estimate D2E/DX2                !
 ! A2    A(2,1,7)              120.0372         estimate D2E/DX2                !
 ! A3    A(6,1,7)              120.0045         estimate D2E/DX2                !
 ! A4    A(1,2,3)              119.8047         estimate D2E/DX2                !
 ! A5    A(1,2,8)              119.971          estimate D2E/DX2                !
 ! A6    A(3,2,8)              120.204          estimate D2E/DX2                !
 ! A7    A(2,3,4)              120.1683         estimate D2E/DX2                !
 ! A8    A(2,3,11)             116.5157         estimate D2E/DX2                !
 ! A9    A(4,3,11)             123.304          estimate D2E/DX2                !
 ! A10   A(3,4,5)              119.9162         estimate D2E/DX2                !
 ! A11   A(3,4,9)              120.0131         estimate D2E/DX2                !
 ! A12   A(5,4,9)              120.0388         estimate D2E/DX2                !
 ! A13   A(4,5,6)              120.0444         estimate D2E/DX2                !
 ! A14   A(4,5,10)             119.9699         estimate D2E/DX2                !
 ! A15   A(6,5,10)             119.9857         estimate D2E/DX2                !
 ! A16   A(1,6,5)              120.0015         estimate D2E/DX2                !
 ! A17   A(1,6,23)             120.0048         estimate D2E/DX2                !
 ! A18   A(5,6,23)             119.9936         estimate D2E/DX2                !
 ! A19   A(12,13,14)           119.9238         estimate D2E/DX2                !
 ! A20   A(12,13,15)           119.8422         estimate D2E/DX2                !
 ! A21   A(14,13,15)           120.1945         estimate D2E/DX2                !
 ! A22   A(13,14,16)           119.8308         estimate D2E/DX2                !
 ! A23   A(13,14,17)           120.098          estimate D2E/DX2                !
 ! A24   A(16,14,17)           120.0575         estimate D2E/DX2                !
 ! A25   A(13,15,18)           119.9314         estimate D2E/DX2                !
 ! A26   A(13,15,19)           120.108          estimate D2E/DX2                !
 ! A27   A(18,15,19)           119.947          estimate D2E/DX2                !
 ! A28   A(14,16,20)           119.944          estimate D2E/DX2                !
 ! A29   A(14,16,21)           119.9792         estimate D2E/DX2                !
 ! A30   A(20,16,21)           120.0767         estimate D2E/DX2                !
 ! A31   A(15,18,20)           119.8756         estimate D2E/DX2                !
 ! A32   A(15,18,22)           120.0284         estimate D2E/DX2                !
 ! A33   A(20,18,22)           120.0958         estimate D2E/DX2                !
 ! A34   A(16,20,18)           120.1873         estimate D2E/DX2                !
 ! A35   A(16,20,28)           121.1553         estimate D2E/DX2                !
 ! A36   A(18,20,28)           118.6389         estimate D2E/DX2                !
 ! A37   A(6,23,24)            109.4712         estimate D2E/DX2                !
 ! A38   A(23,24,25)           109.4712         estimate D2E/DX2                !
 ! A39   A(23,24,26)           109.4712         estimate D2E/DX2                !
 ! A40   A(23,24,27)           109.4712         estimate D2E/DX2                !
 ! A41   A(25,24,26)           109.4713         estimate D2E/DX2                !
 ! A42   A(25,24,27)           109.4712         estimate D2E/DX2                !
 ! A43   A(26,24,27)           109.4712         estimate D2E/DX2                !
 ! A44   A(20,28,29)            98.4294         estimate D2E/DX2                !
 ! A45   A(20,28,30)           141.5595         estimate D2E/DX2                !
 ! A46   A(29,28,30)           119.8865         estimate D2E/DX2                !
 ! A47   A(28,30,31)           109.4712         estimate D2E/DX2                !
 ! A48   A(28,30,32)           109.4712         estimate D2E/DX2                !
 ! A49   A(28,30,33)           109.4712         estimate D2E/DX2                !
 ! A50   A(31,30,32)           109.4713         estimate D2E/DX2                !
 ! A51   A(31,30,33)           109.4712         estimate D2E/DX2                !
 ! A52   A(32,30,33)           109.4712         estimate D2E/DX2                !
 ! A53   L(3,11,12,8,-1)       181.6583         estimate D2E/DX2                !
 ! A54   L(11,12,13,19,-1)     179.9996         estimate D2E/DX2                !
 ! A55   L(3,11,12,8,-2)       179.4663         estimate D2E/DX2                !
 ! A56   L(11,12,13,19,-2)     179.9998         estimate D2E/DX2                !
 ! D1    D(6,1,2,3)              1.6809         estimate D2E/DX2                !
 ! D2    D(6,1,2,8)           -179.9557         estimate D2E/DX2                !
 ! D3    D(7,1,2,3)           -178.1363         estimate D2E/DX2                !
 ! D4    D(7,1,2,8)              0.227          estimate D2E/DX2                !
 ! D5    D(2,1,6,5)              0.1967         estimate D2E/DX2                !
 ! D6    D(2,1,6,23)          -179.8961         estimate D2E/DX2                !
 ! D7    D(7,1,6,5)           -179.986          estimate D2E/DX2                !
 ! D8    D(7,1,6,23)            -0.0788         estimate D2E/DX2                !
 ! D9    D(1,2,3,4)             -3.6992         estimate D2E/DX2                !
 ! D10   D(1,2,3,11)           177.5162         estimate D2E/DX2                !
 ! D11   D(8,2,3,4)            177.9414         estimate D2E/DX2                !
 ! D12   D(8,2,3,11)            -0.8433         estimate D2E/DX2                !
 ! D13   D(2,3,4,5)              3.816          estimate D2E/DX2                !
 ! D14   D(2,3,4,9)           -178.2399         estimate D2E/DX2                !
 ! D15   D(11,3,4,5)          -177.4853         estimate D2E/DX2                !
 ! D16   D(11,3,4,9)             0.4589         estimate D2E/DX2                !
 ! D17   D(2,3,13,14)          -24.1431         estimate D2E/DX2                !
 ! D18   D(2,3,13,15)          158.2445         estimate D2E/DX2                !
 ! D19   D(4,3,13,14)          157.4038         estimate D2E/DX2                !
 ! D20   D(4,3,13,15)          -20.2086         estimate D2E/DX2                !
 ! D21   D(3,4,5,6)             -1.9249         estimate D2E/DX2                !
 ! D22   D(3,4,5,10)           178.0            estimate D2E/DX2                !
 ! D23   D(9,4,5,6)           -179.8685         estimate D2E/DX2                !
 ! D24   D(9,4,5,10)             0.0564         estimate D2E/DX2                !
 ! D25   D(4,5,6,1)             -0.0841         estimate D2E/DX2                !
 ! D26   D(4,5,6,23)          -179.9913         estimate D2E/DX2                !
 ! D27   D(10,5,6,1)           179.991          estimate D2E/DX2                !
 ! D28   D(10,5,6,23)            0.0838         estimate D2E/DX2                !
 ! D29   D(1,6,23,24)          178.732          estimate D2E/DX2                !
 ! D30   D(5,6,23,24)           -1.3607         estimate D2E/DX2                !
 ! D31   D(12,13,14,16)       -179.8905         estimate D2E/DX2                !
 ! D32   D(12,13,14,17)          1.4544         estimate D2E/DX2                !
 ! D33   D(15,13,14,16)         -2.1768         estimate D2E/DX2                !
 ! D34   D(15,13,14,17)        179.1681         estimate D2E/DX2                !
 ! D35   D(12,13,15,18)        179.9195         estimate D2E/DX2                !
 ! D36   D(12,13,15,19)         -1.4191         estimate D2E/DX2                !
 ! D37   D(14,13,15,18)          2.2039         estimate D2E/DX2                !
 ! D38   D(14,13,15,19)       -179.1347         estimate D2E/DX2                !
 ! D39   D(13,14,16,20)          1.1475         estimate D2E/DX2                !
 ! D40   D(13,14,16,21)       -178.9793         estimate D2E/DX2                !
 ! D41   D(17,14,16,20)        179.8032         estimate D2E/DX2                !
 ! D42   D(17,14,16,21)         -0.3236         estimate D2E/DX2                !
 ! D43   D(13,15,18,20)         -1.1998         estimate D2E/DX2                !
 ! D44   D(13,15,18,22)        178.9699         estimate D2E/DX2                !
 ! D45   D(19,15,18,20)       -179.8633         estimate D2E/DX2                !
 ! D46   D(19,15,18,22)          0.3064         estimate D2E/DX2                !
 ! D47   D(14,16,20,18)         -0.1518         estimate D2E/DX2                !
 ! D48   D(14,16,20,28)       -178.5631         estimate D2E/DX2                !
 ! D49   D(21,16,20,18)        179.9751         estimate D2E/DX2                !
 ! D50   D(21,16,20,28)          1.5638         estimate D2E/DX2                !
 ! D51   D(15,18,20,16)          0.1766         estimate D2E/DX2                !
 ! D52   D(15,18,20,28)        178.6275         estimate D2E/DX2                !
 ! D53   D(22,18,20,16)       -179.9932         estimate D2E/DX2                !
 ! D54   D(22,18,20,28)         -1.5423         estimate D2E/DX2                !
 ! D55   D(16,20,28,29)        178.4196         estimate D2E/DX2                !
 ! D56   D(16,20,28,30)         -6.0655         estimate D2E/DX2                !
 ! D57   D(18,20,28,29)         -0.0157         estimate D2E/DX2                !
 ! D58   D(18,20,28,30)        175.4992         estimate D2E/DX2                !
 ! D59   D(6,23,24,25)         -59.3961         estimate D2E/DX2                !
 ! D60   D(6,23,24,26)          60.6039         estimate D2E/DX2                !
 ! D61   D(6,23,24,27)        -179.3961         estimate D2E/DX2                !
 ! D62   D(20,28,30,31)        -58.5801         estimate D2E/DX2                !
 ! D63   D(20,28,30,32)         61.4199         estimate D2E/DX2                !
 ! D64   D(20,28,30,33)       -178.5801         estimate D2E/DX2                !
 ! D65   D(29,28,30,31)        116.3011         estimate D2E/DX2                !
 ! D66   D(29,28,30,32)       -123.6989         estimate D2E/DX2                !
 ! D67   D(29,28,30,33)         -3.6989         estimate D2E/DX2                !
 --------------------------------------------------------------------------------
 Trust Radius=3.00D-01 FncErr=1.00D-07 GrdErr=1.00D-06 EigMax=2.50D+02 EigMin=1.00D-04
 Number of steps in this run=    167 maximum allowed number of steps=    198.
 GradGradGradGradGradGradGradGradGradGradGradGradGradGradGradGradGradGrad

                          Input orientation:                          
 ---------------------------------------------------------------------
 Center     Atomic      Atomic             Coordinates (Angstroms)
 Number     Number       Type             X           Y           Z
 ---------------------------------------------------------------------
      1          6           0       -5.306420   -0.950037    1.138085
      2          6           0       -3.910257   -0.978854    1.087296
      3          6           0       -3.243530   -0.498173   -0.050288
      4          6           0       -3.969271   -0.065678   -1.155262
      5          6           0       -5.367223   -0.034654   -1.103412
      6          6           0       -6.035290   -0.475849    0.043153
      7          1           0       -5.828773   -1.295255    2.034578
      8          1           0       -3.339319   -1.350808    1.944296
      9          1           0       -3.447499    0.280946   -2.050008
     10          1           0       -5.937596    0.336059   -1.959755
     11          6           0       -1.702325   -0.510980   -0.001736
     12          6           0       -0.503164   -0.515444    0.000607
     13          6           0        1.038137   -0.521178    0.003607
     14          6           0        1.733241   -0.498994    1.216317
     15          6           0        1.735313   -0.500380   -1.205823
     16          6           0        3.131236   -0.501924    1.216721
     17          1           0        1.185494   -0.501600    2.162198
     18          6           0        3.133594   -0.503838   -1.205245
     19          1           0        1.189441   -0.503497   -2.154202
     20          6           0        3.828940   -0.502741    0.006338
     21          1           0        3.677424   -0.501477    2.164168
     22          1           0        3.681197   -0.504590   -2.151735
     23          8           0       -7.463995   -0.443839    0.094897
     24          6           0       -7.972932    0.104878   -1.123624
     25          1           0       -7.589896    1.095127   -1.256250
     26          1           0       -7.668174   -0.508498   -1.945690
     27          1           0       -9.041539    0.138582   -1.080691
     28          6           0        5.389157   -0.539492   -0.026437
     29          8           0        5.546983   -0.561293   -1.274711
     30          6           0        6.616868   -0.479660    0.901326
     31          1           0        6.602439    0.436835    1.453348
     32          1           0        6.591001   -1.305772    1.580864
     33          1           0        7.510184   -0.528473    0.314381
 ---------------------------------------------------------------------
                    Distance matrix (angstroms):
                    1          2          3          4          5
     1  C    0.000000
     2  C    1.397384   0.000000
     3  C    2.423205   1.403451   0.000000
     4  C    2.798124   2.422073   1.390941   0.000000
     5  C    2.421968   2.795257   2.415365   1.399257   0.000000
     6  C    1.398207   2.420541   2.793413   2.423402   1.398420
     7  H    1.093494   2.162905   3.415478   3.891618   3.413082
     8  H    2.163349   1.094883   2.171296   3.414038   3.890139
     9  H    3.890352   3.412318   2.155808   1.092229   2.163558
    10  H    3.413069   3.888910   3.405877   2.164002   1.093653
    11  C    3.805452   2.505965   1.542023   2.582240   3.856430
    12  C    4.955199   3.606095   2.740893   3.681334   5.010897
    13  C    6.459440   5.086300   4.282068   5.159902   6.518499
    14  C    7.054530   5.665332   5.135421   6.191187   7.484206
    15  C    7.435193   6.112265   5.111179   5.721346   7.118525
    16  C    8.449913   7.058812   6.499459   7.498920   8.821857
    17  H    6.587476   5.229709   4.950895   6.145499   7.336235
    18  C    8.770639   7.422750   6.480869   7.116542   8.514363
    19  H    7.296215   6.061368   4.906905   5.272748   6.656861
    20  C    9.216058   7.828813   7.072698   7.896355   9.274699
    21  H    9.053370   7.678571   7.266598   8.347484   9.628117
    22  H    9.581158   8.267189   7.236571   7.727564   9.121058
    23  O    2.449410   3.728291   4.223311   3.730818   2.449456
    24  C    3.652185   4.750576   4.887020   4.007418   2.609521
    25  H    3.889704   4.830461   4.783706   3.803498   2.498008
    26  H    3.909284   4.852028   4.813536   3.808248   2.495664
    27  H    4.478747   5.681452   5.923183   5.076927   3.678469
    28  C   10.766616   9.376168   8.632819   9.438162  10.821942
    29  O   11.125154   9.756680   8.875602   9.529900  10.928247
    30  C   11.934911  10.540595   9.906229  10.792000  12.158760
    31  H   11.993486  10.613903  10.003913  10.900386  12.248760
    32  H   11.910971  10.517933  10.001544  10.979233  12.321534
    33  H   12.849962  11.455422  10.759938  11.582396  12.964628
                    6          7          8          9         10
     6  C    0.000000
     7  H    2.163297   0.000000
     8  H    3.412940   2.491710   0.000000
     9  H    3.413316   4.983846   4.316107   0.000000
    10  H    2.163419   4.315986   4.983792   2.492341   0.000000
    11  C    4.333341   4.667894   2.678077   2.805031   4.742240
    12  C    5.532432   5.753890   3.538295   3.675373   5.839617
    13  C    7.073683   7.202672   4.859699   4.998166   7.297294
    14  C    7.856649   7.647721   5.194844   6.173917   8.344249
    15  C    7.870376   8.267250   6.033106   5.308923   7.755100
    16  C    9.241382   9.032166   6.566433   7.386755   9.645513
    17  H    7.525340   7.060178   4.608966   6.310283   8.272277
    18  C    9.253525   9.562783   7.248142   6.681339   9.141181
    19  H    7.551548   8.211460   6.166464   4.703979   7.178949
    20  C    9.864335   9.900164   7.473876   7.601926   9.997716
    21  H    9.941639   9.540161   7.071378   8.314806  10.495562
    22  H    9.961349  10.420647   8.171976   7.172567   9.657366
    23  O    1.430000   2.676047   4.610404   4.610659   2.675768
    24  C    2.335180   4.065960   5.744695   4.622633   2.212500
    25  H    2.563828   4.432272   5.856065   4.295625   1.949667
    26  H    2.573494   4.454764   5.880515   4.295137   1.925715
    27  H    3.267734   4.699219   6.624511   5.679184   3.232061
    28  C   11.424837  11.430700   8.984894   9.102442  11.523872
    29  O   11.657321  11.870043   9.484287   9.067037  11.539934
    30  C   12.681230  12.523715  10.048499  10.515721  12.902161
    31  H   12.748876  12.564752  10.113122  10.644203  12.996611
    32  H   12.746630  12.428063   9.937071  10.792238  13.122398
    33  H   13.548292  13.471258  11.002025  11.239053  13.666085
                   11         12         13         14         15
    11  C    0.000000
    12  C    1.199171   0.000000
    13  C    2.740486   1.541315   0.000000
    14  C    3.645121   2.545531   1.397972   0.000000
    15  C    3.642429   2.542927   1.396141   2.422141   0.000000
    16  C    4.984779   3.832490   2.419314   1.397998   2.795948
    17  H    3.608627   2.743033   2.163703   1.093035   3.412604
    18  C    4.983432   3.831478   2.419207   2.797315   1.398285
    19  H    3.604924   2.740120   2.163180   3.414109   1.094262
    20  C    5.531276   4.332126   2.790865   2.419920   2.419217
    21  H    5.799390   4.707283   3.410902   2.162932   3.889555
    22  H    5.796968   4.705483   3.410504   3.890801   2.163615
    23  O    5.762872   6.961838   8.502974   9.265516   9.290982
    24  C    6.399878   7.579323   9.102855  10.002489   9.727442
    25  H    6.230320   7.375324   8.868069   9.776283   9.460852
    26  H    6.274578   7.424654   8.921871   9.918921   9.432552
    27  H    7.446486   8.631385  10.159275  11.035336  10.796503
    28  C    7.091582   5.892432   4.351162   3.861580   3.839669
    29  O    7.360398   6.183269   4.686726   4.555626   3.812779
    30  C    8.368122   7.176868   5.650652   4.893813   5.316962
    31  H    8.484381   7.314840   5.829322   4.963974   5.624809
    32  H    8.480305   7.310883   5.825601   4.937775   5.656146
    33  H    9.217947   8.019499   6.479508   5.847001   5.971678
                   16         17         18         19         20
    16  C    0.000000
    17  H    2.163294   0.000000
    18  C    2.421968   3.890343   0.000000
    19  H    3.890205   4.316402   2.163389   0.000000
    20  C    1.397075   3.411091   1.396940   3.410995   0.000000
    21  H    1.093608   2.491931   3.413020   4.983813   2.163144
    22  H    3.413057   4.983830   1.093486   2.491757   2.163125
    23  O   10.654614   8.893297  10.677212   8.941139  11.293436
    24  C   11.364329   9.748908  11.123494   9.240200  11.871402
    25  H   11.117951   9.552109  10.842164   8.968761  11.599014
    26  H   11.252917   9.760237  10.827117   8.860070  11.661650
    27  H   12.404225  10.747947  12.192706  10.307165  12.932214
    28  C    2.577802   4.739446   2.545275   4.708110   1.560994
    29  O    3.470820   5.553242   2.415072   4.445787   2.143872
    30  C    3.499943   5.575850   4.070802   6.228466   2.928153
    31  H    3.603680   5.543142   4.470556   6.572609   3.266334
    32  H    3.570539   5.495831   4.512113   6.615982   3.279173
    33  H    4.471030   6.589147   4.632970   6.785744   3.694200
                   21         22         23         24         25
    21  H    0.000000
    22  H    4.315906   0.000000
    23  O   11.332098  11.369536   0.000000
    24  C   12.120563  11.715254   1.430000   0.000000
    25  H   11.882799  11.419217   2.051796   1.070000   0.000000
    26  H   12.067046  11.351242   2.051796   1.070000   1.747303
    27  H   13.141949  12.783928   2.051796   1.070000   1.747303
    28  C    2.780329   2.726763  12.854081  13.422536  13.139263
    29  O    3.914680   2.062413  13.083393  13.537161  13.240909
    30  C    3.199309   4.235560  14.103983  14.741248  14.455700
    31  H    3.152999   4.734613  14.159292  14.805149  14.463667
    32  H    3.078322   4.800120  14.159589  14.879931  14.659857
    33  H    4.255877   4.554497  14.976027  15.562644  15.268117
                   26         27         28         29         30
    26  H    0.000000
    27  H    1.747303   0.000000
    28  C   13.197666  14.485035   0.000000
    29  O   13.232286  14.606589   1.258400   0.000000
    30  C   14.566014  15.795453   1.540000   2.426202   0.000000
    31  H   14.700255  15.850690   2.148263   3.090720   1.070000
    32  H   14.710415  15.923139   2.148263   3.130260   1.070000
    33  H   15.345712  16.623800   2.148263   2.525955   1.070000
                   31         32         33
    31  H    0.000000
    32  H    1.747303   0.000000
    33  H    1.747303   1.747303   0.000000
 Stoichiometry    C17H14O2
 Framework group  C1[X(C17H14O2)]
 Deg. of freedom    93
 Full point group                 C1      NOp   1
 Largest Abelian subgroup         C1      NOp   1
 Largest concise Abelian subgroup C1      NOp   1
                         Standard orientation:                         
 ---------------------------------------------------------------------
 Center     Atomic      Atomic             Coordinates (Angstroms)
 Number     Number       Type             X           Y           Z
 ---------------------------------------------------------------------
      1          6           0        4.534277    1.431014   -0.315019
      2          6           0        3.139688    1.345208   -0.336016
      3          6           0        2.511927    0.120478   -0.061011
      4          6           0        3.274242   -1.022540    0.156021
      5          6           0        4.670627   -0.936037    0.179359
      6          6           0        5.300158    0.290442   -0.055206
      7          1           0        5.026493    2.390037   -0.498670
      8          1           0        2.539768    2.238063   -0.540161
      9          1           0        2.782583   -1.980081    0.341363
     10          1           0        5.269944   -1.828039    0.382409
     11          6           0        0.969978    0.125187   -0.046591
     12          6           0       -0.228718    0.093022   -0.036367
     13          6           0       -1.769422    0.051667   -0.023223
     14          6           0       -2.496295    1.219512    0.226014
     15          6           0       -2.433488   -1.161661   -0.213120
     16          6           0       -3.893647    1.179315    0.239749
     17          1           0       -1.974212    2.166051    0.387934
     18          6           0       -3.831140   -1.201601   -0.199868
     19          1           0       -1.862531   -2.077455   -0.394062
     20          6           0       -4.558582   -0.031067    0.028429
     21          1           0       -4.464940    2.094664    0.417901
     22          1           0       -4.353119   -2.148129   -0.365202
     23          8           0        6.727301    0.377569   -0.031280
     24          6           0        7.277934   -0.904422    0.282093
     25          1           0        6.915431   -1.224663    1.236523
     26          1           0        6.984958   -1.610997   -0.466116
     27          1           0        8.345424   -0.836857    0.310353
     28          6           0       -6.117760   -0.102558    0.004827
     29          8           0       -6.242428   -1.330527   -0.240367
     30          6           0       -7.368699    0.762682    0.245888
     31          1           0       -7.353532    1.140556    1.246828
     32          1           0       -7.375057    1.580520   -0.444040
     33          1           0       -8.246665    0.168144    0.102366
 ---------------------------------------------------------------------
 Rotational constants (GHZ):           2.0680245           0.0914217           0.0879584
 Standard basis: 6-31+G(d) (6D, 7F)
 There are   389 symmetry adapted cartesian basis functions of A   symmetry.
 There are   389 symmetry adapted basis functions of A   symmetry.
   389 basis functions,   664 primitive gaussians,   389 cartesian basis functions
    66 alpha electrons       66 beta electrons
       nuclear repulsion energy      1146.3823412454 Hartrees.
 NAtoms=   33 NActive=   33 NUniq=   33 SFac= 1.00D+00 NAtFMM=   60 NAOKFM=F Big=F
 Integral buffers will be    131072 words long.
 Raffenetti 2 integral format.
 Two-electron integral symmetry is turned on.
 Nuclear repulsion after empirical dispersion term =     1146.3594604887 Hartrees.
 One-electron integrals computed using PRISM.
 NBasis=   389 RedAO= T EigKep=  1.01D-06  NBF=   389
 NBsUse=   385 1.00D-06 EigRej=  5.77D-07 NBFU=   385
 ExpMin= 4.38D-02 ExpMax= 5.48D+03 ExpMxC= 8.25D+02 IAcc=3 IRadAn=         5 AccDes= 0.00D+00
 Harris functional with IExCor=  402 and IRadAn=       5 diagonalized for initial guess.
 HarFok:  IExCor=  402 AccDes= 0.00D+00 IRadAn=         5 IDoV= 1 UseB2=F ITyADJ=14
 ICtDFT=  3500011 ScaDFX=  1.000000  1.000000  1.000000  1.000000
 FoFCou: FMM=F IPFlag=           0 FMFlag=      100000 FMFlg1=           0
         NFxFlg=           0 DoJE=T BraDBF=F KetDBF=T FulRan=T
         wScrn=  0.000000 ICntrl=       500 IOpCl=  0 I1Cent=   200000004 NGrid=           0
         NMat0=    1 NMatS0=      1 NMatT0=    0 NMatD0=    1 NMtDS0=    0 NMtDT0=    0
 Petite list used in FoFCou.
 Requested convergence on RMS density matrix=1.00D-08 within 128 cycles.
 Requested convergence on MAX density matrix=1.00D-06.
 Requested convergence on             energy=1.00D-06.
 No special actions if energy rises.
 SCF Done:  E(RB3LYP) =  -806.613130429     A.U. after   16 cycles
            NFock= 16  Conv=0.55D-08     -V/T= 2.0100

 **********************************************************************

            Population analysis using the SCF Density.

 **********************************************************************

 Orbital symmetries:
       Occupied  (A) (A) (A) (A) (A) (A) (A) (A) (A) (A) (A) (A)
                 (A) (A) (A) (A) (A) (A) (A) (A) (A) (A) (A) (A)
                 (A) (A) (A) (A) (A) (A) (A) (A) (A) (A) (A) (A)
                 (A) (A) (A) (A) (A) (A) (A) (A) (A) (A) (A) (A)
                 (A) (A) (A) (A) (A) (A) (A) (A) (A) (A) (A) (A)
                 (A) (A) (A) (A) (A) (A)
       Virtual   (A) (A) (A) (A) (A) (A) (A) (A) (A) (A) (A) (A)
                 (A) (A) (A) (A) (A) (A) (A) (A) (A) (A) (A) (A)
                 (A) (A) (A) (A) (A) (A) (A) (A) (A) (A) (A) (A)
                 (A) (A) (A) (A) (A) (A) (A) (A) (A) (A) (A) (A)
                 (A) (A) (A) (A) (A) (A) (A) (A) (A) (A) (A) (A)
                 (A) (A) (A) (A) (A) (A) (A) (A) (A) (A) (A) (A)
                 (A) (A) (A) (A) (A) (A) (A) (A) (A) (A) (A) (A)
                 (A) (A) (A) (A) (A) (A) (A) (A) (A) (A) (A) (A)
                 (A) (A) (A) (A) (A) (A) (A) (A) (A) (A) (A) (A)
                 (A) (A) (A) (A) (A) (A) (A) (A) (A) (A) (A) (A)
                 (A) (A) (A) (A) (A) (A) (A) (A) (A) (A) (A) (A)
                 (A) (A) (A) (A) (A) (A) (A) (A) (A) (A) (A) (A)
                 (A) (A) (A) (A) (A) (A) (A) (A) (A) (A) (A) (A)
                 (A) (A) (A) (A) (A) (A) (A) (A) (A) (A) (A) (A)
                 (A) (A) (A) (A) (A) (A) (A) (A) (A) (A) (A) (A)
                 (A) (A) (A) (A) (A) (A) (A) (A) (A) (A) (A) (A)
                 (A) (A) (A) (A) (A) (A) (A) (A) (A) (A) (A) (A)
                 (A) (A) (A) (A) (A) (A) (A) (A) (A) (A) (A) (A)
                 (A) (A) (A) (A) (A) (A) (A) (A) (A) (A) (A) (A)
                 (A) (A) (A) (A) (A) (A) (A) (A) (A) (A) (A) (A)
                 (A) (A) (A) (A) (A) (A) (A) (A) (A) (A) (A) (A)
                 (A) (A) (A) (A) (A) (A) (A) (A) (A) (A) (A) (A)
                 (A) (A) (A) (A) (A) (A) (A) (A) (A) (A) (A) (A)
                 (A) (A) (A) (A) (A) (A) (A) (A) (A) (A) (A) (A)
                 (A) (A) (A) (A) (A) (A) (A) (A) (A) (A) (A) (A)
                 (A) (A) (A) (A) (A) (A) (A) (A) (A) (A) (A) (A)
                 (A) (A) (A) (A) (A) (A) (A)
 The electronic state is 1-A.
 Alpha  occ. eigenvalues --  -19.19528 -19.14004 -10.29727 -10.26563 -10.23970
 Alpha  occ. eigenvalues --  -10.23858 -10.23293 -10.21949 -10.21339 -10.21227
 Alpha  occ. eigenvalues --  -10.21108 -10.21029 -10.20917 -10.20769 -10.20738
 Alpha  occ. eigenvalues --  -10.20737 -10.20234 -10.20179 -10.19937  -1.06172
 Alpha  occ. eigenvalues --   -1.03537  -0.87348  -0.87195  -0.78990  -0.77393
 Alpha  occ. eigenvalues --   -0.76709  -0.76395  -0.75627  -0.73347  -0.71041
 Alpha  occ. eigenvalues --   -0.63885  -0.62792  -0.62113  -0.60776  -0.55919
 Alpha  occ. eigenvalues --   -0.55489  -0.53653  -0.50432  -0.49518  -0.48334
 Alpha  occ. eigenvalues --   -0.48096  -0.46835  -0.46602  -0.46095  -0.45791
 Alpha  occ. eigenvalues --   -0.44284  -0.43718  -0.43359  -0.42382  -0.41503
 Alpha  occ. eigenvalues --   -0.39795  -0.39367  -0.39222  -0.38141  -0.36894
 Alpha  occ. eigenvalues --   -0.36401  -0.35277  -0.34528  -0.34064  -0.30481
 Alpha  occ. eigenvalues --   -0.28524  -0.26954  -0.26686  -0.25933  -0.24735
 Alpha  occ. eigenvalues --   -0.22543
 Alpha virt. eigenvalues --   -0.07258  -0.02906  -0.02564  -0.02056  -0.00392
 Alpha virt. eigenvalues --   -0.00049   0.00843   0.01135   0.01947   0.02497
 Alpha virt. eigenvalues --    0.02582   0.03560   0.04187   0.04320   0.04365
 Alpha virt. eigenvalues --    0.04603   0.05072   0.05189   0.05765   0.06437
 Alpha virt. eigenvalues --    0.06860   0.07072   0.07257   0.08188   0.08349
 Alpha virt. eigenvalues --    0.08895   0.09055   0.09282   0.09664   0.10036
 Alpha virt. eigenvalues --    0.10483   0.11144   0.11490   0.11533   0.11872
 Alpha virt. eigenvalues --    0.12341   0.12986   0.13137   0.13996   0.14586
 Alpha virt. eigenvalues --    0.14610   0.14841   0.14877   0.15047   0.15251
 Alpha virt. eigenvalues --    0.15533   0.15795   0.16258   0.16663   0.17643
 Alpha virt. eigenvalues --    0.18337   0.18416   0.18855   0.18961   0.19345
 Alpha virt. eigenvalues --    0.19681   0.19999   0.20322   0.20696   0.20975
 Alpha virt. eigenvalues --    0.21720   0.22165   0.22409   0.22808   0.22959
 Alpha virt. eigenvalues --    0.23102   0.23229   0.23815   0.24110   0.24535
 Alpha virt. eigenvalues --    0.24882   0.25166   0.25583   0.26184   0.27000
 Alpha virt. eigenvalues --    0.27464   0.27625   0.27822   0.28303   0.28622
 Alpha virt. eigenvalues --    0.28702   0.29196   0.30447   0.30476   0.30717
 Alpha virt. eigenvalues --    0.31265   0.31867   0.32062   0.32323   0.32445
 Alpha virt. eigenvalues --    0.33145   0.33750   0.34344   0.34449   0.35257
 Alpha virt. eigenvalues --    0.36064   0.37035   0.37152   0.37813   0.38206
 Alpha virt. eigenvalues --    0.39395   0.40282   0.40660   0.42022   0.43167
 Alpha virt. eigenvalues --    0.43610   0.44633   0.46743   0.49448   0.51020
 Alpha virt. eigenvalues --    0.56642   0.57674   0.60378   0.60680   0.64203
 Alpha virt. eigenvalues --    0.64714   0.66072   0.66573   0.67055   0.67223
 Alpha virt. eigenvalues --    0.67807   0.68241   0.68551   0.68715   0.70152
 Alpha virt. eigenvalues --    0.70997   0.71541   0.71770   0.71893   0.72508
 Alpha virt. eigenvalues --    0.73435   0.74080   0.74449   0.74693   0.75499
 Alpha virt. eigenvalues --    0.76115   0.76985   0.77925   0.78279   0.78692
 Alpha virt. eigenvalues --    0.79124   0.79423   0.80630   0.82318   0.83788
 Alpha virt. eigenvalues --    0.84339   0.84900   0.85937   0.87979   0.89515
 Alpha virt. eigenvalues --    0.90510   0.91629   0.92228   0.93123   0.93833
 Alpha virt. eigenvalues --    0.94740   0.95031   0.95334   0.96339   0.96746
 Alpha virt. eigenvalues --    0.97710   0.97914   0.98865   1.01995   1.04122
 Alpha virt. eigenvalues --    1.05481   1.07743   1.08413   1.09118   1.11683
 Alpha virt. eigenvalues --    1.13667   1.14017   1.14410   1.15983   1.16642
 Alpha virt. eigenvalues --    1.17049   1.19600   1.20046   1.20416   1.21087
 Alpha virt. eigenvalues --    1.21801   1.22586   1.23297   1.23923   1.25788
 Alpha virt. eigenvalues --    1.26557   1.27210   1.27814   1.28577   1.29485
 Alpha virt. eigenvalues --    1.30728   1.31671   1.32525   1.34217   1.36267
 Alpha virt. eigenvalues --    1.37032   1.37888   1.39651   1.39904   1.42564
 Alpha virt. eigenvalues --    1.44159   1.44335   1.44760   1.45125   1.45797
 Alpha virt. eigenvalues --    1.47286   1.48808   1.48952   1.49603   1.49786
 Alpha virt. eigenvalues --    1.52278   1.55419   1.56171   1.56526   1.57556
 Alpha virt. eigenvalues --    1.59056   1.65814   1.70403   1.72226   1.73822
 Alpha virt. eigenvalues --    1.74595   1.77048   1.78702   1.80705   1.81128
 Alpha virt. eigenvalues --    1.83159   1.84433   1.85788   1.86558   1.87402
 Alpha virt. eigenvalues --    1.88645   1.90791   1.93029   1.93829   1.95426
 Alpha virt. eigenvalues --    1.97013   1.97549   1.98200   1.98592   2.02939
 Alpha virt. eigenvalues --    2.05189   2.06644   2.08127   2.09438   2.10291
 Alpha virt. eigenvalues --    2.11856   2.13049   2.13577   2.14388   2.14968
 Alpha virt. eigenvalues --    2.16541   2.17716   2.18854   2.19634   2.20647
 Alpha virt. eigenvalues --    2.22479   2.24166   2.27399   2.28425   2.29042
 Alpha virt. eigenvalues --    2.29310   2.29579   2.30622   2.30818   2.36387
 Alpha virt. eigenvalues --    2.41069   2.41628   2.42061   2.46397   2.47547
 Alpha virt. eigenvalues --    2.47879   2.49358   2.51074   2.52836   2.58578
 Alpha virt. eigenvalues --    2.61856   2.63537   2.63754   2.63937   2.64367
 Alpha virt. eigenvalues --    2.66551   2.72350   2.74811   2.76267   2.77632
 Alpha virt. eigenvalues --    2.79005   2.81542   2.84688   2.86597   2.90644
 Alpha virt. eigenvalues --    2.93514   2.97643   3.00782   3.03864   3.08000
 Alpha virt. eigenvalues --    3.12884   3.19072   3.31374   3.40298   3.55668
 Alpha virt. eigenvalues --    4.17360   4.18898   4.21697   4.22908   4.23893
 Alpha virt. eigenvalues --    4.25004   4.26510   4.28848   4.31661   4.38219
 Alpha virt. eigenvalues --    4.39479   4.42489   4.44263   4.47695   4.52991
 Alpha virt. eigenvalues --    4.60097   4.67277   4.78120   4.90406
          Condensed to atoms (all electrons):
               1          2          3          4          5          6
     1  C   12.603583  -4.480228   2.185054   1.485912  -3.249677  -0.490469
     2  C   -4.480228  18.852472  -4.717538 -11.731817   4.637392  -1.474251
     3  C    2.185054  -4.717538  11.860422   1.304633  -1.010960  -0.360956
     4  C    1.485912 -11.731817   1.304633  34.686770 -13.657418   1.498453
     5  C   -3.249677   4.637392  -1.010960 -13.657418  15.814528  -0.946512
     6  C   -0.490469  -1.474251  -0.360956   1.498453  -0.946512   8.578004
     7  H    0.362553  -0.136666   0.036085   0.008896   0.023686   0.008407
     8  H   -0.121619   0.431553  -0.089267  -0.012270  -0.000359   0.027797
     9  H   -0.010691   0.016074  -0.024662   0.338413  -0.064988  -0.001659
    10  H   -0.014256  -0.014040  -0.002542   0.191761   0.160729  -0.005917
    11  C   -1.274101   4.362959  -3.194796  -4.747134   2.275839  -0.636670
    12  C    0.081606  -0.289766   0.999973  -0.342354  -0.016232  -0.102007
    13  C   -0.192097   0.842372  -1.198940  -1.403084   0.576016  -0.049341
    14  C    0.049286   0.033569  -0.066480  -0.019301  -0.024981  -0.000545
    15  C   -0.036236  -0.039978  -0.062368   0.032029   0.034680   0.000608
    16  C    0.018354  -0.018529   0.196160   0.047085  -0.026511   0.004638
    17  H   -0.000372   0.001004   0.000401  -0.000031   0.000061   0.000028
    18  C   -0.008369   0.008269   0.004732  -0.011877  -0.000964   0.000710
    19  H   -0.000023   0.000138   0.001695   0.000627   0.000071   0.000033
    20  C   -0.004551   0.032933  -0.097344  -0.055032   0.023049  -0.000652
    21  H    0.000002   0.000025  -0.000020  -0.000011  -0.000002   0.000000
    22  H    0.000000  -0.000016  -0.000075   0.000041  -0.000002   0.000000
    23  O   -0.564195   0.058191  -0.041032  -0.086536   0.161134   0.432521
    24  C   -0.049038   0.052323  -0.056119  -0.084793   0.025184  -0.208400
    25  H   -0.023993  -0.009968  -0.008876   0.105378   0.028307  -0.108136
    26  H   -0.050891   0.006816  -0.006349   0.074026   0.053113  -0.107054
    27  H    0.043476   0.003041   0.002760  -0.035197  -0.073552   0.084915
    28  C   -0.000503   0.003672  -0.008020  -0.006346   0.001634   0.000008
    29  O    0.000000   0.000007   0.000031  -0.000011   0.000002   0.000000
    30  C    0.000004   0.000026   0.000317  -0.000026  -0.000016   0.000002
    31  H    0.000000   0.000000   0.000000   0.000000   0.000000   0.000000
    32  H    0.000000   0.000000   0.000000   0.000000   0.000000   0.000000
    33  H    0.000000   0.000000   0.000000   0.000000   0.000000   0.000000
               7          8          9         10         11         12
     1  C    0.362553  -0.121619  -0.010691  -0.014256  -1.274101   0.081606
     2  C   -0.136666   0.431553   0.016074  -0.014040   4.362959  -0.289766
     3  C    0.036085  -0.089267  -0.024662  -0.002542  -3.194796   0.999973
     4  C    0.008896  -0.012270   0.338413   0.191761  -4.747134  -0.342354
     5  C    0.023686  -0.000359  -0.064988   0.160729   2.275839  -0.016232
     6  C    0.008407   0.027797  -0.001659  -0.005917  -0.636670  -0.102007
     7  H    0.514847  -0.004340   0.000014  -0.000151  -0.007999   0.001099
     8  H   -0.004340   0.514038  -0.000151   0.000016   0.051851  -0.004862
     9  H    0.000014  -0.000151   0.518069  -0.004684   0.036413  -0.003655
    10  H   -0.000151   0.000016  -0.004684   0.545098  -0.012561  -0.000834
    11  C   -0.007999   0.051851   0.036413  -0.012561   9.307986   0.025730
    12  C    0.001099  -0.004862  -0.003655  -0.000834   0.025730   6.773854
    13  C   -0.000160   0.004404   0.000949  -0.000347   0.521551  -0.831288
    14  C    0.000046   0.000454  -0.000087  -0.000018  -0.185993  -0.166384
    15  C   -0.000019   0.000260   0.001139   0.000059  -0.272825  -0.016359
    16  C    0.000004  -0.000417   0.000020   0.000000   0.123382   0.337366
    17  H    0.000000   0.000000   0.000000   0.000000  -0.001155   0.022821
    18  C   -0.000001  -0.000034   0.000216   0.000003  -0.041458   0.064871
    19  H    0.000000   0.000000   0.000000   0.000000  -0.011108   0.030471
    20  C    0.000000   0.000058  -0.000005  -0.000001  -0.205571  -0.492843
    21  H    0.000000   0.000000   0.000000   0.000000   0.001136  -0.005297
    22  H    0.000000   0.000000   0.000000   0.000000   0.001822  -0.003300
    23  O   -0.004049  -0.000440  -0.000538  -0.017049   0.009889   0.000176
    24  C   -0.000319   0.000492   0.001466  -0.002558   0.023850  -0.003871
    25  H    0.000005   0.000000   0.000001  -0.002273  -0.001399  -0.000112
    26  H    0.000007   0.000000   0.000010  -0.002008  -0.000542  -0.000039
    27  H   -0.000007   0.000000   0.000000   0.000537   0.000229   0.000011
    28  C    0.000000   0.000001   0.000000   0.000000  -0.119839   0.022709
    29  O    0.000000   0.000000   0.000000   0.000000  -0.000665   0.000490
    30  C    0.000000   0.000000   0.000000   0.000000   0.001012   0.002321
    31  H    0.000000   0.000000   0.000000   0.000000   0.000003  -0.000053
    32  H    0.000000   0.000000   0.000000   0.000000  -0.000004   0.000049
    33  H    0.000000   0.000000   0.000000   0.000000   0.000001  -0.000020
              13         14         15         16         17         18
     1  C   -0.192097   0.049286  -0.036236   0.018354  -0.000372  -0.008369
     2  C    0.842372   0.033569  -0.039978  -0.018529   0.001004   0.008269
     3  C   -1.198940  -0.066480  -0.062368   0.196160   0.000401   0.004732
     4  C   -1.403084  -0.019301   0.032029   0.047085  -0.000031  -0.011877
     5  C    0.576016  -0.024981   0.034680  -0.026511   0.000061  -0.000964
     6  C   -0.049341  -0.000545   0.000608   0.004638   0.000028   0.000710
     7  H   -0.000160   0.000046  -0.000019   0.000004   0.000000  -0.000001
     8  H    0.004404   0.000454   0.000260  -0.000417   0.000000  -0.000034
     9  H    0.000949  -0.000087   0.001139   0.000020   0.000000   0.000216
    10  H   -0.000347  -0.000018   0.000059   0.000000   0.000000   0.000003
    11  C    0.521551  -0.185993  -0.272825   0.123382  -0.001155  -0.041458
    12  C   -0.831288  -0.166384  -0.016359   0.337366   0.022821   0.064871
    13  C    8.716840  -0.289161  -0.300164   0.242524  -0.023607  -0.085004
    14  C   -0.289161  10.123248  -0.322616  -0.191844   0.350386  -2.661479
    15  C   -0.300164  -0.322616   8.922379  -2.524693   0.017720   0.238413
    16  C    0.242524  -0.191844  -2.524693  10.782228  -0.083612  -1.029353
    17  H   -0.023607   0.350386   0.017720  -0.083612   0.520539  -0.007715
    18  C   -0.085004  -2.661479   0.238413  -1.029353  -0.007715   9.475552
    19  H   -0.050739   0.022535   0.397812  -0.018751  -0.000145  -0.109463
    20  C    0.484595   0.242247  -0.854355  -1.073913   0.002063  -0.400750
    21  H    0.024901  -0.066944   0.012755   0.247889  -0.003890   0.025997
    22  H    0.045195  -0.012439  -0.098617   0.021182   0.000013   0.403244
    23  O    0.000225   0.000008  -0.000021  -0.000001   0.000000  -0.000001
    24  C    0.001794  -0.000041   0.000006   0.000003   0.000000   0.000004
    25  H   -0.000014   0.000000   0.000001   0.000000   0.000000   0.000000
    26  H   -0.000005   0.000000   0.000001   0.000000   0.000000   0.000000
    27  H    0.000001   0.000000   0.000000   0.000000   0.000000   0.000000
    28  C   -1.116356   0.036215   0.685191  -0.082188   0.009150  -0.193582
    29  O   -0.013409   0.007870   0.171061  -0.074988   0.000066  -0.020234
    30  C    0.037845  -0.295960   0.000690  -0.083612   0.000206   0.237140
    31  H    0.001540  -0.008620   0.000349  -0.025570   0.000000   0.014183
    32  H    0.000227   0.010376  -0.000380   0.011136   0.000000  -0.006516
    33  H    0.000522  -0.001734  -0.001369  -0.004658   0.000000  -0.005278
              19         20         21         22         23         24
     1  C   -0.000023  -0.004551   0.000002   0.000000  -0.564195  -0.049038
     2  C    0.000138   0.032933   0.000025  -0.000016   0.058191   0.052323
     3  C    0.001695  -0.097344  -0.000020  -0.000075  -0.041032  -0.056119
     4  C    0.000627  -0.055032  -0.000011   0.000041  -0.086536  -0.084793
     5  C    0.000071   0.023049  -0.000002  -0.000002   0.161134   0.025184
     6  C    0.000033  -0.000652   0.000000   0.000000   0.432521  -0.208400
     7  H    0.000000   0.000000   0.000000   0.000000  -0.004049  -0.000319
     8  H    0.000000   0.000058   0.000000   0.000000  -0.000440   0.000492
     9  H    0.000000  -0.000005   0.000000   0.000000  -0.000538   0.001466
    10  H    0.000000  -0.000001   0.000000   0.000000  -0.017049  -0.002558
    11  C   -0.011108  -0.205571   0.001136   0.001822   0.009889   0.023850
    12  C    0.030471  -0.492843  -0.005297  -0.003300   0.000176  -0.003871
    13  C   -0.050739   0.484595   0.024901   0.045195   0.000225   0.001794
    14  C    0.022535   0.242247  -0.066944  -0.012439   0.000008  -0.000041
    15  C    0.397812  -0.854355   0.012755  -0.098617  -0.000021   0.000006
    16  C   -0.018751  -1.073913   0.247889   0.021182  -0.000001   0.000003
    17  H   -0.000145   0.002063  -0.003890   0.000013   0.000000   0.000000
    18  C   -0.109463  -0.400750   0.025997   0.403244  -0.000001   0.000004
    19  H    0.516384   0.021126   0.000016  -0.004436   0.000000   0.000000
    20  C    0.021126  13.330912   0.081619  -0.017714   0.000000   0.000024
    21  H    0.000016   0.081619   0.539491  -0.000143   0.000000   0.000000
    22  H   -0.004436  -0.017714  -0.000143   0.490411   0.000000   0.000000
    23  O    0.000000   0.000000   0.000000   0.000000   8.430360   0.113593
    24  C    0.000000   0.000024   0.000000   0.000000   0.113593   5.325528
    25  H    0.000000   0.000000   0.000000   0.000000  -0.033746   0.390430
    26  H    0.000000   0.000000   0.000000   0.000000  -0.033144   0.400207
    27  H    0.000000   0.000000   0.000000   0.000000  -0.055164   0.379556
    28  C    0.003970  -4.184563  -0.030494  -0.049186   0.000000   0.000001
    29  O    0.000470  -0.479226   0.000581  -0.013559   0.000000   0.000000
    30  C   -0.000428  -0.490138  -0.008614   0.011552   0.000000   0.000000
    31  H    0.000000   0.074387  -0.000121   0.000004   0.000000   0.000000
    32  H    0.000000   0.002540  -0.000103   0.000003   0.000000   0.000000
    33  H    0.000000   0.039697  -0.000006  -0.000014   0.000000   0.000000
              25         26         27         28         29         30
     1  C   -0.023993  -0.050891   0.043476  -0.000503   0.000000   0.000004
     2  C   -0.009968   0.006816   0.003041   0.003672   0.000007   0.000026
     3  C   -0.008876  -0.006349   0.002760  -0.008020   0.000031   0.000317
     4  C    0.105378   0.074026  -0.035197  -0.006346  -0.000011  -0.000026
     5  C    0.028307   0.053113  -0.073552   0.001634   0.000002  -0.000016
     6  C   -0.108136  -0.107054   0.084915   0.000008   0.000000   0.000002
     7  H    0.000005   0.000007  -0.000007   0.000000   0.000000   0.000000
     8  H    0.000000   0.000000   0.000000   0.000001   0.000000   0.000000
     9  H    0.000001   0.000010   0.000000   0.000000   0.000000   0.000000
    10  H   -0.002273  -0.002008   0.000537   0.000000   0.000000   0.000000
    11  C   -0.001399  -0.000542   0.000229  -0.119839  -0.000665   0.001012
    12  C   -0.000112  -0.000039   0.000011   0.022709   0.000490   0.002321
    13  C   -0.000014  -0.000005   0.000001  -1.116356  -0.013409   0.037845
    14  C    0.000000   0.000000   0.000000   0.036215   0.007870  -0.295960
    15  C    0.000001   0.000001   0.000000   0.685191   0.171061   0.000690
    16  C    0.000000   0.000000   0.000000  -0.082188  -0.074988  -0.083612
    17  H    0.000000   0.000000   0.000000   0.009150   0.000066   0.000206
    18  C    0.000000   0.000000   0.000000  -0.193582  -0.020234   0.237140
    19  H    0.000000   0.000000   0.000000   0.003970   0.000470  -0.000428
    20  C    0.000000   0.000000   0.000000  -4.184563  -0.479226  -0.490138
    21  H    0.000000   0.000000   0.000000  -0.030494   0.000581  -0.008614
    22  H    0.000000   0.000000   0.000000  -0.049186  -0.013559   0.011552
    23  O   -0.033746  -0.033144  -0.055164   0.000000   0.000000   0.000000
    24  C    0.390430   0.400207   0.379556   0.000001   0.000000   0.000000
    25  H    0.539895  -0.053674  -0.029058   0.000000   0.000000   0.000000
    26  H   -0.053674   0.542321  -0.029372   0.000000   0.000000   0.000000
    27  H   -0.029058  -0.029372   0.498410   0.000000   0.000000   0.000000
    28  C    0.000000   0.000000   0.000000  10.313931   0.591107  -0.553733
    29  O    0.000000   0.000000   0.000000   0.591107   8.294767  -0.104122
    30  C    0.000000   0.000000   0.000000  -0.553733  -0.104122   6.811810
    31  H    0.000000   0.000000   0.000000  -0.149433   0.003034   0.428727
    32  H    0.000000   0.000000   0.000000  -0.085564   0.004194   0.399867
    33  H    0.000000   0.000000   0.000000  -0.136493  -0.000381   0.462273
              31         32         33
     1  C    0.000000   0.000000   0.000000
     2  C    0.000000   0.000000   0.000000
     3  C    0.000000   0.000000   0.000000
     4  C    0.000000   0.000000   0.000000
     5  C    0.000000   0.000000   0.000000
     6  C    0.000000   0.000000   0.000000
     7  H    0.000000   0.000000   0.000000
     8  H    0.000000   0.000000   0.000000
     9  H    0.000000   0.000000   0.000000
    10  H    0.000000   0.000000   0.000000
    11  C    0.000003  -0.000004   0.000001
    12  C   -0.000053   0.000049  -0.000020
    13  C    0.001540   0.000227   0.000522
    14  C   -0.008620   0.010376  -0.001734
    15  C    0.000349  -0.000380  -0.001369
    16  C   -0.025570   0.011136  -0.004658
    17  H    0.000000   0.000000   0.000000
    18  C    0.014183  -0.006516  -0.005278
    19  H    0.000000   0.000000   0.000000
    20  C    0.074387   0.002540   0.039697
    21  H   -0.000121  -0.000103  -0.000006
    22  H    0.000004   0.000003  -0.000014
    23  O    0.000000   0.000000   0.000000
    24  C    0.000000   0.000000   0.000000
    25  H    0.000000   0.000000   0.000000
    26  H    0.000000   0.000000   0.000000
    27  H    0.000000   0.000000   0.000000
    28  C   -0.149433  -0.085564  -0.136493
    29  O    0.003034   0.004194  -0.000381
    30  C    0.428727   0.399867   0.462273
    31  H    0.475187  -0.026300  -0.022850
    32  H   -0.026300   0.483926  -0.023564
    33  H   -0.022850  -0.023564   0.437169
 Mulliken charges:
               1
     1  C   -0.258522
     2  C   -0.430040
     3  C    0.354082
     4  C   -1.580786
     5  C    1.256749
     6  C   -0.143555
     7  H    0.198063
     8  H    0.202835
     9  H    0.198333
    10  H    0.181035
    11  C   -0.029834
    12  C   -0.084272
    13  C    0.052214
    14  C   -0.561611
    15  C    0.014850
    16  C   -0.793330
    17  H    0.196069
    18  C    0.108746
    19  H    0.199744
    20  C    0.021405
    21  H    0.181232
    22  H    0.226033
    23  O   -0.370181
    24  C   -0.309321
    25  H    0.207232
    26  H    0.206577
    27  H    0.209414
    28  C    1.048710
    29  O   -0.367083
    30  C   -0.857142
    31  H    0.235534
    32  H    0.230114
    33  H    0.256706
 Sum of Mulliken charges =   0.00000
 Mulliken charges with hydrogens summed into heavy atoms:
               1
     1  C   -0.060460
     2  C   -0.227205
     3  C    0.354082
     4  C   -1.382453
     5  C    1.437784
     6  C   -0.143555
    11  C   -0.029834
    12  C   -0.084272
    13  C    0.052214
    14  C   -0.365542
    15  C    0.214594
    16  C   -0.612098
    18  C    0.334778
    20  C    0.021405
    23  O   -0.370181
    24  C    0.313903
    28  C    1.048710
    29  O   -0.367083
    30  C   -0.134788
 Electronic spatial extent (au):  <R**2>=          11412.5294
 Charge=              0.0000 electrons
 Dipole moment (field-independent basis, Debye):
    X=              0.7935    Y=              1.1588    Z=              0.8969  Tot=              1.6664
 Quadrupole moment (field-independent basis, Debye-Ang):
   XX=            -92.9593   YY=           -103.6555   ZZ=           -116.2730
   XY=            -28.9231   XZ=             -1.4132   YZ=             -1.1345
 Traceless Quadrupole moment (field-independent basis, Debye-Ang):
   XX=             11.3366   YY=              0.6404   ZZ=            -11.9771
   XY=            -28.9231   XZ=             -1.4132   YZ=             -1.1345
 Octapole moment (field-independent basis, Debye-Ang**2):
  XXX=             25.0739  YYY=              3.0007  ZZZ=              1.4733  XYY=             28.5301
  XXY=             41.9076  XXZ=             49.2109  XZZ=             -4.5734  YZZ=             -1.7120
  YYZ=             -0.8413  XYZ=             -8.2650
 Hexadecapole moment (field-independent basis, Debye-Ang**3):
 XXXX=         -13074.4796 YYYY=           -730.8482 ZZZZ=           -180.8765 XXXY=          -1420.9258
 XXXZ=            -31.6499 YYYX=              0.5503 YYYZ=             -3.3037 ZZZX=              5.8839
 ZZZY=              1.7621 XXYY=          -2527.5872 XXZZ=          -2492.5001 YYZZ=           -167.0938
 XXYZ=            -50.5496 YYXZ=             -7.4194 ZZXY=             -3.0092
 N-N= 1.146359460489D+03 E-N=-4.164915880581D+03  KE= 7.986283943977D+02
 Evaluate density.
 Using the total density.
 Monte-Carlo method of calculating molar volume:
 based on  0.001 e/bohr**3 density envelope.
 Number of points per bohr**3 =   20 CutOff= 1.00D-04
 Using the SCF density.
 There are       436 points.  Will hold       436 in memory.
 LenV=  4026208782 MDV=  4026531840.
 Box volume =10399.376 fraction occupied=0.190
 Integrated density= 7.3045107861335254D+01 error=-5.8954892138664746D+01
 Molar volume = 1979.698 bohr**3/mol (176.666 cm**3/mol)
 Recommended a0 for SCRF calculation =  5.04 angstrom (  9.52 bohr)
 Calling FoFJK, ICntrl=      2127 FMM=F ISym2X=0 I1Cent= 0 IOpClX= 0 NMat=1 NMatS=1 NMatT=0.
 ***** Axes restored to original set *****
 -------------------------------------------------------------------
 Center     Atomic                   Forces (Hartrees/Bohr)
 Number     Number              X              Y              Z
 -------------------------------------------------------------------
      1        6          -0.002648566   -0.004768952    0.008831391
      2        6          -0.008796198    0.002330180    0.004825809
      3        6           0.065637509   -0.009213950    0.012444588
      4        6           0.000119157    0.006822091   -0.005865994
      5        6           0.006910291    0.001334019   -0.007797089
      6        6          -0.028885172    0.001932155   -0.002198817
      7        1           0.000687311    0.001348010   -0.005115136
      8        1          -0.003428035    0.002705377   -0.005278570
      9        1          -0.002224037   -0.001137090    0.003703116
     10        1           0.014395260   -0.003589667    0.005693634
     11        6          -0.089563090    0.002251367   -0.010635483
     12        6           0.090100171   -0.000720616    0.000965869
     13        6          -0.064361890    0.004207157    0.004953013
     14        6          -0.000361912   -0.002560540    0.011371976
     15        6           0.007407187   -0.002303040   -0.008102315
     16        6          -0.007095307    0.001037933    0.002603622
     17        1           0.001295118    0.000219368   -0.004730862
     18        6          -0.014393730    0.001420413   -0.012419796
     19        1           0.002797865    0.000200338    0.005339545
     20        6           0.021504521   -0.002432713    0.057482350
     21        1          -0.002396668    0.000082849   -0.003457550
     22        1          -0.007042040    0.000153952    0.008555302
     23        8           0.037651824    0.000796073   -0.003465581
     24        6          -0.006770335   -0.007056589    0.016736801
     25        1           0.001305849    0.018527927   -0.003706357
     26        1          -0.000441172   -0.010121066   -0.015955751
     27        1          -0.015456908   -0.002175599    0.006715758
     28        6          -0.034010503    0.006460189   -0.095995370
     29        8           0.068328421   -0.003323073    0.028507414
     30        6          -0.038647119   -0.003711224   -0.007922081
     31        1          -0.000610715    0.014600700    0.012141014
     32        1           0.000289194   -0.012356565    0.014887231
     33        1           0.008703717   -0.000959411   -0.013111677
 -------------------------------------------------------------------
 Cartesian Forces:  Max     0.095995370 RMS     0.023031777

 GradGradGradGradGradGradGradGradGradGradGradGradGradGradGradGradGradGrad
 Berny optimization.
 FormGI is forming the generalized inverse of G from B-inverse, IUseBI=4.
 Internal  Forces:  Max     0.130770004 RMS     0.018195539
 Search for a local minimum.
 Step number   1 out of a maximum of  167
 All quantities printed in internal units (Hartrees-Bohrs-Radians)
 Mixed Optimization -- RFO/linear search
 Second derivative matrix not updated -- first step.
 ITU=  0
     Eigenvalues ---    0.00230   0.00230   0.00230   0.00230   0.00237
     Eigenvalues ---    0.00243   0.01295   0.01295   0.01517   0.01545
     Eigenvalues ---    0.01669   0.01965   0.02079   0.02091   0.02104
     Eigenvalues ---    0.02111   0.02116   0.02117   0.02118   0.02120
     Eigenvalues ---    0.02122   0.02125   0.02126   0.02132   0.02148
     Eigenvalues ---    0.02165   0.03984   0.04701   0.07243   0.07243
     Eigenvalues ---    0.10344   0.10344   0.15990   0.15994   0.15995
     Eigenvalues ---    0.15996   0.16000   0.16000   0.16000   0.16000
     Eigenvalues ---    0.16000   0.16000   0.16000   0.16000   0.16000
     Eigenvalues ---    0.16000   0.21985   0.21994   0.22975   0.22980
     Eigenvalues ---    0.23987   0.23991   0.24971   0.24980   0.24991
     Eigenvalues ---    0.24994   0.25000   0.25000   0.25000   0.26737
     Eigenvalues ---    0.28340   0.28403   0.28519   0.34254   0.34325
     Eigenvalues ---    0.34394   0.34399   0.34412   0.34413   0.34464
     Eigenvalues ---    0.34556   0.37230   0.37230   0.37230   0.37230
     Eigenvalues ---    0.37230   0.37230   0.40989   0.40989   0.41551
     Eigenvalues ---    0.41751   0.42154   0.42205   0.45390   0.45833
     Eigenvalues ---    0.45928   0.45974   0.45996   0.46091   0.46204
     Eigenvalues ---    0.46785   0.80209   1.05241
 RFO step:  Lambda=-1.31339308D-01 EMin= 2.30000000D-03
 Linear search not attempted -- first point.
 Maximum step size (   0.300) exceeded in Quadratic search.
    -- Step size scaled by   0.518
 Iteration  1 RMS(Cart)=  0.12411443 RMS(Int)=  0.00656895
 Iteration  2 RMS(Cart)=  0.01594281 RMS(Int)=  0.00009118
 Iteration  3 RMS(Cart)=  0.00017790 RMS(Int)=  0.00004789
 Iteration  4 RMS(Cart)=  0.00000003 RMS(Int)=  0.00004789
 Variable       Old X    -DE/DX   Delta X   Delta X   Delta X     New X
                                 (Linear)    (Quad)   (Total)
    R1        2.64067  -0.00569   0.00000  -0.00523  -0.00523   2.63544
    R2        2.64223   0.00065   0.00000   0.00058   0.00059   2.64282
    R3        2.06640  -0.00495   0.00000  -0.00539  -0.00539   2.06102
    R4        2.65214   0.00048   0.00000   0.00016   0.00015   2.65229
    R5        2.06903  -0.00684   0.00000  -0.00747  -0.00747   2.06156
    R6        2.62850   0.00244   0.00000   0.00208   0.00208   2.63058
    R7        2.91400  -0.05835   0.00000  -0.07282  -0.07282   2.84118
    R8        2.64421  -0.00114   0.00000  -0.00075  -0.00075   2.64346
    R9        2.06401  -0.00446   0.00000  -0.00484  -0.00484   2.05918
   R10        2.64263   0.01225   0.00000   0.01101   0.01101   2.65364
   R11        2.06671  -0.01318   0.00000  -0.01436  -0.01436   2.05235
   R12        2.70231  -0.01626   0.00000  -0.01555  -0.01555   2.68675
   R13        2.26611   0.03151   0.00000   0.01378   0.01378   2.27988
   R14        2.91266  -0.05860   0.00000  -0.07302  -0.07302   2.83964
   R15        2.64178  -0.00118   0.00000  -0.00124  -0.00125   2.64054
   R16        2.63832   0.00668   0.00000   0.00567   0.00566   2.64399
   R17        2.64183  -0.00170   0.00000  -0.00155  -0.00155   2.64028
   R18        2.06554  -0.00474   0.00000  -0.00516  -0.00516   2.06038
   R19        2.64238  -0.00367   0.00000  -0.00316  -0.00316   2.63922
   R20        2.06786  -0.00602   0.00000  -0.00657  -0.00657   2.06129
   R21        2.64009   0.00967   0.00000   0.00860   0.00861   2.64870
   R22        2.06662  -0.00419   0.00000  -0.00457  -0.00457   2.06205
   R23        2.63983   0.01115   0.00000   0.00994   0.00995   2.64978
   R24        2.06639  -0.01093   0.00000  -0.01190  -0.01190   2.05449
   R25        2.94985   0.00533   0.00000   0.00691   0.00691   2.95677
   R26        2.70231   0.00406   0.00000   0.00388   0.00388   2.70619
   R27        2.02201   0.01807   0.00000   0.01858   0.01858   2.04058
   R28        2.02201   0.01793   0.00000   0.01843   0.01843   2.04044
   R29        2.02201   0.01564   0.00000   0.01607   0.01607   2.03808
   R30        2.37803  -0.01965   0.00000  -0.01090  -0.01090   2.36713
   R31        2.91018  -0.02061   0.00000  -0.02561  -0.02561   2.88456
   R32        2.02201   0.01878   0.00000   0.01930   0.01930   2.04131
   R33        2.02201   0.01899   0.00000   0.01951   0.01951   2.04152
   R34        2.02201   0.01450   0.00000   0.01491   0.01491   2.03691
    A1        2.09366   0.00470   0.00000   0.00634   0.00634   2.10001
    A2        2.09504  -0.00040   0.00000   0.00029   0.00029   2.09533
    A3        2.09447  -0.00430   0.00000  -0.00663  -0.00663   2.08784
    A4        2.09099   0.00270   0.00000   0.00292   0.00292   2.09391
    A5        2.09389  -0.00117   0.00000  -0.00112  -0.00112   2.09276
    A6        2.09796  -0.00151   0.00000  -0.00172  -0.00172   2.09624
    A7        2.09733  -0.00344   0.00000  -0.00526  -0.00527   2.09206
    A8        2.03358   0.01160   0.00000   0.01605   0.01605   2.04964
    A9        2.15206  -0.00815   0.00000  -0.01076  -0.01076   2.14130
   A10        2.09293   0.00265   0.00000   0.00417   0.00416   2.09709
   A11        2.09462  -0.00120   0.00000  -0.00184  -0.00183   2.09279
   A12        2.09507  -0.00141   0.00000  -0.00222  -0.00222   2.09286
   A13        2.09517  -0.00017   0.00000   0.00047   0.00047   2.09564
   A14        2.09387  -0.00906   0.00000  -0.01648  -0.01648   2.07739
   A15        2.09414   0.00923   0.00000   0.01601   0.01601   2.11015
   A16        2.09442  -0.00635   0.00000  -0.00833  -0.00833   2.08609
   A17        2.09448  -0.03987   0.00000  -0.05427  -0.05427   2.04021
   A18        2.09428   0.04622   0.00000   0.06260   0.06260   2.15688
   A19        2.09307   0.00056   0.00000   0.00116   0.00117   2.09424
   A20        2.09164   0.00101   0.00000   0.00177   0.00178   2.09342
   A21        2.09779  -0.00155   0.00000  -0.00285  -0.00287   2.09492
   A22        2.09144  -0.00266   0.00000  -0.00461  -0.00462   2.08683
   A23        2.09611   0.00005   0.00000   0.00004   0.00004   2.09614
   A24        2.09540   0.00262   0.00000   0.00461   0.00462   2.10002
   A25        2.09320   0.00460   0.00000   0.00640   0.00638   2.09958
   A26        2.09628  -0.00254   0.00000  -0.00361  -0.00361   2.09267
   A27        2.09347  -0.00205   0.00000  -0.00274  -0.00274   2.09073
   A28        2.09342   0.00948   0.00000   0.01386   0.01387   2.10729
   A29        2.09403  -0.00510   0.00000  -0.00757  -0.00758   2.08645
   A30        2.09573  -0.00438   0.00000  -0.00629  -0.00629   2.08944
   A31        2.09222   0.00105   0.00000   0.00176   0.00176   2.09399
   A32        2.09489  -0.00240   0.00000  -0.00420  -0.00421   2.09068
   A33        2.09607   0.00135   0.00000   0.00245   0.00244   2.09851
   A34        2.09766  -0.01090   0.00000  -0.01446  -0.01444   2.08322
   A35        2.11456  -0.01570   0.00000  -0.02147  -0.02148   2.09308
   A36        2.07064   0.02661   0.00000   0.03598   0.03597   2.10661
   A37        1.91063   0.08416   0.00000   0.11423   0.11423   2.02487
   A38        1.91063   0.00810   0.00000   0.01520   0.01509   1.92572
   A39        1.91063   0.00823   0.00000   0.01541   0.01530   1.92593
   A40        1.91063  -0.01482   0.00000  -0.02795  -0.02794   1.88270
   A41        1.91063   0.00125   0.00000   0.00545   0.00522   1.91585
   A42        1.91063  -0.00127   0.00000  -0.00384  -0.00383   1.90681
   A43        1.91063  -0.00149   0.00000  -0.00428  -0.00427   1.90636
   A44        1.71792   0.13077   0.00000   0.17766   0.17767   1.89559
   A45        2.47068  -0.09216   0.00000  -0.12497  -0.12495   2.34573
   A46        2.09241  -0.03876   0.00000  -0.05256  -0.05253   2.03988
   A47        1.91063   0.00232   0.00000   0.00404   0.00403   1.91466
   A48        1.91063   0.00475   0.00000   0.00857   0.00857   1.91921
   A49        1.91063  -0.00955   0.00000  -0.01700  -0.01698   1.89365
   A50        1.91063  -0.00344   0.00000  -0.00605  -0.00607   1.90456
   A51        1.91063   0.00322   0.00000   0.00548   0.00548   1.91611
   A52        1.91063   0.00270   0.00000   0.00497   0.00500   1.91564
   A53        3.17054  -0.00293   0.00000  -0.00853  -0.00853   3.16200
   A54        3.14159   0.00093   0.00000   0.00366   0.00366   3.14525
   A55        3.13228   0.00082   0.00000   0.00243   0.00243   3.13470
   A56        3.14159  -0.00002   0.00000   0.00004   0.00005   3.14163
    D1        0.02934  -0.00066   0.00000  -0.00244  -0.00245   0.02689
    D2       -3.14082   0.00028   0.00000   0.00076   0.00075  -3.14007
    D3       -3.10907  -0.00084   0.00000  -0.00298  -0.00299  -3.11206
    D4        0.00396   0.00010   0.00000   0.00022   0.00021   0.00417
    D5        0.00343   0.00003   0.00000   0.00005   0.00005   0.00348
    D6       -3.13978   0.00003   0.00000   0.00005   0.00006  -3.13972
    D7       -3.14135   0.00022   0.00000   0.00061   0.00060  -3.14075
    D8       -0.00137   0.00022   0.00000   0.00061   0.00061  -0.00077
    D9       -0.06456   0.00157   0.00000   0.00539   0.00539  -0.05918
   D10        3.09824   0.00133   0.00000   0.00428   0.00427   3.10251
   D11        3.10566   0.00063   0.00000   0.00218   0.00217   3.10783
   D12       -0.01472   0.00039   0.00000   0.00106   0.00105  -0.01366
   D13        0.06660  -0.00166   0.00000  -0.00558  -0.00558   0.06102
   D14       -3.11087  -0.00062   0.00000  -0.00202  -0.00201  -3.11288
   D15       -3.09770  -0.00115   0.00000  -0.00404  -0.00406  -3.10176
   D16        0.00801  -0.00011   0.00000  -0.00048  -0.00049   0.00752
   D17       -0.42138   0.00094   0.00000   0.00334   0.00335  -0.41803
   D18        2.76189   0.00006   0.00000   0.00027   0.00028   2.76217
   D19        2.74721   0.00010   0.00000   0.00036   0.00035   2.74757
   D20       -0.35271  -0.00078   0.00000  -0.00271  -0.00272  -0.35542
   D21       -0.03360   0.00084   0.00000   0.00291   0.00292  -0.03068
   D22        3.10669   0.00095   0.00000   0.00327   0.00327   3.10996
   D23       -3.13930  -0.00020   0.00000  -0.00066  -0.00066  -3.13996
   D24        0.00098  -0.00009   0.00000  -0.00031  -0.00031   0.00068
   D25       -0.00147  -0.00010   0.00000  -0.00028  -0.00027  -0.00174
   D26       -3.14144  -0.00003   0.00000  -0.00017  -0.00016   3.14158
   D27        3.14144  -0.00020   0.00000  -0.00061  -0.00061   3.14083
   D28        0.00146  -0.00013   0.00000  -0.00050  -0.00050   0.00096
   D29        3.11946  -0.00007   0.00000  -0.00030  -0.00030   3.11916
   D30       -0.02375  -0.00012   0.00000  -0.00037  -0.00037  -0.02412
   D31       -3.13968   0.00021   0.00000   0.00047   0.00046  -3.13922
   D32        0.02538  -0.00045   0.00000  -0.00160  -0.00160   0.02379
   D33       -0.03799   0.00090   0.00000   0.00290   0.00289  -0.03510
   D34        3.12707   0.00024   0.00000   0.00084   0.00084   3.12791
   D35        3.14019  -0.00002   0.00000  -0.00017  -0.00017   3.14001
   D36       -0.02477   0.00045   0.00000   0.00160   0.00160  -0.02317
   D37        0.03847  -0.00070   0.00000  -0.00259  -0.00259   0.03587
   D38       -3.12649  -0.00023   0.00000  -0.00082  -0.00082  -3.12731
   D39        0.02003  -0.00050   0.00000  -0.00169  -0.00169   0.01834
   D40       -3.12378  -0.00060   0.00000  -0.00184  -0.00184  -3.12561
   D41        3.13816   0.00013   0.00000   0.00032   0.00031   3.13847
   D42       -0.00565   0.00003   0.00000   0.00016   0.00016  -0.00549
   D43       -0.02094   0.00040   0.00000   0.00147   0.00147  -0.01947
   D44        3.12361   0.00038   0.00000   0.00156   0.00157   3.12518
   D45       -3.13921  -0.00007   0.00000  -0.00028  -0.00028  -3.13949
   D46        0.00535  -0.00008   0.00000  -0.00019  -0.00019   0.00516
   D47       -0.00265   0.00019   0.00000   0.00058   0.00058  -0.00207
   D48       -3.11651  -0.00082   0.00000  -0.00210  -0.00206  -3.11858
   D49        3.14116   0.00029   0.00000   0.00074   0.00073  -3.14130
   D50        0.02729  -0.00072   0.00000  -0.00194  -0.00191   0.02538
   D51        0.00308  -0.00016   0.00000  -0.00052  -0.00051   0.00257
   D52        3.11764   0.00018   0.00000   0.00121   0.00124   3.11888
   D53       -3.14147  -0.00015   0.00000  -0.00062  -0.00062   3.14109
   D54       -0.02692   0.00019   0.00000   0.00111   0.00113  -0.02579
   D55        3.11401   0.00002   0.00000  -0.00252  -0.00234   3.11167
   D56       -0.10586   0.00028   0.00000   0.00388   0.00371  -0.10215
   D57       -0.00027  -0.00041   0.00000  -0.00439  -0.00422  -0.00450
   D58        3.06304  -0.00016   0.00000   0.00201   0.00183   3.06487
   D59       -1.03666  -0.00557   0.00000  -0.01204  -0.01224  -1.04889
   D60        1.05774   0.00597   0.00000   0.01339   0.01358   1.07132
   D61       -3.13105   0.00011   0.00000   0.00046   0.00046  -3.13059
   D62       -1.02242  -0.00222   0.00000  -0.00676  -0.00687  -1.02929
   D63        1.07198  -0.00210   0.00000  -0.00645  -0.00654   1.06544
   D64       -3.11681  -0.00174   0.00000  -0.00553  -0.00565  -3.12246
   D65        2.02984   0.00179   0.00000   0.00562   0.00572   2.03556
   D66       -2.15895   0.00191   0.00000   0.00593   0.00606  -2.15289
   D67       -0.06456   0.00228   0.00000   0.00685   0.00695  -0.05761
         Item               Value     Threshold  Converged?
 Maximum Force            0.130770     0.000450     NO 
 RMS     Force            0.018196     0.000300     NO 
 Maximum Displacement     0.623526     0.001800     NO 
 RMS     Displacement     0.135847     0.001200     NO 
 Predicted change in Energy=-5.635308D-02
 GradGradGradGradGradGradGradGradGradGradGradGradGradGradGradGradGradGrad

                          Input orientation:                          
 ---------------------------------------------------------------------
 Center     Atomic      Atomic             Coordinates (Angstroms)
 Number     Number       Type             X           Y           Z
 ---------------------------------------------------------------------
      1          6           0       -5.229962   -0.916221    1.092382
      2          6           0       -3.836643   -0.951527    1.043727
      3          6           0       -3.162667   -0.482110   -0.094389
      4          6           0       -3.888512   -0.048006   -1.200048
      5          6           0       -5.286040   -0.009891   -1.152331
      6          6           0       -5.962904   -0.444536   -0.001310
      7          1           0       -5.754023   -1.254946    1.986881
[...]
 2,0.00024321,-0.00121293,-0.00003358,-0.00010799,0.00021172,-0.0000319
 6,0.00002357,0.00023655,0.00016828,-0.00000398,0.00000861,0.57541237,0
 .00002173,-0.00006123,0.00000551,-0.00002313,0.00005633,0.00003544,0.0
 0008434,0.00015519,0.00003143,-0.00002962,0.00000128,-0.00003280,0.000
 02549,-0.00001535,-0.00001896,-0.00003808,0.00005085,0.00001352,0.0000
 0024,0.00000192,-0.00000031,-0.00000048,0.00000438,0.00000101,-0.00000
 198,0.00000462,0.00000213,0.00000275,0.00000157,0.00000157,-0.00021541
 ,-0.00031398,-0.00007011,0.00031100,-0.00076539,-0.00013100,-0.0004134
 3,-0.00116926,0.00051631,-0.00043748,0.00717685,0.00241441,0.00133407,
 0.00649618,0.00237428,-0.00557300,-0.00082819,-0.00094001,-0.00026191,
 0.00059107,0.00009656,0.00501152,0.00238035,-0.00223172,0.00038998,0.0
 0031091,0.00004955,0.00744867,-0.07713460,0.00572835,-0.00016900,-0.00
 381975,-0.00049435,0.00016336,-0.00357250,-0.00013103,0.00004688,-0.00
 000365,0.00000703,-0.00001259,0.00000014,-0.00001922,0.00000183,-0.000
 00430,0.00000612,-0.00000240,0.00000033,-0.00000055,0.00000179,-0.0000
 0376,-0.00000044,0.02363899,0.24078489,-0.00019892,0.00002145,-0.00015
 791,0.00016904,0.00004821,-0.00020345,-0.00052385,0.00004040,-0.000012
 41,0.00020992,-0.00005128,0.00024872,-0.00022598,-0.00003036,0.0001573
 3,0.00040801,0.00001386,-0.00004968,-0.00001035,-0.00000139,0.00000994
 ,0.00001317,0.00000139,-0.00000367,0.00002061,0.00000125,-0.00000310,-
 0.00002481,0.00000340,-0.00001418,0.00142177,-0.00008939,0.00003900,-0
 .00219530,-0.00010086,-0.00009754,0.00255321,0.00048202,-0.00380044,0.
 00224715,0.00242935,-0.00530709,-0.00706954,0.00239803,-0.00512526,0.0
 3050884,-0.00113839,0.00268290,0.00135441,0.00007122,0.00013167,-0.023
 72147,-0.00212962,0.01494345,-0.00204860,0.00008318,0.00003801,-0.0318
 6721,0.00596110,-0.10495152,0.00056567,-0.00053564,-0.00114060,-0.0011
 2736,-0.00007955,-0.00309031,-0.00052399,0.00001849,-0.00006091,0.0001
 3249,-0.00003777,0.00018536,0.00000435,0.00001884,-0.00002915,0.000003
 20,-0.00000720,-0.00003553,-0.00002186,-0.00000002,-0.00000215,-0.1497
 2826,-0.11017731,0.80924848,-0.00049792,0.00008882,-0.00043033,0.00023
 273,0.00008584,-0.00046890,-0.00042526,0.00001829,-0.00006531,0.000295
 61,-0.00009786,0.00049284,-0.00056272,-0.00008075,0.00046478,0.0013189
 9,0.00001865,-0.00019416,-0.00005978,-0.00000735,0.00004278,0.00007371
 ,0.00000441,-0.00002879,0.00007003,-0.00000599,0.00002589,-0.00007061,
 0.00001082,-0.00005200,0.00159000,-0.00001432,-0.00003344,-0.00262715,
 0.00002891,0.00004731,0.00217982,-0.00036104,0.00173103,-0.00449218,-0
 .00010861,0.00079634,-0.00022582,-0.00043863,0.00228787,-0.00427779,0.
 00163095,-0.00803562,-0.00102933,-0.00001197,0.00011189,0.00033563,-0.
 00067341,0.00350454,-0.00012491,0.00003506,-0.00016656,-0.04298497,-0.
 00909041,0.05217260,0.00025848,-0.00012417,0.00067735,-0.00264913,-0.0
 0006702,0.00052493,-0.00178933,0.00005360,-0.00015181,0.00043216,-0.00
 011472,0.00057167,0.00001631,0.00005036,-0.00009954,0.00001552,-0.0000
 1069,-0.00011109,-0.00008005,0.00000161,-0.00000283,-0.22222474,-0.042
 84151,0.23605815,0.25451218,-0.00006895,0.00001815,-0.00005861,0.00004
 953,0.00000470,-0.00007017,-0.00013281,-0.00000511,-0.00000745,0.00006
 048,-0.00001463,0.00008163,-0.00007881,-0.00000829,0.00006046,0.000159
 10,-0.00000120,-0.00002226,-0.00000559,-0.00000264,0.00000436,0.000007
 11,-0.00000409,-0.00000302,0.00000677,-0.00000608,-0.00000149,-0.00000
 908,-0.00000238,-0.00000656,0.00037977,0.00004507,0.00000706,-0.000588
 21,0.00017176,-0.00002604,0.00062181,-0.00011311,-0.00009257,-0.000473
 51,-0.00140564,-0.00054222,-0.00067367,-0.00050221,-0.00017718,0.00054
 427,0.00323832,-0.00031762,-0.00006481,-0.00036945,-0.00006223,0.00157
 809,-0.00030942,0.00159453,-0.00008849,0.00013552,0.00001215,-0.007951
 34,0.01794014,0.00441949,0.00011806,0.00062604,0.00001346,0.00006488,-
 0.00011892,-0.00057774,-0.00021181,0.00001076,-0.00001940,0.00005175,-
 0.00001926,0.00006938,0.00000210,0.00000829,-0.00001230,0.00000120,-0.
 00000093,-0.00001256,-0.00000901,-0.00000052,-0.00000082,-0.04059554,-
 0.08307788,0.08929363,0.04965975,0.04467708,0.00039858,-0.00006999,0.0
 0034499,-0.00027754,-0.00007270,0.00039451,0.00072752,-0.00001833,0.00
 003553,-0.00033888,0.00009301,-0.00046259,0.00045476,0.00006065,-0.000
 34905,-0.00093131,-0.00001205,0.00012774,0.00003356,0.00000449,-0.0000
 2789,-0.00004298,-0.00000283,0.00001338,-0.00004104,-0.00000057,-0.000
 00031,0.00005252,-0.00000800,0.00003449,-0.00210553,0.00003519,0.00001
 668,0.00329012,-0.00007050,0.00029223,-0.00343130,-0.00002052,0.000237
 64,0.00270171,-0.00057027,0.00128082,0.00351308,-0.00019520,0.00022193
 ,-0.00232554,-0.00039395,0.00542427,0.00038599,-0.00006618,-0.00006286
 ,-0.00830770,0.00175521,-0.00860846,0.00048342,0.00000326,0.00008451,0
 .04620047,0.00450011,-0.00829497,-0.00059228,0.00003188,0.00050992,-0.
 00016509,-0.00056809,0.00276884,0.00124227,-0.00003859,0.00011700,-0.0
 0030347,0.00008133,-0.00041112,-0.00000998,-0.00003945,0.00006923,-0.0
 0000947,0.00001198,0.00007927,0.00005305,-0.00000158,0.00000372,0.2242
 7203,0.08945644,-0.55224774,-0.27723664,-0.11035608,0.62347185,-0.0000
 7253,0.00001195,-0.00005567,-0.00000118,0.00001167,-0.00006448,0.00005
 474,-0.00000032,-0.00000431,0.00001420,-0.00001031,0.00005330,-0.00008
 167,-0.00001218,0.00006982,0.00022111,0.00000360,-0.00003579,-0.000013
 44,-0.00000123,0.00000760,0.00001628,0.00000134,-0.00000801,0.00001578
 ,-0.00000215,0.00001042,-0.00001231,0.00000204,-0.00000971,0.00000212,
 -0.00000161,0.00001503,-0.00004532,0.00000207,-0.00000047,0.00011261,0
 .00005380,-0.00026283,0.00021751,0.00004819,-0.00038074,-0.00061581,0.
 00030834,-0.00163390,-0.00260951,0.00010788,-0.00046402,-0.00007582,-0
 .00000979,0.00005936,-0.00473610,-0.00039446,0.00256180,-0.00048646,0.
 00000191,0.00000390,-0.01358539,0.00524979,-0.02547998,-0.00211477,0.0
 0013694,-0.00044644,0.00004343,0.00002194,-0.00011022,-0.00030358,0.00
 000849,-0.00002285,0.00007182,-0.00001874,0.00009352,0.00000306,0.0000
 0702,-0.00001686,0.00000298,-0.00000043,-0.00001827,-0.00001418,0.0000
 0024,-0.00000021,-0.13533561,0.01043682,-0.05137591,0.01932882,-0.0028
 3923,0.01534727,0.57328729,0.00001562,0.00001952,0.00001760,-0.0000078
 4,-0.00004073,0.00000863,0.00001411,-0.00002752,-0.00000364,-0.0000091
 3,0.00000704,-0.00001311,0.00001685,0.00000111,-0.00001593,-0.00004162
 ,-0.00001044,0.00000491,0.00000218,0.00000269,-0.00000098,-0.00000230,
 0.00000236,0.00000089,-0.00000205,0.00000407,-0.00000040,0.00000179,0.
 00000097,0.00000180,-0.00005103,0.00007024,0.00001617,0.00008596,0.000
 11024,0.00000337,-0.00006429,0.00036814,0.00017483,-0.00000912,-0.0014
 8471,-0.00025670,0.00011778,-0.00074278,-0.00037329,0.00014440,-0.0011
 4734,-0.00008299,0.00000178,0.00002603,-0.00000090,-0.00060813,0.00195
 335,0.00017206,-0.00003632,-0.00028053,-0.00005986,0.00118694,0.014965
 55,0.00222064,-0.00000067,0.00152062,0.00024276,-0.00008017,0.00013032
 ,-0.00002356,0.00005609,-0.00000447,0.00000304,-0.00001329,0.00000578,
 -0.00001636,-0.00000105,-0.00000169,0.00000291,0.,-0.00000015,0.000003
 40,0.00000256,0.00000058,0.00000017,0.00947851,-0.08972211,0.00881299,
 0.00140134,0.02213837,0.01546340,0.01125477,0.52771536,-0.00007565,0.0
 0001794,-0.00006579,0.00003887,0.00000736,-0.00008056,-0.00008118,-0.0
 0000250,-0.00000866,0.00004759,-0.00001313,0.00007000,-0.00008322,-0.0
 0001395,0.00007752,0.00020315,0.00000164,-0.00003348,-0.00001034,-0.00
 000074,0.00000717,0.00001113,0.00000062,-0.00000157,0.00000998,-0.0000
 0040,0.00000532,-0.00000848,0.00000179,-0.00000747,0.00027652,0.000012
 56,-0.00001368,-0.00044509,0.00000924,0.00009562,0.00036426,0.00016772
 ,-0.00050744,-0.00007632,-0.00026218,-0.00014911,-0.00064453,-0.000388
 94,0.00127881,-0.00065172,-0.00007595,-0.00070823,-0.00000252,-0.00000
 007,0.00002631,0.00370686,0.00015558,0.00089417,0.00020552,-0.00006274
 ,0.00002209,-0.00415053,0.00192146,0.00561621,0.00027355,0.00023016,0.
 00033172,0.00042728,-0.00003082,0.00025726,-0.00027454,0.00000652,-0.0
 0001749,0.00006520,-0.00001605,0.00008215,0.00000249,0.00000683,-0.000
 01500,0.00000259,-0.00000104,-0.00001646,-0.00001247,0.00000034,-0.000
 00024,-0.04630814,0.00874441,-0.13041148,-0.00691232,0.01575875,-0.057
 14458,-0.06232615,0.00674932,0.49757210,-0.00000496,-0.00000178,-0.000
 00406,0.00001077,0.00000756,-0.00001061,-0.00003835,-0.00000916,-0.000
 00464,0.00001156,0.00000294,0.00000902,-0.00000483,-0.00000327,0.00000
 590,-0.00000120,0.00000307,-0.00000120,-0.00000010,0.00000047,-0.00000
 015,-0.00000162,-0.00000129,0.00000244,-0.00000098,0.00000094,-0.00000
 122,0.00000033,-0.00000011,0.00000040,0.00008286,-0.00002351,-0.000002
 45,-0.00012377,0.00009528,0.00005578,0.00008757,0.00008316,-0.00023608
 ,0.00002145,-0.00037436,0.00004681,-0.00031488,-0.00025577,0.00027254,
 -0.00096771,-0.00005355,-0.00041121,0.00000107,0.00000547,0.00000340,0
 .00059866,0.00028589,0.00040787,0.00000894,-0.00004713,-0.00000139,-0.
 00142146,0.00170814,0.00026380,-0.00174548,-0.00057939,0.00004254,0.00
 007523,0.00001112,0.00005764,0.00000052,-0.00000059,0.00000187,-0.0000
 0073,0.00000010,-0.00000077,-0.00000018,0.00000011,0.00000026,-0.00000
 011,-0.00000025,-0.00000015,0.00000041,0.00000009,-0.00000021,0.006317
 64,-0.01602048,-0.00850772,-0.00023296,0.00230149,-0.00193615,-0.06000
 537,0.03678015,0.03451144,0.06013581,0.00000686,-0.00000196,0.00000567
 ,0.00000154,0.00000098,0.00000063,-0.00000752,0.00000044,-0.00000197,-
 0.00000094,-0.00000034,-0.00000663,0.00000901,0.00000118,-0.00000334,-
 0.00002293,0.00000057,0.00000173,0.00000052,-0.00000019,-0.00000096,-0
 .00000201,-0.00000037,0.00000192,-0.00000189,-0.00000034,-0.00000054,0
 .00000191,-0.00000024,0.00000118,0.00001113,0.00000710,0.00000327,0.00
 000368,-0.00004420,0.00003860,0.00006207,-0.00006002,0.00000557,0.0000
 5223,0.00014963,0.00042491,0.00006395,0.00004120,0.00000865,0.00028720
 ,0.00051542,-0.00094813,-0.00002176,0.00000405,-0.00000981,-0.00022939
 ,-0.00008305,0.00009489,-0.00001601,0.00001122,0.00001184,-0.00006989,
 -0.00042934,-0.00062198,-0.00029253,-0.00044855,0.00046131,0.00004281,
 0.00000418,0.00004838,0.00003067,-0.00000123,0.00000508,-0.00000803,0.
 00000212,-0.00001155,-0.00000027,-0.00000099,0.00000181,-0.00000039,0.
 00000033,0.00000216,0.00000151,-0.00000007,-0.00000004,-0.00174687,0.0
 0589763,0.00554578,0.00005976,-0.00190209,0.00149320,0.03718101,-0.170
 02112,-0.12741572,-0.04161248,0.18522733,-0.00000656,0.00000042,-0.000
 00372,0.00000902,0.00000539,-0.00000688,-0.00002927,0.00000064,-0.0000
 0285,0.00001000,0.00000071,0.00000753,-0.00000693,-0.00000015,0.000003
 80,0.00000567,0.00000030,-0.00000060,0.00000007,-0.00000064,0.,-0.0000
 0036,-0.00000114,0.00000085,-0.00000022,-0.00000075,-0.00000097,-0.000
 00004,-0.00000046,-0.00000018,0.00006200,-0.00002332,-0.00000156,-0.00
 009232,0.00001644,0.00001375,0.00007946,0.00001190,0.00028421,-0.00041
 752,-0.00005568,0.00000555,0.00021483,-0.00019368,-0.00003910,0.000389
 01,0.00039827,0.00010921,-0.00000897,0.00000230,0.00000085,-0.00027486
 ,0.00046147,-0.00008577,-0.00001254,-0.00004746,-0.00001751,-0.0004123
 9,0.00174364,0.00036971,0.00010342,-0.00016841,0.00041764,0.00015511,0
 .00000965,0.00007395,-0.00000611,0.00000077,0.00000007,0.00000118,-0.0
 0000158,0.00000180,0.00000004,0.00000054,-0.00000043,-0.00000012,0.000
 00017,-0.00000027,-0.00000014,-0.00000012,-0.00000013,0.01018020,-0.02
 021194,-0.01730035,-0.00346603,0.00433106,-0.00423073,0.03601317,-0.13
 146369,-0.17146637,-0.04042027,0.13972742,0.18561886,-0.00000499,0.000
 00327,-0.00000320,0.00001051,-0.00000337,-0.00001260,-0.00003765,0.000
 01117,-0.00000070,0.00001137,-0.00000638,0.00000733,-0.00000494,0.0000
 0100,0.00000675,-0.00000078,-0.00000236,-0.00000226,-0.00000012,-0.000
 00040,-0.00000029,-0.00000155,0.00000035,0.00000270,-0.00000095,-0.000
 00041,-0.00000147,0.00000028,-0.00000005,0.00000038,0.00008264,0.00002
 069,0.00000587,-0.00012587,-0.00010644,0.00001605,0.00008403,0.0000062
 0,-0.00025192,0.00003162,0.00033812,0.00017094,-0.00031126,0.00014597,
 0.00034852,-0.00097719,0.00023409,-0.00032760,0.00000160,-0.00000639,0
 .00000142,0.00059562,-0.00042994,0.00026901,0.00001074,0.00004417,0.00
 001576,-0.00146167,-0.00165174,-0.00036038,-0.00172630,0.00056410,0.00
 024215,0.00007273,-0.00003250,0.00004770,-0.00000014,-0.00000011,0.000
 00183,-0.00000055,0.00000015,-0.00000049,-0.00000009,0.00000031,-0.000
 00009,-0.00000018,-0.00000020,0.00000016,0.00000038,-0.00000002,-0.000
 00023,0.00680204,0.01790779,-0.00209626,-0.00026892,-0.00144197,-0.002
 68334,-0.06257206,-0.05181651,0.02110607,0.00081058,0.00629359,-0.0026
 6543,0.06302184,-0.00000385,-0.00000009,-0.00000413,-0.00000498,0.0000
 0216,0.00000326,0.00001880,-0.00000126,0.00000284,-0.00000314,-0.00000
 106,0.00000294,-0.00000567,0.00000048,0.00000180,0.00001926,0.00000065
 ,-0.00000108,-0.00000052,-0.00000068,0.00000069,0.00000203,0.,-0.00000
 232,0.00000185,-0.00000090,0.00000061,-0.00000177,0.00000007,-0.000001
 10,-0.00003551,-0.00000047,-0.00000297,0.00003331,-0.00001559,-0.00005
 173,-0.00009025,-0.00000556,-0.00011333,0.00010885,0.00024431,-0.00033
 204,-0.00013057,-0.00003292,-0.00001536,-0.00037134,0.00027728,0.00102
 619,0.00002360,0.00000062,0.00000975,0.00030016,0.00010974,-0.00002842
 ,0.00001902,-0.00000649,-0.00000737,0.00026211,0.00009906,0.00050837,0
 .00027150,-0.00025224,-0.00072657,-0.00009835,0.00003690,-0.00006537,-
 0.00002624,0.00000164,-0.00000465,0.00000703,-0.00000259,0.00000986,0.
 00000042,0.00000102,-0.00000164,0.00000023,-0.00000011,-0.00000169,-0.
 00000136,-0.00000010,0.00000005,-0.00235973,-0.00265237,0.00045380,0.0
 0121735,-0.00022184,0.00015340,-0.05274810,-0.25579476,0.09290615,-0.0
 0541475,-0.02030625,0.00949058,0.05904442,0.27750993,-0.00000856,0.000
 00122,-0.00000548,0.00000767,-0.00000211,-0.00000783,-0.00002424,0.000
 00088,-0.00000183,0.00000950,-0.00000443,0.00000837,-0.00000970,-0.000
 00094,0.00000463,0.00001363,0.00000001,-0.00000118,-0.00000011,0.00000
 037,0.00000053,0.00000043,0.00000082,0.00000041,0.00000051,0.00000079,
 -0.00000044,-0.00000072,0.00000055,-0.00000043,0.00005368,0.00002209,0
 .00000617,-0.00008719,-0.00002580,-0.00001243,0.00004831,-0.00012840,0
 .00023325,-0.00040403,0.00016300,-0.00009962,0.00018389,0.00019042,0.0
 0003205,0.00025541,-0.00034257,0.00035130,-0.00000040,-0.00000216,0.00
 000383,-0.00018697,-0.00037824,-0.00027597,-0.00000445,0.00005231,-0.0
 0000154,-0.00040055,-0.00184299,-0.00011777,0.00021257,-0.00009566,0.0
 0020020,0.00012791,-0.00002887,0.00004394,-0.00001687,0.00000002,-0.00
 000202,0.00000406,-0.00000018,0.00000628,0.00000004,0.00000034,-0.0000
 0098,0.00000012,-0.00000042,-0.00000130,-0.00000068,0.00000013,-0.0000
 0006,0.01075841,0.02575343,-0.00920795,-0.00335297,-0.00263946,-0.0058
 8852,0.02246014,0.09690272,-0.08323361,-0.00533396,-0.02153182,0.01057
 578,-0.02505213,-0.10201150,0.09054187,-0.00003233,0.00000569,-0.00002
 777,0.00000861,0.00000511,-0.00002720,-0.00000463,0.00000065,-0.000003
 64,0.00001382,-0.00000530,0.00002678,-0.00003601,-0.00000548,0.0000313
 0,0.00009384,0.00000137,-0.00001378,-0.00000457,-0.00000055,0.00000320
 ,0.00000597,0.00000048,-0.00000292,0.00000586,-0.00000068,0.00000316,-
 0.00000498,0.00000082,-0.00000391,0.00005863,-0.00000102,0.00000170,-0
 .00009834,0.00000009,0.00000546,0.00013468,0.00001106,-0.00006885,0.00
 004666,-0.00000128,0.00001703,-0.00015729,0.00005831,-0.00030902,0.000
 60293,0.00006098,-0.00035320,-0.00003910,-0.00000171,0.00001248,-0.000
 74937,-0.00009472,0.00057811,-0.00011056,0.00000119,-0.00000101,-0.000
 26820,0.00063722,-0.00322279,0.00014098,0.00000175,-0.00005137,0.00000
 894,0.00001290,-0.00006289,-0.00012791,0.00000384,-0.00001098,0.000031
 17,-0.00000808,0.00004029,0.00000127,0.00000336,-0.00000715,0.00000123
 ,-0.00000053,-0.00000789,-0.00000595,0.00000010,-0.00000008,-0.0203455
 5,-0.00078676,0.00559741,0.00396356,-0.00037333,0.00158192,-0.31071064
 ,-0.00781729,0.06081072,-0.00329872,-0.00007654,0.00059689,-0.00404079
 ,-0.00003383,0.00074728,0.33491676,0.00000102,-0.00000331,0.00000013,-
 0.00000027,0.00000400,0.00000231,0.00000088,-0.00000677,-0.00000068,-0
 .00000081,-0.00000046,-0.00000101,0.00000118,-0.00000057,-0.00000125,-
 0.00000195,0.00000294,0.00000108,0.00000017,0.00000008,-0.00000006,-0.
 00000002,0.00000048,-0.00000006,-0.00000017,0.00000042,0.,0.00000014,0
 .00000050,0.00000017,-0.00000413,0.00000039,0.00000008,0.00000462,-0.0
 0000503,-0.00001071,-0.00002305,-0.00001244,0.00001699,-0.00000683,0.0
 0017640,-0.00003981,0.00003342,-0.00019502,0.00004045,-0.00008937,0.00
 011786,0.00024050,0.00000802,0.00000700,0.00000089,0.00027523,0.000365
 48,-0.00004787,0.00002680,-0.00003879,-0.00000785,0.00023500,0.0011856
 7,0.00125663,-0.00004516,-0.00038254,-0.00018270,0.00000006,0.00007106
 ,0.00001044,0.00000301,-0.00000044,0.00000004,-0.00000058,0.00000073,-
 0.00000085,-0.00000005,-0.00000027,0.00000022,0.,-0.00000011,0.0000000
 5,0.00000010,0.00000003,0.00000004,0.00631363,-0.00077017,-0.00131962,
 -0.00031706,-0.00092850,-0.00063866,-0.00881126,-0.04976399,0.00158586
 ,0.02311188,0.00143696,-0.00403262,-0.02911661,0.00101141,0.00594647,0
 .00840215,0.04772700,-0.00000310,-0.00000024,-0.00000178,0.00000103,0.
 00000189,-0.00000558,-0.00000459,-0.00000068,-0.00000303,0.00000312,-0
 .00000067,0.00000253,-0.00000350,-0.00000073,0.00000334,0.00000325,0.0
 0000083,-0.00000147,-0.00000052,0.,0.00000012,-0.00000033,-0.00000010,
 0.00000101,0.00000048,0.00000005,0.00000013,-0.00000033,0.00000012,-0.
 00000005,0.00001676,-0.00000010,-0.00000011,-0.00001656,-0.00001042,0.
 00004860,0.00010932,0.00001427,-0.00009289,0.00004507,-0.00003969,0.00
 037583,-0.00017641,0.00003891,-0.00037817,0.00043413,0.00022862,-0.001
 07305,-0.00003874,0.00000159,0.00000169,-0.00136860,-0.00002104,0.0005
 6743,-0.00013576,-0.00000591,0.00000141,-0.00111075,0.00122703,-0.0049
 4219,0.00019709,-0.00018581,0.00054469,0.00000414,0.00000953,0.0000225
 6,-0.00000604,-0.00000003,0.00000021,0.00000068,-0.00000027,0.00000192
 ,0.,0.00000021,-0.00000025,0.,-0.00000016,-0.00000036,-0.00000006,0.00
 000004,-0.00000014,-0.03179665,-0.00077775,0.00556758,0.00129837,-0.00
 064017,0.00220028,0.06602150,0.00150985,-0.06245526,0.02119051,0.00266
 848,-0.00432614,0.01121574,-0.00119902,-0.00314965,-0.06587925,-0.0028
 1861,0.06709081\\-0.00001803,0.00000337,-0.00000914,0.00001305,0.00000
 791,-0.00000933,-0.00001683,-0.00002112,0.00000529,-0.00000866,0.00000
 697,-0.00000291,-0.00000115,0.00000197,-0.00000069,0.00001355,-0.00000
 865,0.00000014,0.00000146,-0.00000123,0.00000073,0.00000040,-0.0000009
 2,0.00000063,0.00000142,-0.00000081,0.00000051,-0.00000176,-0.00000018
 ,-0.00000014,0.00000588,0.00000803,0.00001328,-0.00002896,0.00000614,0
 .00000501,0.00003349,-0.00000265,-0.00001441,-0.00000150,0.00000131,0.
 00000191,0.00000099,-0.00000534,0.00000563,0.00000689,-0.00000291,-0.0
 0000906,-0.00000385,0.00000061,-0.00000042,0.00000890,0.00000414,-0.00
 000357,0.00000151,-0.00000136,0.00000302,-0.00001261,-0.00000430,0.000
 00808,0.00000154,0.00000227,0.00000187,0.00000142,0.00000186,0.0000012
 2,-0.00000299,0.00000571,0.00001274,0.00000102,-0.00000054,-0.00001516
 ,-0.00000209,-0.00000186,0.00000223,0.00000038,0.00000251,0.00000232,0
 .00000268,-0.00000089,0.00000111,0.00001584,0.00000255,-0.00000243,-0.
 00000463,0.00000309,0.00000805,-0.00000309,-0.00002953,-0.00002239,-0.
 00000322,0.00001090,0.00000529,0.00000116,0.00000749,0.00000719,-0.000
 00219,0.00000548,0.00000341\\\@


 The chemist is a guest at the physicist's table and
 frequently dines well.
                   -- Richard Bersohn
 Job cpu time:       0 days  3 hours 24 minutes 53.6 seconds.
 Elapsed time:       0 days  0 hours  6 minutes 49.8 seconds.
 File lengths (MBytes):  RWF=    523 Int=      0 D2E=      0 Chk=     14 Scr=      1
 Normal termination of Gaussian 16 at Sun Sep 17 16:11:32 2023.
