 Entering Gaussian System, Link 0=/home/ubuntu/g16/g16
 Input=/home/ubuntu/ML products/molecule_81.gjf
 Output=/home/ubuntu/ML products/molecule_81.log
 Initial command:
 /home/ubuntu/g16/l1.exe "/home/ubuntu/Scratch/Gau-367650.inp" -scrdir="/home/ubuntu/Scratch/"
 Entering Link 1 = /home/ubuntu/g16/l1.exe PID=    367652.
  
 Copyright (c) 1988-2017, Gaussian, Inc.  All Rights Reserved.
  
 This is part of the Gaussian(R) 16 program.  It is based on
 the Gaussian(R) 09 system (copyright 2009, Gaussian, Inc.),
 the Gaussian(R) 03 system (copyright 2003, Gaussian, Inc.),
 the Gaussian(R) 98 system (copyright 1998, Gaussian, Inc.),
 the Gaussian(R) 94 system (copyright 1995, Gaussian, Inc.),
 the Gaussian 92(TM) system (copyright 1992, Gaussian, Inc.),
 the Gaussian 90(TM) system (copyright 1990, Gaussian, Inc.),
 the Gaussian 88(TM) system (copyright 1988, Gaussian, Inc.),
 the Gaussian 86(TM) system (copyright 1986, Carnegie Mellon
 University), and the Gaussian 82(TM) system (copyright 1983,
 Carnegie Mellon University). Gaussian is a federally registered
 trademark of Gaussian, Inc.
  
 This software contains proprietary and confidential information,
 including trade secrets, belonging to Gaussian, Inc.
  
 This software is provided under written license and may be
 used, copied, transmitted, or stored only in accord with that
 written license.
  
 The following legend is applicable only to US Government
 contracts under FAR:
  
                    RESTRICTED RIGHTS LEGEND
  
 Use, reproduction and disclosure by the US Government is
 subject to restrictions as set forth in subparagraphs (a)
 and (c) of the Commercial Computer Software - Restricted
 Rights clause in FAR 52.227-19.
  
 Gaussian, Inc.
 340 Quinnipiac St., Bldg. 40, Wallingford CT 06492
  
  
 ---------------------------------------------------------------
 Warning -- This program may not be used in any manner that
 competes with the business of Gaussian, Inc. or will provide
 assistance to any competitor of Gaussian, Inc.  The licensee
 of this program is prohibited from giving any competitor of
 Gaussian, Inc. access to this program.  By using this program,
 the user acknowledges that Gaussian, Inc. is engaged in the
 business of creating and licensing software in the field of
 computational chemistry and represents and warrants to the
 licensee that it is not a competitor of Gaussian, Inc. and that
 it will not use this program in any manner prohibited above.
 ---------------------------------------------------------------
  

 Cite this work as:
 Gaussian 16, Revision B.01,
 M. J. Frisch, G. W. Trucks, H. B. Schlegel, G. E. Scuseria, 
 M. A. Robb, J. R. Cheeseman, G. Scalmani, V. Barone, 
 G. A. Petersson, H. Nakatsuji, X. Li, M. Caricato, A. V. Marenich, 
 J. Bloino, B. G. Janesko, R. Gomperts, B. Mennucci, H. P. Hratchian, 
 J. V. Ortiz, A. F. Izmaylov, J. L. Sonnenberg, D. Williams-Young, 
 F. Ding, F. Lipparini, F. Egidi, J. Goings, B. Peng, A. Petrone, 
 T. Henderson, D. Ranasinghe, V. G. Zakrzewski, J. Gao, N. Rega, 
 G. Zheng, W. Liang, M. Hada, M. Ehara, K. Toyota, R. Fukuda, 
 J. Hasegawa, M. Ishida, T. Nakajima, Y. Honda, O. Kitao, H. Nakai, 
 T. Vreven, K. Throssell, J. A. Montgomery, Jr., J. E. Peralta, 
 F. Ogliaro, M. J. Bearpark, J. J. Heyd, E. N. Brothers, K. N. Kudin, 
 V. N. Staroverov, T. A. Keith, R. Kobayashi, J. Normand, 
 K. Raghavachari, A. P. Rendell, J. C. Burant, S. S. Iyengar, 
 J. Tomasi, M. Cossi, J. M. Millam, M. Klene, C. Adamo, R. Cammi, 
 J. W. Ochterski, R. L. Martin, K. Morokuma, O. Farkas, 
 J. B. Foresman, and D. J. Fox, Gaussian, Inc., Wallingford CT, 2016.
 
 ******************************************
 Gaussian 16:  EM64L-G16RevB.01 20-Dec-2017
                15-Sep-2023 
 ******************************************
 %nprocshared=30
 Will use up to   30 processors via shared memory.
 %mem=30GB
 %chk=molecule_81.chk
 ---------------------------------------------------------
 # opt freq b3lyp/6-31+g(d) empiricaldispersion=gd3 volume
 ---------------------------------------------------------
 1/18=20,19=15,26=3,38=1/1,3;
 2/9=110,12=2,17=6,18=5,40=1/2;
 3/5=1,6=6,7=11,11=2,25=1,30=1,71=1,74=-5,124=31/1,2,3;
 4//1;
 5/5=2,38=5/2;
 6/7=2,8=2,9=2,10=2,28=1,44=1/1,4;
 7//1,2,3,16;
 1/18=20,19=15,26=3/3(2);
 2/9=110/2;
 99//99;
 2/9=110/2;
 3/5=1,6=6,7=11,11=2,25=1,30=1,71=1,74=-5,124=31/1,2,3;
 4/5=5,16=3,69=1/1;
 5/5=2,38=5/2;
 7//1,2,3,16;
 1/18=20,19=15,26=3/3(-5);
 2/9=110/2;
 6/7=2,8=2,9=2,10=2,19=2,28=1,44=1/1,4;
 99/9=1/99;
 -------------
 ML molecule81
 -------------
 Symbolic Z-matrix:
 Charge =  0 Multiplicity = 1
 C                    -4.74942  -0.23058  -0.40002 
 C                    -4.8202    0.23854  -1.71867 
 C                    -4.55025   1.58484  -1.99888 
 C                    -4.20951   2.46203  -0.96044 
 C                    -4.13873   1.99291   0.35822 
 C                    -4.40868   0.64661   0.63842 
 H                    -5.08036  -0.43121  -2.51155 
 H                    -3.87857   2.66266   1.15109 
 H                    -4.35464   0.28843   1.64524 
 O                    -3.91049   3.9533   -1.27081 
 C                    -3.81752   4.69985  -2.77936 
 C                    -4.13168   3.88761  -3.87731 
 C                    -3.30395   5.98751  -2.98454 
 C                    -3.93225   4.36302  -5.18043 
 C                    -3.10452   6.46292  -4.28767 
 H                    -3.06408   6.60768  -2.14623 
 C                    -3.41867   5.65068  -5.38561 
 H                    -4.17211   3.74285  -6.01874 
 H                    -2.7124    7.44608  -4.44432 
 H                    -4.60429   1.94302  -3.0057 
 H                    -4.5238    2.90445  -3.72065 
 N                    -5.03258  -1.64279  -0.1061 
 O                    -4.12167  -2.42275  -0.12371 
 O                    -6.16321  -1.95858   0.13958 
 N                    -3.20949   6.14936  -6.75253 
 O                    -2.13965   5.97488  -7.26578 
 O                    -4.11701   6.71078  -7.2999 
 
 Add virtual bond connecting atoms H21        and H20        Dist= 2.27D+00.

 GradGradGradGradGradGradGradGradGradGradGradGradGradGradGradGradGradGrad
 Berny optimization.
 Initialization pass.
                           ----------------------------
                           !    Initial Parameters    !
                           ! (Angstroms and Degrees)  !
 --------------------------                            --------------------------
 ! Name  Definition              Value          Derivative Info.                !
 --------------------------------------------------------------------------------
 ! R1    R(1,2)                  1.4014         estimate D2E/DX2                !
 ! R2    R(1,6)                  1.4014         estimate D2E/DX2                !
 ! R3    R(1,22)                 1.47           estimate D2E/DX2                !
 ! R4    R(2,3)                  1.4014         estimate D2E/DX2                !
 ! R5    R(2,7)                  1.07           estimate D2E/DX2                !
 ! R6    R(3,4)                  1.4014         estimate D2E/DX2                !
 ! R7    R(3,20)                 1.07           estimate D2E/DX2                !
 ! R8    R(4,5)                  1.4014         estimate D2E/DX2                !
 ! R9    R(4,10)                 1.5523         estimate D2E/DX2                !
 ! R10   R(5,6)                  1.4014         estimate D2E/DX2                !
 ! R11   R(5,8)                  1.07           estimate D2E/DX2                !
 ! R12   R(6,9)                  1.07           estimate D2E/DX2                !
 ! R13   R(11,12)                1.4014         estimate D2E/DX2                !
 ! R14   R(11,13)                1.4014         estimate D2E/DX2                !
 ! R15   R(12,14)                1.4014         estimate D2E/DX2                !
 ! R16   R(12,21)                1.07           estimate D2E/DX2                !
 ! R17   R(13,15)                1.4014         estimate D2E/DX2                !
 ! R18   R(13,16)                1.07           estimate D2E/DX2                !
 ! R19   R(14,17)                1.4014         estimate D2E/DX2                !
 ! R20   R(14,18)                1.07           estimate D2E/DX2                !
 ! R21   R(15,17)                1.4014         estimate D2E/DX2                !
 ! R22   R(15,19)                1.07           estimate D2E/DX2                !
 ! R23   R(17,25)                1.47           estimate D2E/DX2                !
 ! R24   R(20,21)                1.2008         estimate D2E/DX2                !
 ! R25   R(22,23)                1.1993         estimate D2E/DX2                !
 ! R26   R(22,24)                1.1993         estimate D2E/DX2                !
 ! R27   R(25,26)                1.1993         estimate D2E/DX2                !
 ! R28   R(25,27)                1.1993         estimate D2E/DX2                !
 ! A1    A(2,1,6)              120.0            estimate D2E/DX2                !
 ! A2    A(2,1,22)             120.0            estimate D2E/DX2                !
 ! A3    A(6,1,22)             120.0            estimate D2E/DX2                !
 ! A4    A(1,2,3)              120.0            estimate D2E/DX2                !
 ! A5    A(1,2,7)              120.0            estimate D2E/DX2                !
 ! A6    A(3,2,7)              120.0            estimate D2E/DX2                !
 ! A7    A(2,3,4)              120.0            estimate D2E/DX2                !
 ! A8    A(2,3,20)             120.0            estimate D2E/DX2                !
 ! A9    A(4,3,20)             120.0            estimate D2E/DX2                !
 ! A10   A(3,4,5)              120.0            estimate D2E/DX2                !
 ! A11   A(3,4,10)             120.0            estimate D2E/DX2                !
 ! A12   A(5,4,10)             120.0            estimate D2E/DX2                !
 ! A13   A(4,5,6)              120.0            estimate D2E/DX2                !
 ! A14   A(4,5,8)              120.0            estimate D2E/DX2                !
 ! A15   A(6,5,8)              120.0            estimate D2E/DX2                !
 ! A16   A(1,6,5)              120.0            estimate D2E/DX2                !
 ! A17   A(1,6,9)              120.0            estimate D2E/DX2                !
 ! A18   A(5,6,9)              120.0            estimate D2E/DX2                !
 ! A19   A(12,11,13)           120.0            estimate D2E/DX2                !
 ! A20   A(11,12,14)           120.0            estimate D2E/DX2                !
 ! A21   A(11,12,21)           120.0            estimate D2E/DX2                !
 ! A22   A(14,12,21)           120.0            estimate D2E/DX2                !
 ! A23   A(11,13,15)           120.0            estimate D2E/DX2                !
 ! A24   A(11,13,16)           120.0            estimate D2E/DX2                !
 ! A25   A(15,13,16)           120.0            estimate D2E/DX2                !
 ! A26   A(12,14,17)           120.0            estimate D2E/DX2                !
 ! A27   A(12,14,18)           120.0            estimate D2E/DX2                !
 ! A28   A(17,14,18)           120.0            estimate D2E/DX2                !
 ! A29   A(13,15,17)           120.0            estimate D2E/DX2                !
 ! A30   A(13,15,19)           120.0            estimate D2E/DX2                !
 ! A31   A(17,15,19)           120.0            estimate D2E/DX2                !
 ! A32   A(14,17,15)           120.0            estimate D2E/DX2                !
 ! A33   A(14,17,25)           120.0            estimate D2E/DX2                !
 ! A34   A(15,17,25)           120.0            estimate D2E/DX2                !
 ! A35   A(3,20,21)            145.574          estimate D2E/DX2                !
 ! A36   A(12,21,20)           147.929          estimate D2E/DX2                !
 ! A37   A(1,22,23)            118.3934         estimate D2E/DX2                !
 ! A38   A(1,22,24)            118.3927         estimate D2E/DX2                !
 ! A39   A(23,22,24)           123.2139         estimate D2E/DX2                !
 ! A40   A(17,25,26)           118.3934         estimate D2E/DX2                !
 ! A41   A(17,25,27)           118.3927         estimate D2E/DX2                !
 ! A42   A(26,25,27)           123.2139         estimate D2E/DX2                !
 ! D1    D(6,1,2,3)              0.0001         estimate D2E/DX2                !
 ! D2    D(6,1,2,7)           -179.9998         estimate D2E/DX2                !
 ! D3    D(22,1,2,3)          -179.9999         estimate D2E/DX2                !
 ! D4    D(22,1,2,7)             0.0002         estimate D2E/DX2                !
 ! D5    D(2,1,6,5)             -0.0001         estimate D2E/DX2                !
 ! D6    D(2,1,6,9)            179.9998         estimate D2E/DX2                !
 ! D7    D(22,1,6,5)           179.9999         estimate D2E/DX2                !
 ! D8    D(22,1,6,9)            -0.0002         estimate D2E/DX2                !
 ! D9    D(2,1,22,23)           90.3367         estimate D2E/DX2                !
 ! D10   D(2,1,22,24)          -89.6634         estimate D2E/DX2                !
 ! D11   D(6,1,22,23)          -89.6633         estimate D2E/DX2                !
 ! D12   D(6,1,22,24)           90.3367         estimate D2E/DX2                !
 ! D13   D(1,2,3,4)              0.0001         estimate D2E/DX2                !
 ! D14   D(1,2,3,20)          -179.9999         estimate D2E/DX2                !
 ! D15   D(7,2,3,4)            179.9999         estimate D2E/DX2                !
 ! D16   D(7,2,3,20)            -0.0001         estimate D2E/DX2                !
 ! D17   D(2,3,4,5)             -0.0002         estimate D2E/DX2                !
 ! D18   D(2,3,4,10)           179.9998         estimate D2E/DX2                !
 ! D19   D(20,3,4,5)           179.9998         estimate D2E/DX2                !
 ! D20   D(20,3,4,10)           -0.0002         estimate D2E/DX2                !
 ! D21   D(2,3,20,21)          176.508          estimate D2E/DX2                !
 ! D22   D(4,3,20,21)           -3.492          estimate D2E/DX2                !
 ! D23   D(3,4,5,6)              0.0001         estimate D2E/DX2                !
 ! D24   D(3,4,5,8)           -180.0            estimate D2E/DX2                !
 ! D25   D(10,4,5,6)          -179.9999         estimate D2E/DX2                !
 ! D26   D(10,4,5,8)             0.0            estimate D2E/DX2                !
 ! D27   D(4,5,6,1)              0.0            estimate D2E/DX2                !
 ! D28   D(4,5,6,9)           -179.9999         estimate D2E/DX2                !
 ! D29   D(8,5,6,1)           -179.9999         estimate D2E/DX2                !
 ! D30   D(8,5,6,9)              0.0002         estimate D2E/DX2                !
 ! D31   D(13,11,12,14)          0.0002         estimate D2E/DX2                !
 ! D32   D(13,11,12,21)       -179.9998         estimate D2E/DX2                !
 ! D33   D(12,11,13,15)          0.0            estimate D2E/DX2                !
 ! D34   D(12,11,13,16)        179.9999         estimate D2E/DX2                !
 ! D35   D(11,12,14,17)         -0.0002         estimate D2E/DX2                !
 ! D36   D(11,12,14,18)        179.9998         estimate D2E/DX2                !
 ! D37   D(21,12,14,17)        179.9998         estimate D2E/DX2                !
 ! D38   D(21,12,14,18)         -0.0002         estimate D2E/DX2                !
 ! D39   D(11,12,21,20)        -26.6215         estimate D2E/DX2                !
 ! D40   D(14,12,21,20)        153.3785         estimate D2E/DX2                !
 ! D41   D(11,13,15,17)         -0.0001         estimate D2E/DX2                !
 ! D42   D(11,13,15,19)        179.9999         estimate D2E/DX2                !
 ! D43   D(16,13,15,17)        179.9999         estimate D2E/DX2                !
 ! D44   D(16,13,15,19)          0.0            estimate D2E/DX2                !
 ! D45   D(12,14,17,15)          0.0001         estimate D2E/DX2                !
 ! D46   D(12,14,17,25)       -179.9999         estimate D2E/DX2                !
 ! D47   D(18,14,17,15)       -179.9999         estimate D2E/DX2                !
 ! D48   D(18,14,17,25)          0.0001         estimate D2E/DX2                !
 ! D49   D(13,15,17,14)          0.0001         estimate D2E/DX2                !
 ! D50   D(13,15,17,25)       -179.9999         estimate D2E/DX2                !
 ! D51   D(19,15,17,14)       -180.0            estimate D2E/DX2                !
 ! D52   D(19,15,17,25)          0.0            estimate D2E/DX2                !
 ! D53   D(14,17,25,26)        -91.3631         estimate D2E/DX2                !
 ! D54   D(14,17,25,27)         88.6369         estimate D2E/DX2                !
 ! D55   D(15,17,25,26)         88.6369         estimate D2E/DX2                !
 ! D56   D(15,17,25,27)        -91.3631         estimate D2E/DX2                !
 ! D57   D(3,20,21,12)          24.9605         estimate D2E/DX2                !
 --------------------------------------------------------------------------------
 Trust Radius=3.00D-01 FncErr=1.00D-07 GrdErr=1.00D-06 EigMax=2.50D+02 EigMin=1.00D-04
 Number of steps in this run=    137 maximum allowed number of steps=    162.
 GradGradGradGradGradGradGradGradGradGradGradGradGradGradGradGradGradGrad

                          Input orientation:                          
 ---------------------------------------------------------------------
 Center     Atomic      Atomic             Coordinates (Angstroms)
 Number     Number       Type             X           Y           Z
 ---------------------------------------------------------------------
      1          6           0       -4.749416   -0.230579   -0.400021
      2          6           0       -4.820199    0.238538   -1.718672
      3          6           0       -4.550247    1.584841   -1.998879
      4          6           0       -4.209510    2.462026   -0.960435
      5          6           0       -4.138728    1.992910    0.358216
      6          6           0       -4.408682    0.646607    0.638423
      7          1           0       -5.080361   -0.431212   -2.511547
      8          1           0       -3.878568    2.662660    1.151091
      9          1           0       -4.354640    0.288426    1.645243
     10          8           0       -3.910486    3.953296   -1.270814
     11          6           0       -3.817523    4.699853   -2.779363
     12          6           0       -4.131676    3.887607   -3.877310
     13          6           0       -3.303947    5.987511   -2.984541
     14          6           0       -3.932249    4.363019   -5.180435
     15          6           0       -3.104523    6.462923   -4.287666
     16          1           0       -3.064085    6.607679   -2.146234
     17          6           0       -3.418674    5.650677   -5.385613
     18          1           0       -4.172109    3.742850   -6.018741
     19          1           0       -2.712397    7.446079   -4.444324
     20          1           0       -4.604292    1.943023   -3.005698
     21          1           0       -4.523805    2.904453   -3.720651
     22          7           0       -5.032581   -1.642786   -0.106098
     23          8           0       -4.121672   -2.422755   -0.123715
     24          8           0       -6.163210   -1.958585    0.139583
     25          7           0       -3.209487    6.149361   -6.752527
     26          8           0       -2.139653    5.974881   -7.265784
     27          8           0       -4.117010    6.710784   -7.299898
 ---------------------------------------------------------------------
                    Distance matrix (angstroms):
                    1          2          3          4          5
     1  C    0.000000
     2  C    1.401400   0.000000
     3  C    2.427296   1.401400   0.000000
     4  C    2.802800   2.427296   1.401400   0.000000
     5  C    2.427296   2.802800   2.427296   1.401400   0.000000
     6  C    1.401400   2.427296   2.802800   2.427296   1.401400
     7  H    2.146700   1.070000   2.146700   3.396345   3.872800
     8  H    3.396345   3.872800   3.396345   2.146700   1.070000
     9  H    2.146700   3.396345   3.872800   3.396345   2.146700
    10  O    4.355100   3.850660   2.559092   1.552300   2.559092
    11  C    5.553274   4.694012   3.293833   2.910330   4.156335
    12  C    5.425182   4.295286   3.001072   3.247537   4.640001
    13  C    6.887218   6.078827   4.680630   4.164864   5.275199
    14  C    6.679914   5.457435   4.268781   4.636706   6.027993
    15  C    7.913434   6.948831   5.578920   5.319647   6.529535
    16  H    7.256127   6.620627   5.240161   4.461452   5.359405
    17  C    7.824077   6.685954   5.411233   5.511362   6.847577
    18  H    6.905899   5.584874   4.578131   5.218081   6.612790
    19  H    8.912739   7.988783   6.611506   6.262556   7.405125
    20  H    3.396345   2.146700   1.070000   2.146700   3.396345
    21  H    4.572298   3.347069   2.169464   2.813062   4.197184
    22  N    1.470000   2.486942   3.772644   4.272800   3.772644
    23  O    2.296964   3.180300   4.445306   4.956703   4.441919
    24  O    2.296952   3.175553   4.441907   4.956691   4.445293
    25  N    9.133967   7.929181   6.725299   6.938647   8.288682
    26  O    9.615472   8.417921   7.267991   7.508786   8.830502
    27  O    9.807689   8.575227   7.386730   7.632122   8.994750
                    6          7          8          9         10
     6  C    0.000000
     7  H    3.396345   0.000000
     8  H    2.146700   4.942800   0.000000
     9  H    1.070000   4.280590   2.471400   0.000000
    10  O    3.850660   4.704459   2.744520   4.704459   0.000000
    11  C    5.334748   5.290965   4.427454   6.271070   1.685736
    12  C    5.565309   4.627906   5.181638   6.595635   2.616688
    13  C    6.547638   6.676779   5.337441   7.417441   2.728146
    14  C    6.920825   5.605869   6.556091   7.960565   3.931091
    15  C    7.732834   7.388345   6.679913   8.653706   4.006145
    16  H    6.715403   7.331085   5.205662   7.481563   2.920360
    17  C    7.893659   6.928985   7.201962   8.891721   4.478231
    18  H    7.345783   5.527036   7.256685   8.408509   4.759784
    19  H    8.657051   8.449532   7.453169   9.540010   4.868893
    20  H    3.872800   2.471400   4.280590   4.942800   2.744520
    21  H    4.910464   3.591427   4.920231   5.972021   2.734581
    22  N    2.486942   2.693767   4.631321   2.693766   5.825100
    23  O    3.175565   3.253778   5.248398   3.245611   6.481856
    24  O    3.180288   3.245600   5.253441   3.253766   6.481845
    25  N    9.292175   8.049225   8.664407  10.304586   5.946703
    26  O    9.798749   8.502268   9.210777  10.800386   6.569803
    27  O    9.993811   8.652425   9.373547  11.014477   6.632966
                   11         12         13         14         15
    11  C    0.000000
    12  C    1.401400   0.000000
    13  C    1.401400   2.427296   0.000000
    14  C    2.427296   1.401400   2.802800   0.000000
    15  C    2.427296   2.802800   1.401400   2.427296   0.000000
    16  H    2.146700   3.396345   1.070000   3.872800   2.146700
    17  C    2.802800   2.427296   2.427296   1.401400   1.401400
    18  H    3.396345   2.146700   3.872800   1.070000   3.396345
    19  H    3.396345   3.872800   2.146700   3.396345   1.070000
    20  H    2.875821   2.182769   4.248439   3.322273   4.931759
    21  H    2.146700   1.070000   3.396345   2.146700   3.872800
    22  N    6.989404   6.754177   8.336368   7.939100   9.322309
    23  O    7.607662   7.342360   8.921075   8.464811   9.865514
    24  O    7.639194   7.378382   9.004220   8.558180   9.993893
    25  N    4.272800   3.772644   3.772644   2.486942   2.486942
    26  O    4.956704   4.450463   4.436753   3.187504   3.168334
    27  O    4.956690   4.436739   4.450450   3.168322   3.187492
                   16         17         18         19         20
    16  H    0.000000
    17  C    3.396345   0.000000
    18  H    4.942800   2.146700   0.000000
    19  H    2.471400   2.146700   4.280590   0.000000
    20  H    4.986976   4.562498   3.536183   5.994376   0.000000
    21  H    4.280590   3.396345   2.471400   4.942800   1.200826
    22  N    8.723949   9.147271   8.043931  10.334937   4.631321
    23  O    9.314387   9.662406   8.530449  10.864972   5.253453
    24  O    9.392040   9.795975   8.625300  11.016716   5.248386
    25  N    4.631321   1.470000   2.693767   2.693767   5.803231
    26  O    5.240686   2.296964   3.266183   3.233124   6.362284
    27  O    5.261134   2.296952   3.233114   3.266175   6.434993
                   21         22         23         24         25
    21  H    0.000000
    22  N    5.831057   0.000000
    23  O    6.440404   1.199341   0.000000
    24  O    6.421697   1.199337   2.110132   0.000000
    25  N    4.631321  10.402704  10.874484  11.043752   0.000000
    26  O    5.261147  10.847072  11.200796  11.574469   1.199341
    27  O    5.240672  11.062149  11.615471  11.605635   1.199337
                   26         27
    26  O    0.000000
    27  O    2.110132   0.000000
 Stoichiometry    C12H8N2O5
 Framework group  C1[X(C12H8N2O5)]
 Deg. of freedom    75
 Full point group                 C1      NOp   1
 Largest Abelian subgroup         C1      NOp   1
 Largest concise Abelian subgroup C1      NOp   1
                         Standard orientation:                         
 ---------------------------------------------------------------------
 Center     Atomic      Atomic             Coordinates (Angstroms)
 Number     Number       Type             X           Y           Z
 ---------------------------------------------------------------------
      1          6           0       -3.908682   -0.219378    0.023756
      2          6           0       -2.727573   -0.952776   -0.152400
      3          6           0       -1.491788   -0.292878   -0.188347
      4          6           0       -1.437112    1.100418   -0.048135
      5          6           0       -2.618221    1.833816    0.128019
      6          6           0       -3.854006    1.173918    0.163965
      7          1           0       -2.769319   -2.016588   -0.259455
      8          1           0       -2.576475    2.897628    0.235073
      9          1           0       -4.755809    1.733884    0.298461
     10          8           0       -0.068260    1.831372   -0.087949
     11          6           0        1.470436    1.147291   -0.166401
     12          6           0        1.507040   -0.247695   -0.295230
     13          6           0        2.656299    1.862493    0.048392
     14          6           0        2.729507   -0.927478   -0.209262
     15          6           0        3.878766    1.182710    0.134356
     16          1           0        2.628351    2.927596    0.146754
     17          6           0        3.915370   -0.212276    0.005530
     18          1           0        2.757455   -1.992581   -0.307622
     19          1           0        4.784199    1.728783    0.298355
     20          1           0       -0.589985   -0.852843   -0.322847
     21          1           0        0.601608   -0.793767   -0.459232
     22          7           0       -5.204959   -0.911579    0.061464
     23          8           0       -5.622288   -1.283400    1.122598
     24          8           0       -5.793449   -1.076856   -0.970414
     25          7           0        5.197679   -0.925336    0.095705
     26          8           0        5.578378   -1.279779    1.176379
     27          8           0        5.811958   -1.124175   -0.915005
 ---------------------------------------------------------------------
 Rotational constants (GHZ):           1.1329808           0.1213289           0.1132848
 Standard basis: 6-31+G(d) (6D, 7F)
 There are   377 symmetry adapted cartesian basis functions of A   symmetry.
 There are   377 symmetry adapted basis functions of A   symmetry.
   377 basis functions,   640 primitive gaussians,   377 cartesian basis functions
    67 alpha electrons       67 beta electrons
       nuclear repulsion energy      1253.2385831498 Hartrees.
 NAtoms=   27 NActive=   27 NUniq=   27 SFac= 1.00D+00 NAtFMM=   60 NAOKFM=F Big=F
 Integral buffers will be    131072 words long.
 Raffenetti 2 integral format.
 Two-electron integral symmetry is turned on.
 Nuclear repulsion after empirical dispersion term =     1253.2159265345 Hartrees.
 One-electron integrals computed using PRISM.
 NBasis=   377 RedAO= T EigKep=  1.31D-06  NBF=   377
 NBsUse=   376 1.00D-06 EigRej=  3.57D-07 NBFU=   376
 ExpMin= 4.38D-02 ExpMax= 5.48D+03 ExpMxC= 8.25D+02 IAcc=3 IRadAn=         5 AccDes= 0.00D+00
 Harris functional with IExCor=  402 and IRadAn=       5 diagonalized for initial guess.
 HarFok:  IExCor=  402 AccDes= 0.00D+00 IRadAn=         5 IDoV= 1 UseB2=F ITyADJ=14
 ICtDFT=  3500011 ScaDFX=  1.000000  1.000000  1.000000  1.000000
 FoFCou: FMM=F IPFlag=           0 FMFlag=      100000 FMFlg1=           0
         NFxFlg=           0 DoJE=T BraDBF=F KetDBF=T FulRan=T
         wScrn=  0.000000 ICntrl=       500 IOpCl=  0 I1Cent=   200000004 NGrid=           0
         NMat0=    1 NMatS0=      1 NMatT0=    0 NMatD0=    1 NMtDS0=    0 NMtDT0=    0
 Petite list used in FoFCou.
 Requested convergence on RMS density matrix=1.00D-08 within 128 cycles.
 Requested convergence on MAX density matrix=1.00D-06.
 Requested convergence on             energy=1.00D-06.
 No special actions if energy rises.
 SCF Done:  E(RB3LYP) =  -947.455162531     A.U. after   15 cycles
            NFock= 15  Conv=0.99D-08     -V/T= 2.0093

 **********************************************************************

            Population analysis using the SCF Density.

 **********************************************************************

 Orbital symmetries:
       Occupied  (A) (A) (A) (A) (A) (A) (A) (A) (A) (A) (A) (A)
                 (A) (A) (A) (A) (A) (A) (A) (A) (A) (A) (A) (A)
                 (A) (A) (A) (A) (A) (A) (A) (A) (A) (A) (A) (A)
                 (A) (A) (A) (A) (A) (A) (A) (A) (A) (A) (A) (A)
                 (A) (A) (A) (A) (A) (A) (A) (A) (A) (A) (A) (A)
                 (A) (A) (A) (A) (A) (A) (A)
       Virtual   (A) (A) (A) (A) (A) (A) (A) (A) (A) (A) (A) (A)
                 (A) (A) (A) (A) (A) (A) (A) (A) (A) (A) (A) (A)
                 (A) (A) (A) (A) (A) (A) (A) (A) (A) (A) (A) (A)
                 (A) (A) (A) (A) (A) (A) (A) (A) (A) (A) (A) (A)
                 (A) (A) (A) (A) (A) (A) (A) (A) (A) (A) (A) (A)
                 (A) (A) (A) (A) (A) (A) (A) (A) (A) (A) (A) (A)
                 (A) (A) (A) (A) (A) (A) (A) (A) (A) (A) (A) (A)
                 (A) (A) (A) (A) (A) (A) (A) (A) (A) (A) (A) (A)
                 (A) (A) (A) (A) (A) (A) (A) (A) (A) (A) (A) (A)
                 (A) (A) (A) (A) (A) (A) (A) (A) (A) (A) (A) (A)
                 (A) (A) (A) (A) (A) (A) (A) (A) (A) (A) (A) (A)
                 (A) (A) (A) (A) (A) (A) (A) (A) (A) (A) (A) (A)
                 (A) (A) (A) (A) (A) (A) (A) (A) (A) (A) (A) (A)
                 (A) (A) (A) (A) (A) (A) (A) (A) (A) (A) (A) (A)
                 (A) (A) (A) (A) (A) (A) (A) (A) (A) (A) (A) (A)
                 (A) (A) (A) (A) (A) (A) (A) (A) (A) (A) (A) (A)
                 (A) (A) (A) (A) (A) (A) (A) (A) (A) (A) (A) (A)
                 (A) (A) (A) (A) (A) (A) (A) (A) (A) (A) (A) (A)
                 (A) (A) (A) (A) (A) (A) (A) (A) (A) (A) (A) (A)
                 (A) (A) (A) (A) (A) (A) (A) (A) (A) (A) (A) (A)
                 (A) (A) (A) (A) (A) (A) (A) (A) (A) (A) (A) (A)
                 (A) (A) (A) (A) (A) (A) (A) (A) (A) (A) (A) (A)
                 (A) (A) (A) (A) (A) (A) (A) (A) (A) (A) (A) (A)
                 (A) (A) (A) (A) (A) (A) (A) (A) (A) (A) (A) (A)
                 (A) (A) (A) (A) (A) (A) (A) (A) (A) (A) (A) (A)
                 (A) (A) (A) (A) (A) (A) (A) (A) (A)
 The electronic state is 1-A.
 Alpha  occ. eigenvalues --  -19.21877 -19.21845 -19.21836 -19.21194 -19.21192
 Alpha  occ. eigenvalues --  -14.60739 -14.60058 -10.31783 -10.30545 -10.28985
 Alpha  occ. eigenvalues --  -10.27953 -10.25862 -10.25597 -10.25558 -10.24901
 Alpha  occ. eigenvalues --  -10.24796 -10.24792 -10.24219 -10.23869  -1.28829
 Alpha  occ. eigenvalues --   -1.28177  -1.10397  -1.09751  -1.00391  -0.92342
 Alpha  occ. eigenvalues --   -0.91116  -0.84383  -0.82857  -0.81111  -0.79989
 Alpha  occ. eigenvalues --   -0.73422  -0.71569  -0.68683  -0.66610  -0.63299
 Alpha  occ. eigenvalues --   -0.62359  -0.59240  -0.58475  -0.57809  -0.57135
 Alpha  occ. eigenvalues --   -0.55142  -0.54538  -0.53925  -0.53136  -0.50782
 Alpha  occ. eigenvalues --   -0.50167  -0.49554  -0.49094  -0.48025  -0.46071
 Alpha  occ. eigenvalues --   -0.43860  -0.43489  -0.42263  -0.42170  -0.38856
 Alpha  occ. eigenvalues --   -0.37551  -0.35415  -0.34729  -0.34224  -0.34120
 Alpha  occ. eigenvalues --   -0.34000  -0.33443  -0.32271  -0.30936  -0.30033
 Alpha  occ. eigenvalues --   -0.29438  -0.26480
 Alpha virt. eigenvalues --   -0.09600  -0.08963  -0.07053  -0.06763  -0.05654
 Alpha virt. eigenvalues --   -0.05334  -0.04559  -0.01290  -0.00236   0.00294
 Alpha virt. eigenvalues --    0.01695   0.02434   0.03111   0.03751   0.03810
 Alpha virt. eigenvalues --    0.04321   0.04379   0.05732   0.06399   0.06812
 Alpha virt. eigenvalues --    0.07008   0.07317   0.07762   0.08232   0.09031
 Alpha virt. eigenvalues --    0.09809   0.10012   0.10193   0.10575   0.11343
 Alpha virt. eigenvalues --    0.11615   0.11746   0.11833   0.12302   0.12675
 Alpha virt. eigenvalues --    0.12945   0.13188   0.13452   0.13826   0.14208
 Alpha virt. eigenvalues --    0.14701   0.15186   0.15369   0.16258   0.16635
 Alpha virt. eigenvalues --    0.17410   0.17653   0.17994   0.18667   0.18795
 Alpha virt. eigenvalues --    0.19103   0.19869   0.19996   0.20334   0.20978
 Alpha virt. eigenvalues --    0.21330   0.21849   0.22394   0.22722   0.22965
 Alpha virt. eigenvalues --    0.23392   0.23734   0.23831   0.24113   0.24984
 Alpha virt. eigenvalues --    0.25022   0.25395   0.25714   0.26271   0.26684
 Alpha virt. eigenvalues --    0.27437   0.27540   0.27944   0.28390   0.28576
 Alpha virt. eigenvalues --    0.28798   0.29328   0.29562   0.30163   0.30594
 Alpha virt. eigenvalues --    0.31010   0.31669   0.32192   0.32854   0.32952
 Alpha virt. eigenvalues --    0.33632   0.34688   0.35260   0.35887   0.36913
 Alpha virt. eigenvalues --    0.37508   0.37905   0.38459   0.39005   0.39290
 Alpha virt. eigenvalues --    0.39677   0.39848   0.40682   0.40695   0.42401
 Alpha virt. eigenvalues --    0.43077   0.43757   0.44175   0.46462   0.47659
 Alpha virt. eigenvalues --    0.48444   0.48991   0.52910   0.54841   0.56641
 Alpha virt. eigenvalues --    0.58370   0.61056   0.62578   0.63794   0.64700
 Alpha virt. eigenvalues --    0.65945   0.66774   0.68205   0.68402   0.69564
 Alpha virt. eigenvalues --    0.70381   0.72296   0.72740   0.73185   0.73730
 Alpha virt. eigenvalues --    0.74168   0.74809   0.75752   0.76280   0.77164
 Alpha virt. eigenvalues --    0.78283   0.78668   0.80137   0.83307   0.84917
 Alpha virt. eigenvalues --    0.85379   0.85697   0.89314   0.89728   0.91490
 Alpha virt. eigenvalues --    0.92486   0.93076   0.94227   0.95116   0.95522
 Alpha virt. eigenvalues --    0.96640   0.98343   0.99338   1.00555   1.02599
 Alpha virt. eigenvalues --    1.06301   1.06825   1.08385   1.08758   1.09429
 Alpha virt. eigenvalues --    1.11225   1.12600   1.13454   1.14777   1.15235
 Alpha virt. eigenvalues --    1.15961   1.16633   1.16743   1.17677   1.17907
 Alpha virt. eigenvalues --    1.18681   1.19411   1.19906   1.21442   1.22558
 Alpha virt. eigenvalues --    1.23733   1.24527   1.24829   1.25934   1.25969
 Alpha virt. eigenvalues --    1.27228   1.27746   1.28026   1.29836   1.30379
 Alpha virt. eigenvalues --    1.31672   1.32918   1.33636   1.34700   1.37092
 Alpha virt. eigenvalues --    1.37830   1.38259   1.41213   1.42693   1.43123
 Alpha virt. eigenvalues --    1.43363   1.43794   1.44110   1.44693   1.45067
 Alpha virt. eigenvalues --    1.45690   1.46925   1.47852   1.52156   1.58343
 Alpha virt. eigenvalues --    1.62216   1.64071   1.64748   1.65219   1.69199
 Alpha virt. eigenvalues --    1.70062   1.70483   1.74775   1.76659   1.77892
 Alpha virt. eigenvalues --    1.78343   1.78478   1.78535   1.78929   1.79099
 Alpha virt. eigenvalues --    1.79998   1.81268   1.82482   1.83720   1.84484
 Alpha virt. eigenvalues --    1.85047   1.87023   1.87598   1.89393   1.93083
 Alpha virt. eigenvalues --    1.94788   1.95501   1.95787   1.97964   1.99419
 Alpha virt. eigenvalues --    2.00759   2.01985   2.03823   2.05160   2.06273
 Alpha virt. eigenvalues --    2.06527   2.08728   2.09429   2.09679   2.10401
 Alpha virt. eigenvalues --    2.11320   2.12010   2.13033   2.14860   2.18231
 Alpha virt. eigenvalues --    2.21472   2.22911   2.23069   2.23431   2.24301
 Alpha virt. eigenvalues --    2.25900   2.26034   2.26786   2.33987   2.37420
 Alpha virt. eigenvalues --    2.39960   2.44098   2.44771   2.45542   2.47877
 Alpha virt. eigenvalues --    2.55386   2.56428   2.58201   2.59053   2.60081
 Alpha virt. eigenvalues --    2.64642   2.69047   2.69750   2.70447   2.71277
 Alpha virt. eigenvalues --    2.73381   2.75957   2.77014   2.78419   2.80514
 Alpha virt. eigenvalues --    2.81786   2.86884   2.87587   2.90682   2.96406
 Alpha virt. eigenvalues --    2.97443   2.98023   3.00085   3.01963   3.05449
 Alpha virt. eigenvalues --    3.07303   3.15371   3.16201   3.36398   3.38397
 Alpha virt. eigenvalues --    4.11103   4.14361   4.22242   4.23476   4.24820
 Alpha virt. eigenvalues --    4.27854   4.31002   4.33345   4.34421   4.36065
 Alpha virt. eigenvalues --    4.38557   4.38792   4.41985   4.47476   4.50762
 Alpha virt. eigenvalues --    4.53678   4.54201   4.70061   4.73395
          Condensed to atoms (all electrons):
               1          2          3          4          5          6
     1  C   13.821931  -3.410049  -0.312266  -2.811487  -0.407548  -1.028265
     2  C   -3.410049  23.899656  -6.571708   1.948536  -1.102087  -8.146483
     3  C   -0.312266  -6.571708  14.199237  -0.933648  -1.509217   0.795641
     4  C   -2.811487   1.948536  -0.933648  12.328839  -3.545570  -0.810424
     5  C   -0.407548  -1.102087  -1.509217  -3.545570  13.646645  -0.374947
     6  C   -1.028265  -8.146483   0.795641  -0.810424  -0.374947  15.095142
     7  H   -0.008403   0.326196  -0.023128   0.027356  -0.032476   0.007399
     8  H    0.024186  -0.031656   0.060948   0.007998   0.315376  -0.076280
     9  H    0.001852  -0.007806   0.008367   0.018618  -0.105801   0.382373
    10  O   -0.025225   0.046909  -0.135973   0.311211  -0.220189   0.051153
    11  C   -0.072154  -0.378390  -0.210191  -0.520455   0.960637  -0.008976
    12  C   -0.129239   0.000854  -0.024849   0.380861  -0.743627   0.336366
    13  C   -0.002088  -0.559979  -0.606169   0.422053   0.634937  -0.069686
    14  C    0.083426   0.269853   0.415398  -0.486421  -0.910393   0.084391
    15  C    0.018380   0.081165   0.353811  -0.018489  -0.136773  -0.032294
    16  H    0.000027  -0.000301   0.002500  -0.000198  -0.003319  -0.000260
    17  C   -0.019020   0.070352  -0.103597  -0.104913   0.018246   0.018431
    18  H    0.000290   0.003528  -0.000635  -0.003737  -0.000941   0.000017
    19  H    0.000003   0.000049   0.000536   0.000478  -0.000074  -0.000003
    20  H   -0.013499   0.042431   0.074037   0.039385   0.037353   0.022443
    21  H    0.000937   0.001375  -0.008172   0.031896   0.010041   0.001330
    22  N   -0.405103   0.342562  -0.219021  -0.083415   0.190165  -0.285791
    23  O    0.299246  -0.192110   0.061275   0.003086  -0.033493  -0.103439
    24  O    0.292586  -0.185598   0.037320   0.000570  -0.025804  -0.085529
    25  N    0.000059  -0.000770  -0.003618   0.002350   0.000330  -0.000103
    26  O    0.000029  -0.000085   0.001676   0.000963   0.000108  -0.000020
    27  O   -0.000008  -0.000117  -0.000633   0.000184  -0.000008   0.000004
               7          8          9         10         11         12
     1  C   -0.008403   0.024186   0.001852  -0.025225  -0.072154  -0.129239
     2  C    0.326196  -0.031656  -0.007806   0.046909  -0.378390   0.000854
     3  C   -0.023128   0.060948   0.008367  -0.135973  -0.210191  -0.024849
     4  C    0.027356   0.007998   0.018618   0.311211  -0.520455   0.380861
     5  C   -0.032476   0.315376  -0.105801  -0.220189   0.960637  -0.743627
     6  C    0.007399  -0.076280   0.382373   0.051153  -0.008976   0.336366
     7  H    0.508679   0.000013  -0.000155  -0.000236  -0.003030  -0.002303
     8  H    0.000013   0.494923  -0.004924  -0.004044  -0.002601   0.000725
     9  H   -0.000155  -0.004924   0.497585  -0.000085   0.000600   0.000674
    10  O   -0.000236  -0.004044  -0.000085   8.357046   0.280392  -0.025638
    11  C   -0.003030  -0.002601   0.000600   0.280392  11.846982  -0.525397
    12  C   -0.002303   0.000725   0.000674  -0.025638  -0.525397  15.050395
    13  C   -0.000611  -0.000158  -0.000092  -0.245880  -3.029124  -0.417940
    14  C    0.003821  -0.000187   0.000059   0.032490   0.904367  -7.029670
    15  C    0.000030  -0.000119  -0.000004   0.042520  -0.310495  -0.644462
    16  H    0.000000   0.000000   0.000000  -0.001582  -0.010815   0.042300
    17  C    0.000221   0.000010   0.000004  -0.023689  -2.716577  -0.773443
    18  H    0.000000   0.000000   0.000000  -0.000132   0.011853  -0.049515
    19  H    0.000000   0.000000   0.000000  -0.000078   0.019918   0.007117
    20  H   -0.008366  -0.000193   0.000014  -0.010916   0.031008  -0.003917
    21  H    0.000278   0.000004   0.000000  -0.010642   0.025534   0.064001
    22  N   -0.001095   0.000623  -0.002554   0.000218   0.003682  -0.004934
    23  O    0.000080  -0.000067   0.000704  -0.000001   0.000704   0.000482
    24  O    0.000297  -0.000062   0.000521  -0.000004   0.000329   0.000742
    25  N    0.000000   0.000000   0.000000   0.000100  -0.076870  -0.166344
    26  O    0.000000   0.000000   0.000000   0.000030  -0.006623   0.095398
    27  O    0.000000   0.000000   0.000000  -0.000014   0.005159   0.000787
              13         14         15         16         17         18
     1  C   -0.002088   0.083426   0.018380   0.000027  -0.019020   0.000290
     2  C   -0.559979   0.269853   0.081165  -0.000301   0.070352   0.003528
     3  C   -0.606169   0.415398   0.353811   0.002500  -0.103597  -0.000635
     4  C    0.422053  -0.486421  -0.018489  -0.000198  -0.104913  -0.003737
     5  C    0.634937  -0.910393  -0.136773  -0.003319   0.018246  -0.000941
     6  C   -0.069686   0.084391  -0.032294  -0.000260   0.018431   0.000017
     7  H   -0.000611   0.003821   0.000030   0.000000   0.000221   0.000000
     8  H   -0.000158  -0.000187  -0.000119   0.000000   0.000010   0.000000
     9  H   -0.000092   0.000059  -0.000004   0.000000   0.000004   0.000000
    10  O   -0.245880   0.032490   0.042520  -0.001582  -0.023689  -0.000132
    11  C   -3.029124   0.904367  -0.310495  -0.010815  -2.716577   0.011853
    12  C   -0.417940  -7.029670  -0.644462   0.042300  -0.773443  -0.049515
    13  C   13.334799  -2.296909  -0.811026   0.330571  -0.146249  -0.033059
    14  C   -2.296909  24.439790  -6.613685  -0.023479  -2.943198   0.328257
    15  C   -0.811026  -6.613685  15.417081  -0.064784  -1.322376   0.020230
    16  H    0.330571  -0.023479  -0.064784   0.487163   0.024061   0.000013
    17  C   -0.146249  -2.943198  -1.322376   0.024061  13.705952   0.019524
    18  H   -0.033059   0.328257   0.020230   0.000013   0.019524   0.503285
    19  H   -0.085793  -0.006318   0.371425  -0.004963  -0.007811  -0.000151
    20  H    0.008371  -0.018455   0.001019   0.000004   0.004098   0.000296
    21  H    0.014626   0.076571   0.024951  -0.000196  -0.015456  -0.008298
    22  N    0.000383  -0.001104  -0.000101   0.000000   0.000065   0.000000
    23  O    0.000078  -0.000249  -0.000007   0.000000   0.000012   0.000000
    24  O    0.000017   0.000033  -0.000004   0.000000   0.000004   0.000000
    25  N    0.164273   0.249644  -0.290154   0.000587  -0.289443  -0.000407
    26  O   -0.023201  -0.245226  -0.088329  -0.000065   0.286602  -0.000027
    27  O   -0.017985  -0.098517  -0.123159  -0.000064   0.272555  -0.000100
              19         20         21         22         23         24
     1  C    0.000003  -0.013499   0.000937  -0.405103   0.299246   0.292586
     2  C    0.000049   0.042431   0.001375   0.342562  -0.192110  -0.185598
     3  C    0.000536   0.074037  -0.008172  -0.219021   0.061275   0.037320
     4  C    0.000478   0.039385   0.031896  -0.083415   0.003086   0.000570
     5  C   -0.000074   0.037353   0.010041   0.190165  -0.033493  -0.025804
     6  C   -0.000003   0.022443   0.001330  -0.285791  -0.103439  -0.085529
     7  H    0.000000  -0.008366   0.000278  -0.001095   0.000080   0.000297
     8  H    0.000000  -0.000193   0.000004   0.000623  -0.000067  -0.000062
     9  H    0.000000   0.000014   0.000000  -0.002554   0.000704   0.000521
    10  O   -0.000078  -0.010916  -0.010642   0.000218  -0.000001  -0.000004
    11  C    0.019918   0.031008   0.025534   0.003682   0.000704   0.000329
    12  C    0.007117  -0.003917   0.064001  -0.004934   0.000482   0.000742
    13  C   -0.085793   0.008371   0.014626   0.000383   0.000078   0.000017
    14  C   -0.006318  -0.018455   0.076571  -0.001104  -0.000249   0.000033
    15  C    0.371425   0.001019   0.024951  -0.000101  -0.000007  -0.000004
    16  H   -0.004963   0.000004  -0.000196   0.000000   0.000000   0.000000
    17  C   -0.007811   0.004098  -0.015456   0.000065   0.000012   0.000004
    18  H   -0.000151   0.000296  -0.008298   0.000000   0.000000   0.000000
    19  H    0.491515   0.000000   0.000012   0.000000   0.000000   0.000000
    20  H    0.000000   0.650811  -0.000470   0.001355  -0.000057  -0.000071
    21  H    0.000012  -0.000470   0.628772   0.000049  -0.000004  -0.000003
    22  N    0.000000   0.001355   0.000049   7.243336   0.240244   0.247418
    23  O    0.000000  -0.000057  -0.000004   0.240244   7.851004  -0.116526
    24  O    0.000000  -0.000071  -0.000003   0.247418  -0.116526   7.849645
    25  N   -0.000926   0.000044   0.001207   0.000000   0.000000   0.000000
    26  O    0.001046  -0.000004  -0.000008   0.000000   0.000000   0.000000
    27  O   -0.000444  -0.000003  -0.000097   0.000000   0.000000   0.000000
              25         26         27
     1  C    0.000059   0.000029  -0.000008
     2  C   -0.000770  -0.000085  -0.000117
     3  C   -0.003618   0.001676  -0.000633
     4  C    0.002350   0.000963   0.000184
     5  C    0.000330   0.000108  -0.000008
     6  C   -0.000103  -0.000020   0.000004
     7  H    0.000000   0.000000   0.000000
     8  H    0.000000   0.000000   0.000000
     9  H    0.000000   0.000000   0.000000
    10  O    0.000100   0.000030  -0.000014
    11  C   -0.076870  -0.006623   0.005159
    12  C   -0.166344   0.095398   0.000787
    13  C    0.164273  -0.023201  -0.017985
    14  C    0.249644  -0.245226  -0.098517
    15  C   -0.290154  -0.088329  -0.123159
    16  H    0.000587  -0.000065  -0.000064
    17  C   -0.289443   0.286602   0.272555
    18  H   -0.000407  -0.000027  -0.000100
    19  H   -0.000926   0.001046  -0.000444
    20  H    0.000044  -0.000004  -0.000003
    21  H    0.001207  -0.000008  -0.000097
    22  N    0.000000   0.000000   0.000000
    23  O    0.000000   0.000000   0.000000
    24  O    0.000000   0.000000   0.000000
    25  N    7.124387   0.270384   0.255831
    26  O    0.270384   7.817890  -0.109646
    27  O    0.255831  -0.109646   7.847937
 Mulliken charges:
               1
     1  C    0.101402
     2  C   -0.446329
     3  C    0.652080
     4  C   -0.205627
     5  C   -0.661570
     6  C    0.227808
     7  H    0.205434
     8  H    0.215484
     9  H    0.210049
    10  O   -0.417742
    11  C   -0.219470
    12  C    0.560573
    13  C   -0.564160
    14  C   -0.214288
    15  C    0.125650
    16  H    0.222801
    17  C    0.045632
    18  H    0.209709
    19  H    0.214460
    20  H    0.143281
    21  H    0.161762
    22  N   -0.266982
    23  O   -0.010961
    24  O   -0.015881
    25  N   -0.240561
    26  O   -0.000892
    27  O   -0.031662
 Sum of Mulliken charges =   0.00000
 Mulliken charges with hydrogens summed into heavy atoms:
               1
     1  C    0.101402
     2  C   -0.240895
     3  C    0.795361
     4  C   -0.205627
     5  C   -0.446086
     6  C    0.437857
    10  O   -0.417742
    11  C   -0.219470
    12  C    0.722336
    13  C   -0.341360
    14  C   -0.004579
    15  C    0.340110
    17  C    0.045632
    22  N   -0.266982
    23  O   -0.010961
    24  O   -0.015881
    25  N   -0.240561
    26  O   -0.000892
    27  O   -0.031662
 Electronic spatial extent (au):  <R**2>=           8569.9273
 Charge=              0.0000 electrons
 Dipole moment (field-independent basis, Debye):
    X=              0.9222    Y=              2.5549    Z=             -0.2207  Tot=              2.7252
 Quadrupole moment (field-independent basis, Debye-Ang):
   XX=           -153.8546   YY=           -100.4506   ZZ=           -119.0950
   XY=              0.6014   XZ=             -0.4259   YZ=              3.6713
 Traceless Quadrupole moment (field-independent basis, Debye-Ang):
   XX=            -29.3879   YY=             24.0162   ZZ=              5.3717
   XY=              0.6014   XZ=             -0.4259   YZ=              3.6713
 Octapole moment (field-independent basis, Debye-Ang**2):
  XXX=             17.7901  YYY=             -5.8879  ZZZ=              0.6030  XYY=              2.3223
  XXY=            165.1854  XXZ=              7.9236  XZZ=              0.7163  YZZ=             -0.3161
  YYZ=              0.3279  XYZ=              0.0171
 Hexadecapole moment (field-independent basis, Debye-Ang**3):
 XXXX=         -12027.2626 YYYY=           -957.0705 ZZZZ=           -290.5555 XXXY=              1.2501
 XXXZ=             -3.4788 YYYX=              4.3629 YYYZ=             15.7017 ZZZX=              1.5763
 ZZZY=             -0.9087 XXYY=          -1764.1142 XXZZ=          -1891.5508 YYZZ=           -238.2594
 XXYZ=             57.4246 YYXZ=              0.3162 ZZXY=             -0.6984
 N-N= 1.253215926535D+03 E-N=-4.713892648436D+03  KE= 9.387000437441D+02
 Evaluate density.
 Using the total density.
 Monte-Carlo method of calculating molar volume:
 based on  0.001 e/bohr**3 density envelope.
 Number of points per bohr**3 =   20 CutOff= 1.00D-04
 Using the SCF density.
 There are       405 points.  Will hold       405 in memory.
 LenV=  4026235029 MDV=  4026531840.
 Box volume = 8340.696 fraction occupied=0.252
 Integrated density= 1.0240788976537463D+02 error=-3.1592110234625366D+01
 Molar volume = 2100.620 bohr**3/mol (187.457 cm**3/mol)
 Recommended a0 for SCRF calculation =  5.13 angstrom (  9.69 bohr)
 Calling FoFJK, ICntrl=      2127 FMM=F ISym2X=0 I1Cent= 0 IOpClX= 0 NMat=1 NMatS=1 NMatT=0.
 ***** Axes restored to original set *****
 -------------------------------------------------------------------
 Center     Atomic                   Forces (Hartrees/Bohr)
 Number     Number              X              Y              Z
 -------------------------------------------------------------------
      1        6           0.004568205    0.023230216   -0.006115814
      2        6           0.002529249    0.003281310    0.013483582
      3        6          -0.000908244   -0.012778847    0.019221953
      4        6           0.007285688    0.048989676   -0.041283326
      5        6          -0.000206330    0.005693475   -0.010254385
      6        6          -0.002204947    0.000415405   -0.015637117
      7        1          -0.002863582   -0.007074479   -0.008822079
      8        1           0.002809177    0.007275944    0.007847864
      9        1           0.000884859   -0.002749297    0.010969837
     10        8          -0.002934292   -0.005964304   -0.025766911
     11        6          -0.002928798   -0.060256766    0.030916463
     12        6           0.004504453    0.021286826   -0.005282528
     13        6          -0.005208355   -0.013784545    0.014399832
     14        6           0.002712126    0.012830171    0.005663243
     15        6          -0.007964497   -0.014462199   -0.004850185
     16        1           0.003865525    0.006418226    0.008675757
     17        6          -0.003599306   -0.009149425    0.023129353
     18        1          -0.002845905   -0.007045449   -0.008822473
     19        1           0.004071207    0.010521441   -0.000030617
     20        1          -0.002623582   -0.022742612    0.012498903
     21        1           0.000740872    0.018188115   -0.017869711
     22        7           0.004367494    0.021610818   -0.004392131
     23        8           0.047234621   -0.023648838   -0.003821362
     24        8          -0.052226031   -0.001073968    0.008916247
     25        7          -0.002476712   -0.006961950    0.019359197
     26        8           0.049715452   -0.013699500   -0.010281133
     27        8          -0.046298347    0.021650557   -0.011852459
 -------------------------------------------------------------------
 Cartesian Forces:  Max     0.060256766 RMS     0.018396936

 GradGradGradGradGradGradGradGradGradGradGradGradGradGradGradGradGradGrad
 Berny optimization.
 FormGI is forming the generalized inverse of G from B-inverse, IUseBI=4.
 Internal  Forces:  Max     0.452311752 RMS     0.064524395
 Search for a local minimum.
 Step number   1 out of a maximum of  137
 All quantities printed in internal units (Hartrees-Bohrs-Radians)
 Mixed Optimization -- RFO/linear search
 Second derivative matrix not updated -- first step.
 ITU=  0
     Eigenvalues ---    0.00230   0.00499   0.00499   0.00766   0.00766
     Eigenvalues ---    0.00766   0.00766   0.01661   0.01667   0.01722
     Eigenvalues ---    0.01787   0.02070   0.02070   0.02070   0.02070
     Eigenvalues ---    0.02070   0.02070   0.02070   0.02070   0.02070
     Eigenvalues ---    0.02070   0.02070   0.02070   0.02070   0.10923
     Eigenvalues ---    0.16000   0.16000   0.16000   0.16000   0.16000
     Eigenvalues ---    0.16000   0.16000   0.16000   0.16000   0.16000
     Eigenvalues ---    0.22000   0.22000   0.22835   0.22981   0.23883
     Eigenvalues ---    0.24000   0.25000   0.25000   0.25000   0.25000
     Eigenvalues ---    0.25000   0.25000   0.25000   0.27457   0.35740
     Eigenvalues ---    0.35740   0.37230   0.37230   0.37230   0.37230
     Eigenvalues ---    0.37230   0.37230   0.37230   0.37230   0.41268
     Eigenvalues ---    0.41268   0.41640   0.42077   0.45389   0.45389
     Eigenvalues ---    0.45389   0.45389   0.45389   0.45389   0.45389
     Eigenvalues ---    0.45389   1.05155   1.05155   1.05157   1.05157
 RFO step:  Lambda=-6.45334372D-01 EMin= 2.30000000D-03
 Linear search not attempted -- first point.
 Maximum step size (   0.300) exceeded in Quadratic search.
    -- Step size scaled by   0.338
 Iteration  1 RMS(Cart)=  0.21308883 RMS(Int)=  0.01681494
 Iteration  2 RMS(Cart)=  0.25015253 RMS(Int)=  0.00887608
 Iteration  3 RMS(Cart)=  0.08874802 RMS(Int)=  0.00066069
 Iteration  4 RMS(Cart)=  0.00155435 RMS(Int)=  0.00002641
 Iteration  5 RMS(Cart)=  0.00000056 RMS(Int)=  0.00002641
 Variable       Old X    -DE/DX   Delta X   Delta X   Delta X     New X
                                 (Linear)    (Quad)   (Total)
    R1        2.64826  -0.00393   0.00000  -0.00110  -0.00110   2.64717
    R2        2.64826   0.01487   0.00000   0.00489   0.00487   2.65313
    R3        2.77790   0.00325   0.00000   0.00110   0.00110   2.77899
    R4        2.64826  -0.02371   0.00000  -0.00749  -0.00747   2.64079
    R5        2.02201   0.01166   0.00000   0.00387   0.00387   2.02588
    R6        2.64826  -0.03484   0.00000  -0.01103  -0.01101   2.63725
    R7        2.02201  -0.07110   0.00000  -0.02362  -0.02362   1.99838
    R8        2.64826  -0.01785   0.00000  -0.00560  -0.00561   2.64266
    R9        2.93342  -0.00114   0.00000  -0.00042  -0.00042   2.93300
   R10        2.64826   0.00874   0.00000   0.00289   0.00287   2.65113
   R11        2.02201   0.01105   0.00000   0.00367   0.00367   2.02568
   R12        2.02201   0.01129   0.00000   0.00375   0.00375   2.02576
   R13        2.64826  -0.01473   0.00000  -0.00472  -0.00471   2.64355
   R14        2.64826  -0.02066   0.00000  -0.00641  -0.00642   2.64185
   R15        2.64826  -0.02140   0.00000  -0.00672  -0.00670   2.64156
   R16        2.02201  -0.05968   0.00000  -0.01983  -0.01983   2.00218
   R17        2.64826   0.00686   0.00000   0.00224   0.00223   2.65049
   R18        2.02201   0.01138   0.00000   0.00378   0.00378   2.02579
   R19        2.64826  -0.00577   0.00000  -0.00171  -0.00171   2.64655
   R20        2.02201   0.01163   0.00000   0.00387   0.00387   2.02587
   R21        2.64826   0.00990   0.00000   0.00324   0.00323   2.65149
   R22        2.02201   0.01116   0.00000   0.00371   0.00371   2.02572
   R23        2.77790   0.00305   0.00000   0.00103   0.00103   2.77893
   R24        2.26923  -0.05367   0.00000  -0.02405  -0.02405   2.24518
   R25        2.26643   0.05131   0.00000   0.01022   0.01022   2.27665
   R26        2.26642   0.05134   0.00000   0.01023   0.01023   2.27665
   R27        2.26643   0.05074   0.00000   0.01011   0.01011   2.27654
   R28        2.26642   0.05058   0.00000   0.01008   0.01008   2.27650
    A1        2.09440   0.00867   0.00000   0.00382   0.00380   2.09820
    A2        2.09440  -0.00429   0.00000  -0.00189  -0.00189   2.09251
    A3        2.09440  -0.00438   0.00000  -0.00193  -0.00192   2.09248
    A4        2.09440  -0.04494   0.00000  -0.01767  -0.01764   2.07675
    A5        2.09440   0.02276   0.00000   0.00895   0.00894   2.10334
    A6        2.09440   0.02218   0.00000   0.00871   0.00870   2.10310
    A7        2.09440   0.05378   0.00000   0.02036   0.02039   2.11479
    A8        2.09440   0.16236   0.00000   0.06928   0.06927   2.16366
    A9        2.09440  -0.21614   0.00000  -0.08964  -0.08966   2.00473
   A10        2.09440  -0.00439   0.00000  -0.00218  -0.00217   2.09223
   A11        2.09440  -0.03671   0.00000  -0.01360  -0.01361   2.08079
   A12        2.09440   0.04109   0.00000   0.01578   0.01578   2.11017
   A13        2.09440  -0.02205   0.00000  -0.00849  -0.00852   2.08588
   A14        2.09440   0.01052   0.00000   0.00403   0.00405   2.09844
   A15        2.09440   0.01154   0.00000   0.00446   0.00447   2.09887
   A16        2.09440   0.00894   0.00000   0.00417   0.00413   2.09853
   A17        2.09440  -0.00332   0.00000  -0.00160  -0.00159   2.09281
   A18        2.09440  -0.00561   0.00000  -0.00256  -0.00255   2.09185
   A19        2.09440  -0.00576   0.00000  -0.00260  -0.00259   2.09180
   A20        2.09440   0.04389   0.00000   0.01676   0.01678   2.11117
   A21        2.09440  -0.17743   0.00000  -0.07367  -0.07368   2.02071
   A22        2.09440   0.13355   0.00000   0.05691   0.05689   2.15129
   A23        2.09440  -0.01775   0.00000  -0.00681  -0.00683   2.08757
   A24        2.09440   0.00929   0.00000   0.00358   0.00359   2.09798
   A25        2.09440   0.00847   0.00000   0.00323   0.00324   2.09764
   A26        2.09440  -0.03835   0.00000  -0.01505  -0.01504   2.07936
   A27        2.09440   0.01870   0.00000   0.00732   0.00732   2.10171
   A28        2.09440   0.01965   0.00000   0.00772   0.00772   2.10211
   A29        2.09440   0.00884   0.00000   0.00391   0.00388   2.09828
   A30        2.09440  -0.00606   0.00000  -0.00264  -0.00263   2.09177
   A31        2.09440  -0.00278   0.00000  -0.00126  -0.00125   2.09314
   A32        2.09440   0.00914   0.00000   0.00380   0.00379   2.09818
   A33        2.09440  -0.00441   0.00000  -0.00184  -0.00183   2.09256
   A34        2.09440  -0.00473   0.00000  -0.00196  -0.00195   2.09244
   A35        2.54074  -0.45231   0.00000  -0.18992  -0.18992   2.35083
   A36        2.58185  -0.39583   0.00000  -0.16620  -0.16620   2.41565
   A37        2.06635  -0.00992   0.00000  -0.00374  -0.00374   2.06261
   A38        2.06634  -0.00991   0.00000  -0.00374  -0.00374   2.06260
   A39        2.15049   0.01982   0.00000   0.00749   0.00749   2.15797
   A40        2.06635  -0.01031   0.00000  -0.00389  -0.00389   2.06246
   A41        2.06634  -0.01065   0.00000  -0.00402  -0.00402   2.06232
   A42        2.15049   0.02097   0.00000   0.00792   0.00792   2.15841
    D1        0.00000  -0.00034   0.00000  -0.00017  -0.00017  -0.00017
    D2       -3.14159   0.00001   0.00000   0.00000   0.00000  -3.14159
    D3       -3.14159  -0.00031   0.00000  -0.00016  -0.00015   3.14144
    D4        0.00000   0.00004   0.00000   0.00002   0.00002   0.00002
    D5        0.00000  -0.00029   0.00000  -0.00015  -0.00014  -0.00015
    D6        3.14159   0.00014   0.00000   0.00007   0.00007  -3.14152
    D7        3.14159  -0.00032   0.00000  -0.00017  -0.00017   3.14143
    D8        0.00000   0.00011   0.00000   0.00005   0.00005   0.00005
    D9        1.57667   0.00000   0.00000   0.00000   0.00000   1.57667
   D10       -1.56492   0.00006   0.00000   0.00003   0.00003  -1.56489
   D11       -1.56492   0.00004   0.00000   0.00002   0.00002  -1.56490
   D12        1.57667   0.00009   0.00000   0.00005   0.00005   1.57672
   D13        0.00000   0.00089   0.00000   0.00045   0.00045   0.00046
   D14       -3.14159  -0.00023   0.00000  -0.00012  -0.00014   3.14145
   D15        3.14159   0.00054   0.00000   0.00027   0.00028  -3.14131
   D16        0.00000  -0.00058   0.00000  -0.00030  -0.00032  -0.00032
   D17        0.00000  -0.00080   0.00000  -0.00041  -0.00041  -0.00041
   D18        3.14159  -0.00184   0.00000  -0.00094  -0.00093   3.14066
   D19        3.14159   0.00032   0.00000   0.00016   0.00014  -3.14146
   D20        0.00000  -0.00072   0.00000  -0.00037  -0.00038  -0.00038
   D21        3.08065  -0.00580   0.00000  -0.00302  -0.00303   3.07762
   D22       -0.06095  -0.00692   0.00000  -0.00359  -0.00359  -0.06454
   D23        0.00000   0.00017   0.00000   0.00009   0.00008   0.00008
   D24       -3.14159  -0.00013   0.00000  -0.00007  -0.00007   3.14152
   D25       -3.14159   0.00121   0.00000   0.00062   0.00061  -3.14098
   D26        0.00000   0.00091   0.00000   0.00046   0.00046   0.00046
   D27        0.00000   0.00037   0.00000   0.00019   0.00019   0.00019
   D28       -3.14159  -0.00006   0.00000  -0.00003  -0.00003   3.14157
   D29       -3.14159   0.00068   0.00000   0.00034   0.00034  -3.14125
   D30        0.00000   0.00025   0.00000   0.00013   0.00012   0.00013
   D31        0.00000   0.00432   0.00000   0.00221   0.00219   0.00219
   D32       -3.14159  -0.00472   0.00000  -0.00241  -0.00222   3.13938
   D33        0.00000  -0.00125   0.00000  -0.00064  -0.00059  -0.00059
   D34        3.14159  -0.00058   0.00000  -0.00030  -0.00028   3.14132
   D35        0.00000  -0.00452   0.00000  -0.00231  -0.00231  -0.00232
   D36        3.14159  -0.00377   0.00000  -0.00192  -0.00196   3.13963
   D37        3.14159   0.00452   0.00000   0.00231   0.00243  -3.13916
   D38        0.00000   0.00528   0.00000   0.00269   0.00279   0.00279
   D39       -0.46463   0.03153   0.00000   0.01635   0.01631  -0.44833
   D40        2.67696   0.02249   0.00000   0.01174   0.01178   2.68874
   D41        0.00000  -0.00162   0.00000  -0.00082  -0.00085  -0.00085
   D42        3.14159   0.00014   0.00000   0.00007   0.00005  -3.14154
   D43        3.14159  -0.00229   0.00000  -0.00117  -0.00116   3.14043
   D44        0.00000  -0.00053   0.00000  -0.00027  -0.00026  -0.00026
   D45        0.00000   0.00165   0.00000   0.00084   0.00086   0.00086
   D46       -3.14159   0.00118   0.00000   0.00060   0.00060  -3.14099
   D47       -3.14159   0.00090   0.00000   0.00046   0.00050  -3.14109
   D48        0.00000   0.00043   0.00000   0.00022   0.00024   0.00024
   D49        0.00000   0.00142   0.00000   0.00072   0.00071   0.00071
   D50       -3.14159   0.00189   0.00000   0.00096   0.00097  -3.14062
   D51       -3.14159  -0.00034   0.00000  -0.00017  -0.00019   3.14141
   D52        0.00000   0.00013   0.00000   0.00007   0.00007   0.00007
   D53       -1.59459   0.00013   0.00000   0.00007   0.00008  -1.59451
   D54        1.54701   0.00003   0.00000   0.00002   0.00002   1.54703
   D55        1.54701  -0.00034   0.00000  -0.00017  -0.00018   1.54683
   D56       -1.59459  -0.00043   0.00000  -0.00022  -0.00023  -1.59482
   D57        0.43564  -0.02980   0.00000  -0.01556  -0.01556   0.42008
         Item               Value     Threshold  Converged?
 Maximum Force            0.452312     0.000450     NO 
 RMS     Force            0.064524     0.000300     NO 
 Maximum Displacement     1.949892     0.001800     NO 
 RMS     Displacement     0.545251     0.001200     NO 
 Predicted change in Energy=-2.105885D-01
 GradGradGradGradGradGradGradGradGradGradGradGradGradGradGradGradGradGrad

                          Input orientation:                          
 ---------------------------------------------------------------------
 Center     Atomic      Atomic             Coordinates (Angstroms)
 Number     Number       Type             X           Y           Z
 ---------------------------------------------------------------------
      1          6           0       -4.661419    0.024996   -0.420358
      2          6           0       -4.879610    0.177587   -1.795642
      3          6           0       -4.689486    1.434436   -2.376191
      4          6           0       -4.288048    2.530273   -1.610940
      5          6           0       -4.069978    2.378717   -0.237953
      6          6           0       -4.257758    1.122185    0.357066
      7          1           0       -5.187904   -0.656992   -2.393743
      8          1           0       -3.761481    3.216566    0.355259
      9          1           0       -4.092125    0.999810    1.409083
     10          8           0       -4.089197    3.905386   -2.302653
     11          6           0       -4.005063    4.064523   -2.785381
     12          6           0       -4.319769    3.569648   -4.055420
     13          6           0       -3.392173    5.314531   -2.657849
     14          6           0       -4.028053    4.306484   -5.206925
     15          6           0       -3.097213    6.062208   -3.807287
     16          1           0       -3.148752    5.699347   -1.687359
     17          6           0       -3.414219    5.558667   -5.077981
     18          1           0       -4.271425    3.918077   -6.176044
     19          1           0       -2.627257    7.021134   -3.713976
     20          1           0       -4.831261    1.638008   -3.404180
     21          1           0       -4.780599    2.615856   -4.077104
     22          7           0       -4.855782   -1.288759    0.211210
     23          8           0       -3.912359   -2.035460    0.272989
     24          8           0       -5.949599   -1.558547    0.638062
     25          7           0       -3.100566    6.348255   -6.278262
     26          8           0       -2.015356    6.209661   -6.782636
     27          8           0       -3.943278    7.097487   -6.702194
 ---------------------------------------------------------------------
                    Distance matrix (angstroms):
                    1          2          3          4          5
     1  C    0.000000
     2  C    1.400820   0.000000
     3  C    2.410932   1.397445   0.000000
     4  C    2.798804   2.432938   1.395572   0.000000
     5  C    2.433737   2.815470   2.418165   1.398434   0.000000
     6  C    1.403978   2.431690   2.784705   2.420057   1.402919
     7  H    2.153263   1.072051   2.150069   3.403113   3.887508
     8  H    3.405524   3.887413   3.390871   2.148072   1.071943
     9  H    2.149701   3.400948   3.856688   3.391348   2.148163
    10  O    4.350621   3.844255   2.543885   1.552078   2.567893
    11  C    4.726724   4.105202   2.748314   1.952772   3.055413
    12  C    5.088709   4.114133   2.741465   2.656461   4.006715
    13  C    5.881882   5.417016   4.100913   3.106558   3.864495
    14  C    6.453179   5.423079   4.086466   4.019158   5.329984
    15  C    7.096898   6.469344   5.098985   4.326268   5.220587
    16  H    6.007638   5.787696   4.586700   3.368511   3.738451
    17  C    7.339652   6.471255   5.092667   4.685630   5.828205
    18  H    6.959605   5.792156   4.558742   4.771420   6.137681
    19  H    7.995729   7.455684   6.103577   5.229610   5.976305
    20  H    3.396152   2.173145   1.057499   2.075314   3.339640
    21  H    4.483140   3.340662   2.072958   2.516325   3.911559
    22  N    1.470580   2.485597   3.760065   4.269374   3.777514
    23  O    2.299413   3.179998   4.434215   4.953408   4.446444
    24  O    2.299406   3.175210   4.430751   4.953505   4.449992
    25  N    8.759846   7.831731   6.472746   6.145811   7.292621
    26  O    9.259067   8.334265   7.026414   6.741622   7.856875
    27  O    9.486692   8.534400   7.165282   6.848297   8.004327
                    6          7          8          9         10
     6  C    0.000000
     7  H    3.405524   0.000000
     8  H    2.152377   4.959451   0.000000
     9  H    1.071985   4.290363   2.476667   0.000000
    10  O    3.853404   4.693692   2.765207   4.713742   0.000000
    11  C    4.312329   4.883154   3.262206   5.195535   0.515199
    12  C    5.046181   4.623776   4.459870   6.042903   1.799465
    13  C    5.235906   6.241273   3.690077   5.970485   1.611737
    14  C    6.414867   5.821970   5.674229   7.396605   2.932476
    15  C    6.564490   7.177517   5.085836   7.336774   2.810665
    16  H    5.134197   6.712686   3.272908   5.706449   2.116912
    17  C    7.066376   6.998965   5.926730   7.957685   3.300209
    18  H    7.106245   6.006412   6.588633   8.129120   3.877696
    19  H    7.350477   8.200826   5.685057   8.040393   3.719810
    20  H    3.839525   2.532825   4.215408   4.911326   2.627742
    21  H    4.708107   3.702854   4.587515   5.760542   2.299913
    22  N    2.488284   2.700965   4.638556   2.693626   5.821194
    23  O    3.177593   3.261695   5.254837   3.245904   6.477566
    24  O    3.182390   3.253432   5.260185   3.254209   6.477921
    25  N    8.525167   8.277678   7.365316   9.417236   4.769745
    26  O    9.049095   8.745191   7.934552   9.927728   5.448004
    27  O    9.253987   8.957889   8.056193  10.148726   5.437533
                   11         12         13         14         15
    11  C    0.000000
    12  C    1.398907   0.000000
    13  C    1.398005   2.420383   0.000000
    14  C    2.433711   1.397852   2.813946   0.000000
    15  C    2.420584   2.787305   1.402580   2.430641   0.000000
    16  H    2.147456   3.393318   1.072002   3.885947   2.151376
    17  C    2.799568   2.412851   2.432515   1.400494   1.403107
    18  H    3.404261   2.149602   3.885983   1.072046   3.403980
    19  H    3.391487   3.859267   2.147789   3.400066   1.071963
    20  H    2.636948   2.101659   4.018060   3.319005   4.768959
    21  H    2.090129   1.059506   3.350352   2.168189   3.844988
    22  N    6.193618   6.488108   7.346910   7.832500   8.560234
    23  O    6.824370   7.093542   7.929866   8.382309   9.104139
    24  O    6.864408   7.140273   8.040066   8.500282   9.272171
    25  N    4.270101   3.761401   3.776375   2.485321   2.487479
    26  O    4.953645   4.440461   4.439679   3.186832   3.169363
    27  O    4.954201   4.426376   4.454141   3.167446   3.188747
                   16         17         18         19         20
    16  H    0.000000
    17  C    3.403907   0.000000
    18  H    4.957984   2.152227   0.000000
    19  H    2.475127   2.149099   4.288827   0.000000
    20  H    4.719405   4.492348   3.632541   5.825089   0.000000
    21  H    4.228678   3.395422   2.522021   4.916830   1.188099
    22  N    7.439901   8.771596   8.261333   9.456623   4.651624
    23  O    8.015816   9.303322   8.784279   9.978441   5.278288
    24  O    8.119689   9.473967   8.901781  10.177874   5.273364
    25  N    4.636787   1.470544   2.699468   2.693019   5.782912
    26  O    5.244698   2.299230   3.272485   3.232582   6.343760
    27  O    5.266368   2.299116   3.239315   3.266066   6.439823
                   21         22         23         24         25
    21  H    0.000000
    22  N    5.800112   0.000000
    23  O    6.427432   1.204752   0.000000
    24  O    6.405075   1.204751   2.123929   0.000000
    25  N    4.647409  10.174380  10.670734  10.884394   0.000000
    26  O    5.280332  10.639934  11.016465  11.440720   1.204692
    27  O    5.260915  10.906738  11.491947  11.525259   1.204670
                   26         27
    26  O    0.000000
    27  O    2.124050   0.000000
 Stoichiometry    C12H8N2O5
 Framework group  C1[X(C12H8N2O5)]
 Deg. of freedom    75
 Full point group                 C1      NOp   1
 Largest Abelian subgroup         C1      NOp   1
 Largest concise Abelian subgroup C1      NOp   1
                         Standard orientation:                         
 ---------------------------------------------------------------------
 Center     Atomic      Atomic             Coordinates (Angstroms)
 Number     Number       Type             X           Y           Z
 ---------------------------------------------------------------------
      1          6           0       -3.703512   -0.112269    0.041278
      2          6           0       -2.753717   -1.121496   -0.162800
      3          6           0       -1.405310   -0.770743   -0.270608
      4          6           0       -0.995528    0.560089   -0.177950
      5          6           0       -1.943105    1.568150    0.025831
      6          6           0       -3.300048    1.229193    0.135357
      7          1           0       -3.056545   -2.147325   -0.235350
      8          1           0       -1.634677    2.592228    0.097928
      9          1           0       -4.031068    1.997528    0.291633
     10          8           0        0.514041    0.898507   -0.302927
     11          6           0        0.954548    0.637677   -0.245039
     12          6           0        1.332861   -0.701721   -0.385862
     13          6           0        1.921173    1.608027    0.035094
     14          6           0        2.668601   -1.090028   -0.247996
     15          6           0        3.264332    1.228504    0.173352
     16          1           0        1.637614    2.636104    0.143904
     17          6           0        3.636133   -0.117091    0.032467
     18          1           0        2.948591   -2.119222   -0.355915
     19          1           0        4.008696    1.969361    0.388193
     20          1           0       -0.624216   -1.466779   -0.424652
     21          1           0        0.548511   -1.382464   -0.595476
     22          7           0       -5.127906   -0.459003    0.157390
     23          8           0       -5.568607   -0.694380    1.253660
     24          8           0       -5.789283   -0.491929   -0.849050
     25          7           0        5.046335   -0.506999    0.180121
     26          8           0        5.447457   -0.784011    1.281778
     27          8           0        5.735832   -0.531582   -0.807410
 ---------------------------------------------------------------------
 Rotational constants (GHZ):           1.6272436           0.1324204           0.1275193
 Standard basis: 6-31+G(d) (6D, 7F)
 There are   377 symmetry adapted cartesian basis functions of A   symmetry.
 There are   377 symmetry adapted basis functions of A   symmetry.
   377 basis functions,   640 primitive gaussians,   377 cartesian basis functions
    67 alpha electrons       67 beta electrons
       nuclear repulsion energy      1344.0042493541 Hartrees.
 NAtoms=   27 NActive=   27 NUniq=   27 SFac= 1.00D+00 NAtFMM=   60 NAOKFM=F Big=F
 Integral buffers will be    131072 words long.
 Raffenetti 2 integral format.
 Two-electron integral symmetry is turned on.
 Nuclear repulsion after empirical dispersion term =     1343.9811813328 Hartrees.
 One-electron integrals computed using PRISM.
 NBasis=   377 RedAO= T EigKep=  1.06D-06  NBF=   377
 NBsUse=   375 1.00D-06 EigRej=  8.58D-07 NBFU=   375
 Initial guess from the checkpoint file:  "molecule_81.chk"
 B after Tr=     0.000000    0.000000    0.000000
         Rot=    0.999142    0.041290    0.000301    0.003289 Ang=   4.75 deg.
 ExpMin= 4.38D-02 ExpMax= 5.48D+03 ExpMxC= 8.25D+02 IAcc=3 IRadAn=         5 AccDes= 0.00D+00
 Harris functional with IExCor=  402 and IRadAn=       5 diagonalized for initial guess.
 HarFok:  IExCor=  402 AccDes= 0.00D+00 IRadAn=         5 IDoV= 1 UseB2=F ITyADJ=14
 ICtDFT=  3500011 ScaDFX=  1.000000  1.000000  1.000000  1.000000
 FoFCou: FMM=F IPFlag=           0 FMFlag=      100000 FMFlg1=           0
         NFxFlg=           0 DoJE=T BraDBF=F KetDBF=T FulRan=T
         wScrn=  0.000000 ICntrl=       500 IOpCl=  0 I1Cent=   200000004 NGrid=           0
         NMat0=    1 NMatS0=      1 NMatT0=    0 NMatD0=    1 NMtDS0=    0 NMtDT0=    0
 Petite list used in FoFCou.
 Requested convergence on RMS density matrix=1.00D-08 within 128 cycles.
 Requested convergence on MAX density matrix=1.00D-06.
 Requested convergence on             energy=1.00D-06.
 No special actions if energy rises.
 EnCoef did     2 forward-backward iterations
 Restarting incremental Fock formation.
 SCF Done:  E(RB3LYP) =  -941.672530057     A.U. after   22 cycles
            NFock= 22  Conv=0.37D-08     -V/T= 1.9889
 Calling FoFJK, ICntrl=      2127 FMM=F ISym2X=0 I1Cent= 0 IOpClX= 0 NMat=1 NMatS=1 NMatT=0.
 ***** Axes restored to original set *****
 -------------------------------------------------------------------
 Center     Atomic                   Forces (Hartrees/Bohr)
 Number     Number              X              Y              Z
 -------------------------------------------------------------------
      1        6           0.003459086    0.023178528   -0.011072690
      2        6           0.004467148    0.002417961    0.015033537
      3        6           0.000269156   -0.006642738    0.012410757
      4        6          -0.028045009   -0.076197642    0.075645750
      5        6          -0.004872722   -0.003615563   -0.017314540
      6        6          -0.000584854   -0.003453173   -0.008781053
      7        1          -0.003044746   -0.007067058   -0.006318242
      8        1           0.002276656    0.008465095    0.007307935
      9        1           0.001960981   -0.000923350    0.009824597
     10        8          -3.089632236   -5.998588915   17.428949011
     11        6           2.995023160    5.790811720  -17.213001962
     12        6           0.000089347    0.015862713   -0.158440527
     13        6           0.129698824    0.276441798   -0.160900267
     14        6           0.005477653    0.008431803    0.020930993
     15        6          -0.000957823   -0.005329726    0.019918135
     16        1          -0.005898781   -0.009980002    0.016639995
     17        6          -0.005014604   -0.010548340    0.002950697
     18        1          -0.002851876   -0.003867062   -0.010162528
     19        1           0.006330484    0.013949983   -0.003122854
     20        1          -0.006120198   -0.036700835    0.005983589
     21        1          -0.002750614    0.022521933   -0.024485486
     22        7           0.001611255    0.010425418   -0.004306868
     23        8           0.037755294   -0.014775920   -0.004178482
     24        8          -0.039807284    0.003097008    0.009754572
[...]
 8725,0.00408114,-0.01325287,0.00176955,-0.00245163,0.00027692,-0.00011
 345,-0.00035021,0.00055786,-0.00081727,-0.00019269,0.00068051,0.000021
 92,0.00027449,-0.00055791,-0.00008938,-0.00001470,-0.00006058,-0.00059
 517,0.00030472,0.00062031,0.00006175,0.00021873,0.00003548,0.00004786,
 -0.00028715,0.00039925,0.00040647,0.00103976,0.00004296,0.00021730,0.0
 0015152,-0.00017726,-0.00005919,-0.00007047,0.00060011,-0.00019467,-0.
 00013110,-0.00036867,-0.00023253,0.00012400,-0.00032301,0.00000190,0.0
 0001493,0.00001178,-0.00000788,-0.00000960,0.00001139,-0.04007605,-0.0
 3314159,0.35743791,0.00001146,-0.00005623,0.00002234,-0.00001371,0.000
 00003,-0.00003521,0.00011305,-0.00011746,0.00004255,0.00011303,0.00037
 791,-0.00024528,-0.00000135,-0.00005018,0.00008771,-0.00004197,0.00002
 171,-0.00000774,-0.00000335,-0.00000709,0.00000301,0.00000610,0.000007
 96,-0.00001018,0.00000274,-0.00000109,0.00000105,0.00125194,-0.0008441
 7,0.00067670,-0.01444154,-0.00173638,0.00422548,-0.34407773,0.00014942
 ,0.02661539,-0.00017971,0.00204307,-0.00242517,-0.00733877,0.00051057,
 0.00024862,0.00063951,0.00011556,-0.00032617,-0.00059277,-0.00011797,0
 .00024049,0.00151245,-0.00080198,0.00178411,0.00069575,-0.00032229,-0.
 00002023,-0.00004606,-0.00004223,-0.00001006,-0.00003684,-0.00001806,-
 0.00000478,0.36278057,-0.00000537,0.00009998,-0.00003870,0.00002466,-0
 .00006475,-0.00000523,-0.00010338,0.00008620,0.00015757,-0.00003179,-0
 .00082961,0.00010851,0.00001509,0.00014183,-0.00012889,0.00005057,-0.0
 0003047,-0.00000203,0.00001064,-0.00000314,0.00000589,-0.00000991,0.00
 000545,0.00000893,-0.00000162,0.00000375,-0.00000169,-0.00079543,-0.00
 171642,-0.00255109,0.01625697,0.00507035,-0.00195304,-0.00081726,-0.04
 269927,0.01148601,0.00141200,0.00169030,0.00461752,-0.01609353,0.00305
 220,0.00067640,-0.00010264,-0.00094123,0.00027640,0.00085402,0.0002372
 7,-0.00009600,-0.00035035,0.00359141,0.00530056,-0.00002300,-0.0028356
 5,-0.00251086,-0.00003367,-0.00033536,-0.00028161,0.00003440,0.0000364
 0,-0.00004491,0.00069437,0.03503864,0.00003317,-0.00010375,0.00003620,
 0.00002404,-0.00001679,-0.00007754,0.00004461,-0.00015720,0.00016333,-
 0.00012025,0.00019721,-0.00018288,0.00000827,-0.00010125,0.00013555,-0
 .00000685,0.00008256,-0.00001371,0.00000272,-0.00001484,0.00001055,-0.
 00002224,0.00000748,-0.00003184,-0.00000029,-0.00000062,0.00000052,0.0
 0009662,-0.00276507,0.00038830,-0.02193127,0.00061026,0.00558357,0.028
 54021,0.01099945,-0.05371959,-0.00156281,0.00430971,-0.00137792,0.0246
 1330,-0.00072136,0.00151223,-0.00001377,0.00018798,-0.00106268,-0.0010
 7411,0.00003837,0.00023850,0.00085922,0.00534234,-0.00095594,-0.000393
 99,-0.00247431,-0.00080396,0.00002455,-0.00028198,-0.00011521,-0.00000
 939,-0.00002352,-0.00004223,-0.03063225,-0.01529050,0.05014576,-0.0798
 2982,0.01314228,0.00350921,-0.00159100,-0.00324440,-0.00890415,0.00793
 597,-0.00033694,0.00317087,-0.00266560,0.00279547,-0.00044601,0.006034
 31,0.00254501,0.00509641,-0.00819813,0.01370363,-0.00720959,-0.0040460
 3,-0.00100271,0.00123209,0.00092153,0.00061636,-0.00022453,-0.00362411
 ,-0.00108964,-0.00020626,-0.00000956,-0.00313435,0.00233168,0.00053702
 ,0.00079146,-0.00193624,-0.00007705,-0.00030312,0.00033331,-0.00030913
 ,-0.00013981,0.00036950,0.00020159,0.00008488,-0.00008767,-0.00001688,
 0.00014581,-0.00015662,0.00015368,0.00005038,-0.00002832,-0.00022032,-
 0.00022958,0.00033815,-0.00001099,0.00000022,0.00000770,0.00000434,-0.
 00003637,0.00001667,0.00107691,-0.00020593,0.00047341,-0.00002173,0.00
 002809,-0.00004976,0.31468390,0.01332223,-0.11183465,0.00539718,-0.002
 18226,-0.01152701,0.02956499,-0.00188269,0.01169245,-0.00214032,0.0042
 1122,-0.00990067,0.00334604,0.00417162,0.00448670,-0.00972419,0.012485
 19,-0.04054301,0.00797642,-0.00024918,-0.00099587,-0.00392818,0.000300
 34,0.00001098,0.00064781,-0.00184512,-0.00003331,0.00044102,-0.0029922
 9,0.00890545,-0.00909212,-0.00217647,-0.00255676,0.00640861,0.00029137
 ,0.00082384,-0.00111406,0.00144416,0.00066424,-0.00113052,-0.00050537,
 -0.00008702,0.00033322,-0.00007686,-0.00050699,0.00088909,-0.00043249,
 -0.00017643,-0.00011274,0.00063388,0.00086873,-0.00145225,0.00004046,0
 .00000152,-0.00002906,-0.00001442,0.00009878,-0.00000304,0.00015153,0.
 00080708,-0.00062248,0.00007455,-0.00012419,0.00012837,-0.16973383,0.6
 2682363,0.00407092,0.00566400,-0.10997152,-0.01136475,0.03484185,-0.01
 470218,0.00410536,-0.00313657,-0.00745335,-0.00110375,0.00276107,-0.00
 650074,0.00387169,-0.00891067,0.00140749,-0.00530363,0.00245985,0.0211
 3070,-0.00019638,-0.00063869,-0.00227335,0.00054952,-0.00136139,0.0008
 6612,0.00113065,-0.00286480,-0.00365763,0.00165538,-0.00475541,0.00443
 487,0.00089455,0.00131771,-0.00331018,-0.00013016,-0.00049538,0.000586
 78,-0.00060714,-0.00027538,0.00048900,0.00032273,0.00008505,-0.0001955
 1,-0.00000051,0.00021197,-0.00031235,0.00018791,0.00015124,0.00005845,
 -0.00037565,-0.00038363,0.00062484,-0.00002105,0.00001658,0.00002250,0
 .00001049,0.00000385,0.00002531,-0.00030881,0.00146055,-0.00018585,-0.
 00003558,0.00007738,-0.00004840,-0.14439310,0.07422129,0.86267163,0.01
 801489,0.00125915,-0.00429222,0.00257700,0.00244607,0.00069754,-0.0008
 0273,-0.00042441,-0.00090112,0.00030645,-0.00003841,-0.00039488,-0.000
 27512,-0.00103526,-0.00031115,0.00003626,0.00418112,0.00009412,0.00037
 075,0.00022192,-0.00041045,-0.00002351,-0.00003123,0.00003772,-0.00009
 115,0.00084780,-0.00154516,0.00012669,0.00030061,-0.00029570,-0.000161
 38,-0.00021056,0.00022702,0.00000919,0.00010041,-0.00004269,0.00005644
 ,0.00001458,-0.00003767,-0.00004692,-0.00003354,0.00000627,-0.00000015
 ,-0.00002805,0.00001095,-0.00003344,-0.00000824,0.00001341,0.00003911,
 0.00003598,-0.00003110,0.00000045,-0.00000068,-0.00000067,-0.00000152,
 0.00000646,-0.00000401,-0.00048821,-0.00001118,-0.00013897,0.00000426,
 -0.00000449,0.00000879,-0.08903021,0.01164336,0.05771817,0.05555057,-0
 .00084480,-0.00021811,0.04302866,0.00345195,-0.00437413,-0.00286578,0.
 00006502,-0.00188696,0.00227792,-0.00112890,0.00232734,0.00041163,-0.0
 0089829,0.00089551,0.00127204,0.00219362,-0.00529267,0.00205399,-0.000
 02128,0.00010647,0.00053348,0.00002005,-0.00004508,-0.00007541,0.00064
 600,-0.00328972,0.00331278,0.00032384,-0.00222166,0.00219565,0.0007141
 8,0.00071765,-0.00156369,-0.00010179,-0.00025005,0.00030679,-0.0004136
 5,-0.00019572,0.00028447,0.00015855,0.00002298,-0.00008288,0.00003972,
 0.00014618,-0.00027720,0.00014116,0.00006441,0.00003808,-0.00016716,-0
 .00024425,0.00040764,-0.00001215,0.00000156,0.00000767,0.00000703,-0.0
 0001922,-0.00000351,0.00002458,-0.00062681,0.00022998,-0.00002017,0.00
 003611,-0.00003012,0.01085085,-0.12777647,0.05477335,-0.02862583,0.120
 39311,0.00013820,0.03102185,-0.04933925,-0.00154395,0.00356430,0.00480
 446,-0.00160543,0.00311002,-0.00050240,0.00178423,-0.00394887,0.001397
 78,-0.00042132,0.00273953,-0.00163001,0.00421714,-0.00866111,-0.003704
 98,0.00023529,-0.00072260,0.00153387,-0.00008562,0.00024523,-0.0000683
 8,-0.00118043,0.00218636,0.00155021,-0.00122519,0.00349590,-0.00277904
 ,-0.00064081,-0.00090154,0.00226806,0.00012514,0.00027954,-0.00037606,
 0.00043397,0.00030879,-0.00036498,-0.00018619,-0.00002916,0.00012577,-
 0.00001793,-0.00017012,0.00031784,-0.00015469,-0.00012930,-0.00009972,
 0.00023424,0.00029931,-0.00051778,0.00001630,-0.00001138,-0.00001577,-
 0.00001052,-0.00000086,-0.00001750,-0.00021032,0.00044252,-0.00024579,
 0.00002600,-0.00006260,0.00002885,0.05924569,0.05068822,-0.50900478,-0
 .09517753,-0.04034025,0.63741874,0.00498344,0.02922444,0.00747973,0.00
 110825,-0.00015525,0.00359599,-0.00108840,0.00089528,-0.00035508,0.000
 79388,-0.00142994,0.00136672,-0.00114173,0.00091022,-0.00114441,0.0037
 1121,0.00077632,-0.00229782,-0.00004389,0.00056504,-0.00116673,-0.0005
 1344,0.00006564,-0.00020899,0.00053144,-0.00042743,-0.00002610,-0.0003
 2555,0.00159424,-0.00168184,-0.00044311,-0.00051167,0.00116546,0.00005
 845,0.00016885,-0.00021245,0.00024502,0.00013000,-0.00022440,-0.000104
 17,-0.00002953,0.00006310,-0.00000262,-0.00010309,0.00012959,-0.000094
 00,-0.00001477,0.00000848,0.00012585,0.00015529,-0.00024699,0.00000689
 ,0.00000040,-0.00000511,-0.00000291,0.00002990,-0.00000790,-0.00003812
 ,0.00005376,-0.00008340,0.00001724,-0.00002218,0.00003045,-0.14198097,
 0.13369127,0.08914705,0.01386828,0.01348739,0.03614556,0.12038192,0.03
 124984,-0.05409521,-0.01920414,0.00178793,-0.00083539,-0.00462150,0.00
 092886,-0.00228253,-0.00019500,-0.00117657,0.00313122,-0.00349926,0.00
 024926,-0.00358564,0.00153901,-0.00017562,0.00059165,0.00810844,0.0006
 9566,-0.00309150,0.00244605,-0.00000665,-0.00072287,0.00038579,-0.0001
 2913,0.00095487,-0.00002810,0.00089403,-0.00373043,0.00416676,0.001088
 66,0.00119974,-0.00285384,-0.00013301,-0.00041548,0.00055133,-0.000632
 59,-0.00025481,0.00050033,0.00026816,0.00006196,-0.00015924,0.00002806
 ,0.00022934,-0.00036138,0.00020293,0.00006569,0.00001159,-0.00031660,-
 0.00038930,0.00063068,-0.00001837,-0.00000461,0.00001087,0.00000647,-0
 .00004721,0.00000158,0.00003537,-0.00010402,0.00018578,-0.00003516,0.0
 0004820,-0.00006697,0.13460178,-0.34872474,-0.15537743,0.00940665,0.02
 162146,-0.04327911,-0.17898056,0.39019996,0.00293085,-0.00731077,0.017
 64487,-0.00066036,0.00614436,-0.00926024,0.00032643,-0.00157419,0.0021
 6442,-0.00061023,0.00143902,0.00025955,-0.00084362,0.00066668,0.001531
 52,0.00016098,0.00175414,-0.00129016,-0.00165291,0.00352328,0.00127868
 ,-0.00011115,0.00013711,-0.00013083,-0.00047192,0.00128824,0.00053726,
 0.00010712,-0.00017625,0.00062078,0.00001613,-0.00004185,-0.00019295,-
 0.00000841,0.00004722,0.00002121,-0.00001955,-0.00002616,0.00007067,-0
 .00003071,-0.00001679,0.00000055,-0.00001122,0.00001659,-0.00001398,-0
 .00000524,-0.00003767,-0.00000914,0.00000432,-0.00002720,0.00004283,-0
 .00000042,-0.00000850,-0.00000106,-0.00000415,-0.00002679,-0.00000316,
 0.00004276,-0.00016809,0.00003951,-0.00000122,-0.00000748,-0.00001621,
 0.08765541,-0.15120232,-0.23444716,0.04475087,-0.06575044,-0.08097598,
 -0.13156371,0.21133656,0.30213061,-0.00022918,0.00077469,-0.00055164,0
 .00011243,-0.00038018,0.00043862,-0.00038400,0.00101061,-0.00012100,0.
 00142363,-0.00279041,0.00212340,-0.00010037,0.00054577,-0.00045206,0.0
 0014223,-0.00025082,-0.00001887,0.00006935,0.00004508,-0.00002639,-0.0
 0000353,-0.00002937,0.00010066,-0.00000479,0.00002491,0.00000123,0.000
 95175,0.00349329,-0.00570139,-0.00659353,-0.00105270,0.00315062,-0.007
 98673,0.00334902,-0.00276860,0.00117711,0.00528428,-0.00828801,-0.0140
 6916,-0.02011955,0.03112830,0.02188650,-0.00280503,0.00218429,0.000825
 97,0.00084429,-0.00128740,-0.11069643,-0.00059051,0.00416120,-0.002267
 38,0.00014327,-0.00054693,-0.00368820,0.00180841,-0.00250276,0.0000203
 8,-0.00020466,-0.00016156,-0.00017880,-0.00077669,0.00125910,0.0004175
 9,-0.00140930,0.00059101,-0.00007441,0.00040174,-0.00048001,-0.0002900
 1,0.00064330,0.00004199,0.88126063,-0.00026013,0.00081082,-0.00055629,
 0.00013703,-0.00037446,0.00043289,-0.00033425,0.00103173,-0.00003774,0
 .00149381,-0.00287275,0.00229522,-0.00010574,0.00058227,-0.00049682,0.
 00019255,-0.00026811,-0.00000552,0.00002700,0.00001159,-0.00001424,-0.
 00003731,-0.00003665,0.00009174,-0.00002230,0.00002061,0.00000136,0.00
 100856,0.00277159,-0.00672280,-0.00151438,-0.00345121,0.00493342,0.002
 08040,0.00943268,-0.00096427,0.00669830,0.00592655,0.00195911,-0.01655
 028,-0.00420438,0.00149565,-0.00593400,-0.01679841,0.01932209,-0.00040
 838,0.00061382,0.00066153,-0.00106859,-0.08703588,0.01922537,0.0022373
 6,-0.00336686,-0.00155614,-0.00024333,-0.00265334,-0.00196583,-0.00008
 287,-0.00018802,-0.00016441,0.00040427,0.00105236,0.00005857,0.0003651
 7,-0.00145401,0.00074323,-0.00004131,0.00042890,-0.00058550,-0.0002355
 5,0.00064105,-0.00000884,-0.09945107,0.37821860,0.00037043,-0.00124613
 ,0.00069173,-0.00007543,0.00045906,-0.00057427,0.00056520,-0.00142175,
 0.00019591,-0.00230761,0.00447817,-0.00388021,0.00008075,-0.00098961,0
 .00085154,-0.00025088,0.00056706,0.00004500,-0.00002495,-0.00002972,0.
 00004749,0.00003964,0.00005753,-0.00015425,0.00003843,-0.00002886,-0.0
 0000276,-0.00217915,-0.00588568,0.00960747,0.00265250,0.00341540,-0.00
 902228,-0.00197916,-0.00257008,0.01048222,-0.00906553,0.00324132,0.005
 07141,0.02636417,0.00181298,-0.00933680,0.00715859,0.01861761,-0.03290
 807,0.00058287,0.00055770,0.00025885,0.00395828,0.01961297,-0.10390131
 ,-0.00351018,-0.00120829,-0.00168157,0.00050449,-0.00238493,-0.0009733
 3,0.00006092,0.00036953,0.00020346,-0.00056632,0.00015578,0.00092457,-
 0.00057480,0.00218724,-0.00106182,0.00007043,-0.00064815,0.00082887,0.
 00036548,-0.00099471,-0.00000483,0.07882894,-0.22126352,0.54472118,0.0
 0017215,-0.00059416,0.00036688,-0.00003957,0.00024086,-0.00029000,0.00
 029181,-0.00070886,0.00009857,-0.00111710,0.00215357,-0.00164500,0.000
 08981,-0.00044604,0.00038912,-0.00011841,0.00022605,0.00001264,-0.0000
 4397,-0.00003442,0.00002316,-0.00000298,0.00002199,-0.00008172,0.00000
 430,-0.00001972,-0.00000018,-0.00033357,-0.00271387,0.00448661,0.00141
 699,0.00202202,-0.00415678,-0.00039911,-0.00226739,0.00261940,-0.00175
 665,-0.00126193,0.00262448,0.00484413,-0.00211741,0.00313915,-0.003963
 57,0.00560925,-0.00806904,-0.00005081,-0.00013135,0.00023843,-0.050008
 08,-0.01331488,0.02713611,0.00154190,0.00045949,-0.00063624,0.00167841
 ,-0.00150643,0.00196235,-0.00003539,0.00014615,0.00009567,-0.00020914,
 -0.00029868,0.00040951,-0.00030843,0.00103331,-0.00044201,0.00005540,-
 0.00029399,0.00035247,0.00021255,-0.00047513,-0.00002958,-0.51850806,0
 .00459969,0.04054526,0.65190515,0.00006161,-0.00019921,0.00011051,-0.0
 0003514,0.00008615,-0.00009288,0.00009510,-0.00020768,-0.00001806,-0.0
 0032113,0.00071290,-0.00050313,0.00000913,-0.00016495,0.00014849,-0.00
 004530,0.00009805,0.00001384,-0.00000154,0.00000496,-0.00000167,0.0000
 0618,0.00000732,-0.00001897,0.00000403,-0.00000509,-0.00000134,-0.0001
 8622,-0.00076550,0.00126549,-0.00047554,0.00065994,-0.00093376,-0.0013
 6150,-0.00117705,0.00001314,-0.00068255,-0.00000853,-0.00093799,0.0015
 7887,0.00087595,0.00404328,-0.00086440,-0.00101291,0.00425404,0.000052
 84,-0.00000806,0.00000407,-0.02042843,0.01434061,0.00705008,-0.0004013
 5,0.00031163,0.00017928,-0.00208785,-0.00094201,0.00155658,0.00002172,
 0.00005908,0.00003103,-0.00012898,-0.00054731,0.00002535,-0.00009195,0
 .00035324,-0.00021342,0.00001069,-0.00010838,0.00016659,0.00005532,-0.
 00015214,0.00001582,0.00192146,-0.09094300,0.02504920,-0.02518329,0.06
 035648,-0.00010787,0.00036207,-0.00019362,0.00002683,-0.00015076,0.000
 16620,-0.00015659,0.00041707,-0.00002303,0.00056712,-0.00138292,0.0009
 6740,-0.00000129,0.00031374,-0.00026060,0.00007450,-0.00018674,-0.0000
 2130,0.00000796,0.00000587,-0.00001429,-0.00001505,-0.00001483,0.00004
 493,-0.00001092,0.00000703,0.00000199,0.00047751,0.00157128,-0.0023360
 7,0.00054623,-0.00091369,0.00210795,0.00202133,0.00034462,-0.00161949,
 0.00119925,-0.00091160,0.00055851,-0.00265657,0.00433013,-0.00270820,0
 .00169439,0.00350233,-0.00401059,-0.00008923,-0.00000869,-0.00004387,0
 .03787186,0.00640567,0.00419989,0.00049258,0.00010543,0.00017023,0.002
 99629,0.00147573,-0.00259314,-0.00000391,-0.00012578,-0.00006120,0.000
 19343,0.00005888,-0.00061065,0.00018090,-0.00065474,0.00030144,-0.0000
 2443,0.00019444,-0.00023604,-0.00011483,0.00030270,0.00000750,0.044181
 55,0.02477942,-0.11571418,-0.02893731,-0.04690993,0.10046133,-0.000011
 39,-0.00000080,0.00000454,-0.00000499,0.00002648,-0.00000448,0.0000475
 8,-0.00002118,-0.00004779,0.00006343,0.00012032,0.00020336,-0.00002673
 ,-0.00003398,0.00002314,0.00000898,0.00001590,0.00001764,-0.00001898,-
 0.00000659,-0.00000348,-0.00001149,-0.00000373,-0.00000256,-0.00000644
 ,-0.00000150,-0.00000039,0.00047222,-0.00017730,-0.00042789,0.00023185
 ,-0.00070654,0.00123060,0.00222295,0.00096476,-0.00132442,0.00166693,-
 0.00064692,0.00060535,-0.00941454,-0.00298919,0.00536695,-0.00125670,-
 0.00074905,0.00147252,-0.00011455,-0.00009674,0.00014075,0.01718530,0.
 00507304,-0.00750571,0.00138554,-0.00224142,0.00313355,0.00055298,-0.0
 0073005,0.00119657,-0.00004920,0.00001068,-0.00000469,0.00003535,0.000
 08919,-0.00013758,-0.00002686,0.00000578,0.00002709,0.00001301,0.00000
 234,-0.00001430,0.00002450,-0.00000757,-0.00001245,-0.24321297,0.10704
 535,-0.14165237,-0.08531775,0.04847822,-0.06041375,0.31556196,0.000124
 59,-0.00036919,0.00026861,-0.00007764,0.00018217,-0.00021443,0.0001205
 3,-0.00046694,0.00005063,-0.00066449,0.00122551,-0.00098291,0.00007432
 ,-0.00026207,0.00019987,-0.00009275,0.00011704,0.00001063,-0.00000646,
 0.00000065,0.00000664,0.00002153,0.00001754,-0.00003883,0.00001268,-0.
 00000956,-0.00000200,-0.00066799,-0.00151810,0.00263078,0.00198612,0.0
 0100503,-0.00187237,0.00002034,-0.00146442,0.00079223,-0.00126992,-0.0
 0177684,0.00143950,0.00353135,0.00077083,0.00090044,-0.00460262,0.0029
 7005,0.00130600,-0.00022695,-0.00055449,0.00009698,0.01235193,-0.00931
 808,0.03903028,-0.00153827,-0.00083686,0.00136166,-0.00001226,0.000569
 91,-0.00039961,0.00005784,0.00010454,0.00008962,-0.00009998,-0.0000630
 6,0.00006062,-0.00017274,0.00070451,-0.00037619,0.00001841,-0.00021248
 ,0.00029426,0.00010661,-0.00030926,0.00001428,0.10957017,-0.18789548,0
 .15808988,0.03485518,0.01837549,0.00708327,-0.15341951,0.17901355,-0.0
 0016628,0.00054880,-0.00034239,0.00006854,-0.00024117,0.00028672,-0.00
 017123,0.00065983,-0.00008482,0.00090130,-0.00195489,0.00153530,-0.000
 03052,0.00043482,-0.00032812,0.00010867,-0.00022753,-0.00002419,0.0000
 0218,0.00000243,-0.00001990,-0.00003141,-0.00002749,0.00006320,-0.0000
 2065,0.00001103,0.00000224,0.00106964,0.00236492,-0.00382802,-0.002896
 57,-0.00105524,0.00279448,-0.00023299,0.00110960,-0.00176784,0.0014730
 2,0.00090379,-0.00308253,-0.00426479,0.00159774,-0.00031937,0.00717497
 ,0.00116981,0.00129395,0.00032685,0.00009292,-0.00069181,-0.01822563,0
 .03960025,-0.03941016,0.00215941,0.00138054,-0.00237982,-0.00002657,-0
 .00019283,0.00088812,-0.00007547,-0.00017746,-0.00012413,0.00015333,0.
 00004479,-0.00010915,0.00025608,-0.00102347,0.00050571,-0.00002757,0.0
 0030886,-0.00039598,-0.00015784,0.00046317,-0.00000425,-0.14528429,0.1
 5834229,-0.29471405,-0.04021195,0.00570435,0.02145890,0.19812979,-0.20
 983987,0.31879788\\0.00000259,-0.00000494,-0.00000020,0.00000065,0.000
 00380,0.00000110,-0.00000575,-0.00000514,-0.00000441,0.00000706,0.0000
 0676,-0.00001410,0.00000285,-0.00000890,0.00001226,-0.00000553,0.00001
 083,0.00000214,-0.00000156,0.00000219,0.00000075,-0.00000019,0.0000000
 6,-0.00000167,0.00000108,-0.00000076,-0.00000221,-0.00001931,-0.000011
 68,0.00001075,0.00002680,0.00002007,0.00000129,-0.00000713,-0.00001167
 ,0.00000347,0.00000249,0.00000199,-0.00000149,0.00000039,0.00000186,-0
 .00000042,0.00000323,-0.00000537,-0.00000290,-0.00000202,0.00000041,-0
 .00000032,0.00000061,0.00000084,-0.00000005,0.00000076,-0.00000166,0.0
 0000003,-0.00000170,0.00000122,0.00000004,0.00000506,-0.00000496,0.000
 00036,-0.00000755,0.00000709,-0.00000504,-0.00000431,-0.00001072,0.000
 00353,0.00000507,0.00000069,-0.00001117,-0.00000198,0.00000825,0.00000
 783,0.00000731,0.00000938,-0.00001378,-0.00001394,-0.00000138,0.000003
 08,0.00000499,-0.00000824,0.00001116\\\@


 IT WAS A GAME, A VERY INTERESTING GAME ONE COULD
 PLAY.  WHENEVER ONE SOLVED ONE OF THE LITTLE PROBLEMS,
 ONE COULD WRITE A PAPER ABOUT IT.  IT WAS VERY EASY IN
 THOSE DAYS FOR ANY SECOND-RATE PHYSICIST TO DO
 FIRST-RATE WORK.  THERE HAS NOT BEEN SUCH A GLORIOUS
 TIME SINCE.  IT IS VERY DIFFICULT NOW FOR A FIRST-RATE
 PHYSICIST TO DO SECOND-RATE WORK.
     P.A.M. DIRAC, ON THE EARLY DAYS OF QUANTUM MECHANICS
                   DIRECTIONS IN PHYSICS, 1978, P. 7
 Job cpu time:       0 days  3 hours  5 minutes 52.7 seconds.
 Elapsed time:       0 days  0 hours  6 minutes 11.8 seconds.
 File lengths (MBytes):  RWF=    412 Int=      0 D2E=      0 Chk=     14 Scr=      1
 Normal termination of Gaussian 16 at Fri Sep 15 15:19:38 2023.
