 Entering Gaussian System, Link 0=/home/ubuntu/g16/g16
 Input=/home/ubuntu/ML products/molecule_115.gjf
 Output=/home/ubuntu/ML products/molecule_115.log
 Initial command:
 /home/ubuntu/g16/l1.exe "/home/ubuntu/Scratch/Gau-338685.inp" -scrdir="/home/ubuntu/Scratch/"
 Entering Link 1 = /home/ubuntu/g16/l1.exe PID=    338687.
  
 Copyright (c) 1988-2017, Gaussian, Inc.  All Rights Reserved.
  
 This is part of the Gaussian(R) 16 program.  It is based on
 the Gaussian(R) 09 system (copyright 2009, Gaussian, Inc.),
 the Gaussian(R) 03 system (copyright 2003, Gaussian, Inc.),
 the Gaussian(R) 98 system (copyright 1998, Gaussian, Inc.),
 the Gaussian(R) 94 system (copyright 1995, Gaussian, Inc.),
 the Gaussian 92(TM) system (copyright 1992, Gaussian, Inc.),
 the Gaussian 90(TM) system (copyright 1990, Gaussian, Inc.),
 the Gaussian 88(TM) system (copyright 1988, Gaussian, Inc.),
 the Gaussian 86(TM) system (copyright 1986, Carnegie Mellon
 University), and the Gaussian 82(TM) system (copyright 1983,
 Carnegie Mellon University). Gaussian is a federally registered
 trademark of Gaussian, Inc.
  
 This software contains proprietary and confidential information,
 including trade secrets, belonging to Gaussian, Inc.
  
 This software is provided under written license and may be
 used, copied, transmitted, or stored only in accord with that
 written license.
  
 The following legend is applicable only to US Government
 contracts under FAR:
  
                    RESTRICTED RIGHTS LEGEND
  
 Use, reproduction and disclosure by the US Government is
 subject to restrictions as set forth in subparagraphs (a)
 and (c) of the Commercial Computer Software - Restricted
 Rights clause in FAR 52.227-19.
  
 Gaussian, Inc.
 340 Quinnipiac St., Bldg. 40, Wallingford CT 06492
  
  
 ---------------------------------------------------------------
 Warning -- This program may not be used in any manner that
 competes with the business of Gaussian, Inc. or will provide
 assistance to any competitor of Gaussian, Inc.  The licensee
 of this program is prohibited from giving any competitor of
 Gaussian, Inc. access to this program.  By using this program,
 the user acknowledges that Gaussian, Inc. is engaged in the
 business of creating and licensing software in the field of
 computational chemistry and represents and warrants to the
 licensee that it is not a competitor of Gaussian, Inc. and that
 it will not use this program in any manner prohibited above.
 ---------------------------------------------------------------
  

 Cite this work as:
 Gaussian 16, Revision B.01,
 M. J. Frisch, G. W. Trucks, H. B. Schlegel, G. E. Scuseria, 
 M. A. Robb, J. R. Cheeseman, G. Scalmani, V. Barone, 
 G. A. Petersson, H. Nakatsuji, X. Li, M. Caricato, A. V. Marenich, 
 J. Bloino, B. G. Janesko, R. Gomperts, B. Mennucci, H. P. Hratchian, 
 J. V. Ortiz, A. F. Izmaylov, J. L. Sonnenberg, D. Williams-Young, 
 F. Ding, F. Lipparini, F. Egidi, J. Goings, B. Peng, A. Petrone, 
 T. Henderson, D. Ranasinghe, V. G. Zakrzewski, J. Gao, N. Rega, 
 G. Zheng, W. Liang, M. Hada, M. Ehara, K. Toyota, R. Fukuda, 
 J. Hasegawa, M. Ishida, T. Nakajima, Y. Honda, O. Kitao, H. Nakai, 
 T. Vreven, K. Throssell, J. A. Montgomery, Jr., J. E. Peralta, 
 F. Ogliaro, M. J. Bearpark, J. J. Heyd, E. N. Brothers, K. N. Kudin, 
 V. N. Staroverov, T. A. Keith, R. Kobayashi, J. Normand, 
 K. Raghavachari, A. P. Rendell, J. C. Burant, S. S. Iyengar, 
 J. Tomasi, M. Cossi, J. M. Millam, M. Klene, C. Adamo, R. Cammi, 
 J. W. Ochterski, R. L. Martin, K. Morokuma, O. Farkas, 
 J. B. Foresman, and D. J. Fox, Gaussian, Inc., Wallingford CT, 2016.
 
 ******************************************
 Gaussian 16:  EM64L-G16RevB.01 20-Dec-2017
                15-Sep-2023 
 ******************************************
 %nprocshared=30
 Will use up to   30 processors via shared memory.
 %mem=30GB
 %chk=molecule_115.chk
 ----------------------------------------------------------------------
 # opt freq b3lyp/6-31+g(d) geom=connectivity empiricaldispersion=gd3 v
 olume
 ----------------------------------------------------------------------
 1/18=20,19=15,26=3,38=1,57=2/1,3;
 2/9=110,12=2,17=6,18=5,40=1/2;
 3/5=1,6=6,7=11,11=2,25=1,30=1,71=1,74=-5,124=31/1,2,3;
 4//1;
 5/5=2,38=5/2;
 6/7=2,8=2,9=2,10=2,28=1,44=1/1,4;
 7//1,2,3,16;
 1/18=20,19=15,26=3/3(2);
 2/9=110/2;
 99//99;
 2/9=110/2;
 3/5=1,6=6,7=11,11=2,25=1,30=1,71=1,74=-5,124=31/1,2,3;
 4/5=5,16=3,69=1/1;
 5/5=2,38=5/2;
 7//1,2,3,16;
 1/18=20,19=15,26=3/3(-5);
 2/9=110/2;
 6/7=2,8=2,9=2,10=2,19=2,28=1,44=1/1,4;
 99/9=1/99;
 --------------
 ML molecule115
 --------------
 Symbolic Z-matrix:
 Charge =  0 Multiplicity = 1
 C                    -4.16942  -0.43006  -3.00147 
 C                    -4.57309   0.25534  -1.8477 
 C                    -4.10926   1.55562  -1.60677 
 C                    -3.24176   2.17051  -2.51962 
 C                    -2.83809   1.48511  -3.67339 
 C                    -3.30192   0.18482  -3.91432 
 H                    -5.23544  -0.21414  -1.15072 
 H                    -2.17574   1.95458  -4.37037 
 H                    -2.99371  -0.3385   -4.79525 
 H                    -4.41746   2.07894  -0.72584 
 C                    -1.6528    5.06599  -0.82146 
 C                    -1.62225   4.03073  -1.78709 
 C                    -0.74258   6.09292  -0.876 
 C                    -0.68271   4.04248  -2.78795 
 C                     0.24118   6.1302   -1.90173 
 H                    -0.75815   6.90191  -0.13052 
 C                     0.27205   5.09313  -2.86957 
 H                    -0.65141   3.24235  -3.54263 
 C                     1.19643   7.18047  -1.98402 
 C                     1.25602   5.13062  -3.89553 
 C                     2.13586   7.19241  -2.98506 
 H                     1.16545   7.98077  -1.22949 
 C                     2.16615   6.15706  -3.95088 
 H                     1.27172   4.32153  -4.64105 
 H                     2.87533   8.0041   -3.05043 
 H                     2.92857   6.18913  -4.74308 
 H                    -2.38898   5.04807  -0.04518 
 O                    -2.58382   2.9757   -1.70228 
 C                    -4.67912  -1.85894  -3.26623 
 O                    -5.84879  -2.04575  -3.69115 
 C                    -3.75424  -3.06335  -3.0101 
 H                    -4.33892  -3.95821  -2.96226 
 H                    -3.04411  -3.14343  -3.80646 
 H                    -3.23709  -2.92524  -2.08361 
 

 GradGradGradGradGradGradGradGradGradGradGradGradGradGradGradGradGradGrad
 Berny optimization.
 Initialization pass.
                           ----------------------------
                           !    Initial Parameters    !
                           ! (Angstroms and Degrees)  !
 --------------------------                            --------------------------
 ! Name  Definition              Value          Derivative Info.                !
 --------------------------------------------------------------------------------
 ! R1    R(1,2)                  1.4014         estimate D2E/DX2                !
 ! R2    R(1,6)                  1.4014         estimate D2E/DX2                !
 ! R3    R(1,29)                 1.54           estimate D2E/DX2                !
 ! R4    R(2,3)                  1.4014         estimate D2E/DX2                !
 ! R5    R(2,7)                  1.07           estimate D2E/DX2                !
 ! R6    R(3,4)                  1.4014         estimate D2E/DX2                !
 ! R7    R(3,10)                 1.07           estimate D2E/DX2                !
 ! R8    R(4,5)                  1.4014         estimate D2E/DX2                !
 ! R9    R(4,28)                 1.3226         estimate D2E/DX2                !
 ! R10   R(5,6)                  1.4014         estimate D2E/DX2                !
 ! R11   R(5,8)                  1.07           estimate D2E/DX2                !
 ! R12   R(6,9)                  1.07           estimate D2E/DX2                !
 ! R13   R(11,12)                1.416          estimate D2E/DX2                !
 ! R14   R(11,13)                1.3733         estimate D2E/DX2                !
 ! R15   R(11,27)                1.07           estimate D2E/DX2                !
 ! R16   R(12,14)                1.3728         estimate D2E/DX2                !
 ! R17   R(12,28)                1.43           estimate D2E/DX2                !
 ! R18   R(13,15)                1.4217         estimate D2E/DX2                !
 ! R19   R(13,16)                1.1002         estimate D2E/DX2                !
 ! R20   R(14,17)                1.422          estimate D2E/DX2                !
 ! R21   R(14,18)                1.1003         estimate D2E/DX2                !
 ! R22   R(15,17)                1.4189         estimate D2E/DX2                !
 ! R23   R(15,19)                1.4221         estimate D2E/DX2                !
 ! R24   R(17,20)                1.422          estimate D2E/DX2                !
 ! R25   R(19,21)                1.3729         estimate D2E/DX2                !
 ! R26   R(19,22)                1.1003         estimate D2E/DX2                !
 ! R27   R(20,23)                1.3729         estimate D2E/DX2                !
 ! R28   R(20,24)                1.1003         estimate D2E/DX2                !
 ! R29   R(21,23)                1.4162         estimate D2E/DX2                !
 ! R30   R(21,25)                1.1            estimate D2E/DX2                !
 ! R31   R(23,26)                1.0999         estimate D2E/DX2                !
 ! R32   R(29,30)                1.2584         estimate D2E/DX2                !
 ! R33   R(29,31)                1.54           estimate D2E/DX2                !
 ! R34   R(31,32)                1.07           estimate D2E/DX2                !
 ! R35   R(31,33)                1.07           estimate D2E/DX2                !
 ! R36   R(31,34)                1.07           estimate D2E/DX2                !
 ! A1    A(2,1,6)              120.0            estimate D2E/DX2                !
 ! A2    A(2,1,29)             120.0            estimate D2E/DX2                !
 ! A3    A(6,1,29)             120.0            estimate D2E/DX2                !
 ! A4    A(1,2,3)              120.0            estimate D2E/DX2                !
 ! A5    A(1,2,7)              120.0            estimate D2E/DX2                !
 ! A6    A(3,2,7)              120.0            estimate D2E/DX2                !
 ! A7    A(2,3,4)              120.0            estimate D2E/DX2                !
 ! A8    A(2,3,10)             120.0            estimate D2E/DX2                !
 ! A9    A(4,3,10)             120.0            estimate D2E/DX2                !
 ! A10   A(3,4,5)              120.0            estimate D2E/DX2                !
 ! A11   A(3,4,28)              99.934          estimate D2E/DX2                !
 ! A12   A(5,4,28)             131.5476         estimate D2E/DX2                !
 ! A13   A(4,5,6)              120.0            estimate D2E/DX2                !
 ! A14   A(4,5,8)              120.0            estimate D2E/DX2                !
 ! A15   A(6,5,8)              120.0            estimate D2E/DX2                !
 ! A16   A(1,6,5)              120.0            estimate D2E/DX2                !
 ! A17   A(1,6,9)              120.0            estimate D2E/DX2                !
 ! A18   A(5,6,9)              120.0            estimate D2E/DX2                !
 ! A19   A(12,11,13)           120.3516         estimate D2E/DX2                !
 ! A20   A(12,11,27)           119.8242         estimate D2E/DX2                !
 ! A21   A(13,11,27)           119.8242         estimate D2E/DX2                !
 ! A22   A(11,12,14)           120.3763         estimate D2E/DX2                !
 ! A23   A(11,12,28)           118.976          estimate D2E/DX2                !
 ! A24   A(14,12,28)           120.6477         estimate D2E/DX2                !
 ! A25   A(11,13,15)           120.4559         estimate D2E/DX2                !
 ! A26   A(11,13,16)           120.8999         estimate D2E/DX2                !
 ! A27   A(15,13,16)           118.6441         estimate D2E/DX2                !
 ! A28   A(12,14,17)           120.5099         estimate D2E/DX2                !
 ! A29   A(12,14,18)           120.8832         estimate D2E/DX2                !
 ! A30   A(17,14,18)           118.6069         estimate D2E/DX2                !
 ! A31   A(13,15,17)           119.2103         estimate D2E/DX2                !
 ! A32   A(13,15,19)           121.73           estimate D2E/DX2                !
 ! A33   A(17,15,19)           119.0596         estimate D2E/DX2                !
 ! A34   A(14,17,15)           119.0959         estimate D2E/DX2                !
 ! A35   A(14,17,20)           121.7004         estimate D2E/DX2                !
 ! A36   A(15,17,20)           119.2037         estimate D2E/DX2                !
 ! A37   A(15,19,21)           120.5491         estimate D2E/DX2                !
 ! A38   A(15,19,22)           118.5913         estimate D2E/DX2                !
 ! A39   A(21,19,22)           120.8596         estimate D2E/DX2                !
 ! A40   A(17,20,23)           120.4968         estimate D2E/DX2                !
 ! A41   A(17,20,24)           118.6409         estimate D2E/DX2                !
 ! A42   A(23,20,24)           120.8623         estimate D2E/DX2                !
 ! A43   A(19,21,23)           120.3669         estimate D2E/DX2                !
 ! A44   A(19,21,25)           120.6492         estimate D2E/DX2                !
 ! A45   A(23,21,25)           118.9839         estimate D2E/DX2                !
 ! A46   A(20,23,21)           120.3239         estimate D2E/DX2                !
 ! A47   A(20,23,26)           120.685          estimate D2E/DX2                !
 ! A48   A(21,23,26)           118.991          estimate D2E/DX2                !
 ! A49   A(4,28,12)            138.3322         estimate D2E/DX2                !
 ! A50   A(1,29,30)            120.2269         estimate D2E/DX2                !
 ! A51   A(1,29,31)            119.8865         estimate D2E/DX2                !
 ! A52   A(30,29,31)           119.8865         estimate D2E/DX2                !
 ! A53   A(29,31,32)           109.4712         estimate D2E/DX2                !
 ! A54   A(29,31,33)           109.4712         estimate D2E/DX2                !
 ! A55   A(29,31,34)           109.4712         estimate D2E/DX2                !
 ! A56   A(32,31,33)           109.4713         estimate D2E/DX2                !
 ! A57   A(32,31,34)           109.4712         estimate D2E/DX2                !
 ! A58   A(33,31,34)           109.4712         estimate D2E/DX2                !
 ! D1    D(6,1,2,3)              0.0001         estimate D2E/DX2                !
 ! D2    D(6,1,2,7)           -179.9998         estimate D2E/DX2                !
 ! D3    D(29,1,2,3)          -179.9999         estimate D2E/DX2                !
 ! D4    D(29,1,2,7)             0.0002         estimate D2E/DX2                !
 ! D5    D(2,1,6,5)             -0.0001         estimate D2E/DX2                !
 ! D6    D(2,1,6,9)            179.9998         estimate D2E/DX2                !
 ! D7    D(29,1,6,5)           179.9999         estimate D2E/DX2                !
 ! D8    D(29,1,6,9)            -0.0002         estimate D2E/DX2                !
 ! D9    D(2,1,29,30)           76.9596         estimate D2E/DX2                !
 ! D10   D(2,1,29,31)         -103.0404         estimate D2E/DX2                !
 ! D11   D(6,1,29,30)         -103.0404         estimate D2E/DX2                !
 ! D12   D(6,1,29,31)           76.9596         estimate D2E/DX2                !
 ! D13   D(1,2,3,4)              0.0001         estimate D2E/DX2                !
 ! D14   D(1,2,3,10)          -179.9999         estimate D2E/DX2                !
 ! D15   D(7,2,3,4)            179.9999         estimate D2E/DX2                !
 ! D16   D(7,2,3,10)            -0.0001         estimate D2E/DX2                !
 ! D17   D(2,3,4,5)             -0.0002         estimate D2E/DX2                !
 ! D18   D(2,3,4,28)          -151.4765         estimate D2E/DX2                !
 ! D19   D(10,3,4,5)           179.9998         estimate D2E/DX2                !
 ! D20   D(10,3,4,28)           28.5235         estimate D2E/DX2                !
 ! D21   D(3,4,5,6)              0.0001         estimate D2E/DX2                !
 ! D22   D(3,4,5,8)           -180.0            estimate D2E/DX2                !
 ! D23   D(28,4,5,6)           141.0616         estimate D2E/DX2                !
 ! D24   D(28,4,5,8)           -38.9385         estimate D2E/DX2                !
 ! D25   D(3,4,28,12)         -172.8299         estimate D2E/DX2                !
 ! D26   D(5,4,28,12)           40.7136         estimate D2E/DX2                !
 ! D27   D(4,5,6,1)              0.0            estimate D2E/DX2                !
 ! D28   D(4,5,6,9)           -179.9999         estimate D2E/DX2                !
 ! D29   D(8,5,6,1)           -179.9999         estimate D2E/DX2                !
 ! D30   D(8,5,6,9)              0.0002         estimate D2E/DX2                !
 ! D31   D(13,11,12,14)         -0.0029         estimate D2E/DX2                !
 ! D32   D(13,11,12,28)        179.991          estimate D2E/DX2                !
 ! D33   D(27,11,12,14)        179.9971         estimate D2E/DX2                !
 ! D34   D(27,11,12,28)         -0.009          estimate D2E/DX2                !
 ! D35   D(12,11,13,15)          0.0104         estimate D2E/DX2                !
 ! D36   D(12,11,13,16)        179.9938         estimate D2E/DX2                !
 ! D37   D(27,11,13,15)       -179.9896         estimate D2E/DX2                !
 ! D38   D(27,11,13,16)         -0.0062         estimate D2E/DX2                !
 ! D39   D(11,12,14,17)         -0.011          estimate D2E/DX2                !
 ! D40   D(11,12,14,18)       -179.9971         estimate D2E/DX2                !
 ! D41   D(28,12,14,17)        179.9952         estimate D2E/DX2                !
 ! D42   D(28,12,14,18)          0.009          estimate D2E/DX2                !
 ! D43   D(11,12,28,4)         148.1253         estimate D2E/DX2                !
 ! D44   D(14,12,28,4)         -31.8808         estimate D2E/DX2                !
 ! D45   D(11,13,15,17)         -0.004          estimate D2E/DX2                !
 ! D46   D(11,13,15,19)        179.9916         estimate D2E/DX2                !
 ! D47   D(16,13,15,17)       -179.9878         estimate D2E/DX2                !
 ! D48   D(16,13,15,19)          0.0078         estimate D2E/DX2                !
 ! D49   D(12,14,17,15)          0.0171         estimate D2E/DX2                !
 ! D50   D(12,14,17,20)       -179.9875         estimate D2E/DX2                !
 ! D51   D(18,14,17,15)       -179.9964         estimate D2E/DX2                !
 ! D52   D(18,14,17,20)         -0.0011         estimate D2E/DX2                !
 ! D53   D(13,15,17,14)         -0.0096         estimate D2E/DX2                !
 ! D54   D(13,15,17,20)        179.995          estimate D2E/DX2                !
 ! D55   D(19,15,17,14)        179.9947         estimate D2E/DX2                !
 ! D56   D(19,15,17,20)         -0.0008         estimate D2E/DX2                !
 ! D57   D(13,15,19,21)       -179.9942         estimate D2E/DX2                !
 ! D58   D(13,15,19,22)          0.0027         estimate D2E/DX2                !
 ! D59   D(17,15,19,21)          0.0014         estimate D2E/DX2                !
 ! D60   D(17,15,19,22)        179.9984         estimate D2E/DX2                !
 ! D61   D(14,17,20,23)       -179.9995         estimate D2E/DX2                !
 ! D62   D(14,17,20,24)         -0.0135         estimate D2E/DX2                !
 ! D63   D(15,17,20,23)         -0.0042         estimate D2E/DX2                !
 ! D64   D(15,17,20,24)        179.9818         estimate D2E/DX2                !
 ! D65   D(15,19,21,23)          0.0027         estimate D2E/DX2                !
 ! D66   D(15,19,21,25)        179.9839         estimate D2E/DX2                !
 ! D67   D(22,19,21,23)       -179.9941         estimate D2E/DX2                !
 ! D68   D(22,19,21,25)         -0.013          estimate D2E/DX2                !
 ! D69   D(17,20,23,21)          0.0084         estimate D2E/DX2                !
 ! D70   D(17,20,23,26)        179.9987         estimate D2E/DX2                !
 ! D71   D(24,20,23,21)       -179.9773         estimate D2E/DX2                !
 ! D72   D(24,20,23,26)          0.013          estimate D2E/DX2                !
 ! D73   D(19,21,23,20)         -0.0078         estimate D2E/DX2                !
 ! D74   D(19,21,23,26)       -179.9982         estimate D2E/DX2                !
 ! D75   D(25,21,23,20)       -179.9892         estimate D2E/DX2                !
 ! D76   D(25,21,23,26)          0.0203         estimate D2E/DX2                !
 ! D77   D(1,29,31,32)         163.3225         estimate D2E/DX2                !
 ! D78   D(1,29,31,33)         -76.6775         estimate D2E/DX2                !
 ! D79   D(1,29,31,34)          43.3225         estimate D2E/DX2                !
 ! D80   D(30,29,31,32)        -16.6775         estimate D2E/DX2                !
 ! D81   D(30,29,31,33)        103.3225         estimate D2E/DX2                !
 ! D82   D(30,29,31,34)       -136.6775         estimate D2E/DX2                !
 --------------------------------------------------------------------------------
 Trust Radius=3.00D-01 FncErr=1.00D-07 GrdErr=1.00D-06 EigMax=2.50D+02 EigMin=1.00D-04
 Number of steps in this run=    186 maximum allowed number of steps=    204.
 GradGradGradGradGradGradGradGradGradGradGradGradGradGradGradGradGradGrad

                          Input orientation:                          
 ---------------------------------------------------------------------
 Center     Atomic      Atomic             Coordinates (Angstroms)
 Number     Number       Type             X           Y           Z
 ---------------------------------------------------------------------
      1          6           0       -4.169419   -0.430061   -3.001474
      2          6           0       -4.573086    0.255341   -1.847698
      3          6           0       -4.109257    1.555625   -1.606770
      4          6           0       -3.241762    2.170508   -2.519619
      5          6           0       -2.838094    1.485105   -3.673395
      6          6           0       -3.301922    0.184821   -3.914322
      7          1           0       -5.235437   -0.214137   -1.150717
      8          1           0       -2.175742    1.954582   -4.370375
      9          1           0       -2.993710   -0.338500   -4.795254
     10          1           0       -4.417465    2.078944   -0.725836
     11          6           0       -1.652800    5.065990   -0.821463
     12          6           0       -1.622251    4.030732   -1.787093
     13          6           0       -0.742575    6.092917   -0.876005
     14          6           0       -0.682713    4.042479   -2.787949
     15          6           0        0.241184    6.130202   -1.901731
     16          1           0       -0.758154    6.901912   -0.130523
     17          6           0        0.272055    5.093133   -2.869573
     18          1           0       -0.651405    3.242350   -3.542630
     19          6           0        1.196430    7.180466   -1.984024
     20          6           0        1.256022    5.130622   -3.895528
     21          6           0        2.135864    7.192414   -2.985058
     22          1           0        1.165453    7.980767   -1.229487
     23          6           0        2.166151    6.157058   -3.950880
     24          1           0        1.271717    4.321531   -4.641046
     25          1           0        2.875333    8.004098   -3.050427
     26          1           0        2.928568    6.189125   -4.743075
     27          1           0       -2.388977    5.048070   -0.045175
     28          8           0       -2.583815    2.975696   -1.702277
     29          6           0       -4.679122   -1.858944   -3.266230
     30          8           0       -5.848786   -2.045752   -3.691152
     31          6           0       -3.754243   -3.063351   -3.010098
     32          1           0       -4.338919   -3.958206   -2.962264
     33          1           0       -3.044105   -3.143431   -3.806460
     34          1           0       -3.237093   -2.925244   -2.083608
 ---------------------------------------------------------------------
                    Distance matrix (angstroms):
                    1          2          3          4          5
     1  C    0.000000
     2  C    1.401400   0.000000
     3  C    2.427296   1.401400   0.000000
     4  C    2.802800   2.427296   1.401400   0.000000
     5  C    2.427296   2.802800   2.427296   1.401400   0.000000
     6  C    1.401400   2.427296   2.802800   2.427296   1.401400
     7  H    2.146700   1.070000   2.146700   3.396345   3.872800
     8  H    3.396345   3.872800   3.396345   2.146700   1.070000
     9  H    2.146700   3.396345   3.872800   3.396345   2.146700
    10  H    3.396345   2.146700   1.070000   2.146700   3.396345
    11  C    6.425916   5.720452   4.355864   3.713806   4.728760
    12  C    5.278396   4.792148   3.513385   2.572906   3.393615
    13  C    7.668775   7.049418   5.696980   4.932818   5.783469
    14  C    5.675062   5.510126   4.395547   3.181982   3.459746
    15  C    7.981222   7.595664   6.319818   5.309603   5.847877
    16  H    8.581196   7.853618   6.480122   5.853399   6.798521
    17  C    7.088706   6.922705   5.771007   4.583788   4.830840
    18  H    5.114281   5.212926   4.306894   2.984183   2.808312
    19  C    9.367372   9.014613   7.741542   6.714469   7.181120
    20  C    7.820226   7.870228   6.841436   5.557470   5.486431
    21  C    9.892370   9.717334   8.524941   7.372587   7.601805
    22  H   10.116463   9.643403   8.321500   7.405883   8.012159
    23  C    9.188631   9.201682   8.127040   6.869251   6.851759
    24  H    7.407548   7.648425   6.768452   5.431284   5.086472
    25  H   10.989357  10.815209   9.615168   8.469438   8.690719
    26  H    9.860437   9.993389   8.990924   7.691945   7.518405
    27  H    6.474534   5.566837   4.194653   3.889792   5.104939
    28  O    3.975076   3.373230   2.086312   1.322600   2.484315
    29  C    1.540000   2.548270   3.838989   4.342800   3.838989
    30  O    2.430306   3.212594   4.510047   5.093712   4.640208
    31  C    2.665832   3.610456   4.840485   5.281712   4.686976
    32  H    3.532432   4.364753   5.682643   6.241860   5.691030
    33  H    3.045769   4.210247   5.296631   5.471103   4.635029
    34  H    2.817382   3.457838   4.589796   5.114373   4.705082
                    6          7          8          9         10
     6  C    0.000000
     7  H    3.396345   0.000000
     8  H    2.146700   4.942800   0.000000
     9  H    1.070000   4.280590   2.471400   0.000000
    10  H    3.872800   2.471400   4.280590   4.942800   0.000000
    11  C    6.009258   6.389321   4.748589   6.840874   4.071236
    12  C    4.705043   5.610614   3.360074   5.479062   3.570569
    13  C    7.119496   7.748561   5.602714   7.860740   5.444203
    14  C    4.796926   6.444114   3.015381   5.344433   4.696398
    15  C    7.207751   8.414751   5.419551   7.789809   6.284778
    16  H    8.118325   8.469062   6.667981   8.898370   6.083254
    17  C    6.160871   7.839262   4.253776   6.623903   5.972649
    18  H    4.063481   6.219477   2.160350   4.458469   4.844693
    19  C    8.538165   9.835825   6.661537   9.055116   7.689238
    20  C    6.725783   8.845308   4.699970   6.984342   7.179704
    21  C    8.918487  10.609330   6.924156   9.289995   8.613814
    22  H    9.377769  10.398752   7.572560   9.961101   8.139666
    23  C    8.097454  10.159553   6.057129   8.338429   8.389036
    24  H    6.209562   8.665894   4.190546   6.319298   7.261188
    25  H   10.002294  11.701832   7.990761  10.348383   9.679673
    26  H    8.692382  10.979881   6.642608   8.813966   9.327165
    27  H    6.281318   6.084026   5.321888   7.207224   3.659751
    28  O    3.632878   4.184537   2.885818   4.551748   2.262714
    29  C    2.548270   2.736837   4.693509   2.736837   4.693509
    30  O    3.392901   3.191367   5.473140   3.505026   5.277773
    31  C    3.401887   3.710695   5.433385   3.345146   5.665766
    32  H    4.375665   4.254821   6.451602   4.274542   6.438552
    33  H    3.339964   4.520583   5.202095   2.974541   6.216877
    34  H    3.609462   3.494820   5.492583   3.755463   5.317773
                   11         12         13         14         15
    11  C    0.000000
    12  C    1.416027   0.000000
    13  C    1.373340   2.420024   0.000000
    14  C    2.419857   1.372801   2.804177   0.000000
    15  C    2.426253   2.809503   1.421719   2.448990   0.000000
    16  H    2.156015   3.425575   1.100209   3.904351   2.175176
    17  C    2.810793   2.426696   2.450175   1.422011   1.418868
    18  H    3.425376   2.155458   3.904476   1.100332   3.439325
    19  C    3.733721   4.231379   2.483991   3.744921   1.422083
    20  C    4.232647   3.733593   3.746722   2.483844   2.450364
    21  C    4.853535   5.055174   3.733954   4.231468   2.427284
    22  H    4.074919   4.866723   2.707305   4.621107   2.175035
    23  C    5.056488   4.853373   4.233162   3.733614   2.811625
    24  H    4.867877   4.074882   4.622847   2.707699   3.440514
    25  H    5.839927   6.132855   4.633571   5.331323   3.430704
    26  H    6.134282   5.840073   5.332991   4.633785   3.911361
    27  H    1.070000   2.158036   2.119580   3.383099   3.396403
    28  O    2.451928   1.430000   3.713483   2.435344   4.239258
    29  C    7.942935   6.798573   9.189215   7.143307   9.481441
    30  O    8.741755   7.642820  10.011811   8.035586  10.350651
    31  C    8.677117   7.507805   9.872271   7.744447  10.085302
    32  H    9.655795   8.519650  10.877097   8.798249  11.130052
    33  H    8.845367   7.587366   9.959655   7.632224  10.021047
    34  H    8.243956   7.147114   9.434413   7.454536   9.702195
                   16         17         18         19         20
    16  H    0.000000
    17  C    3.440263   0.000000
    18  H    5.004624   2.175127   0.000000
    19  C    2.708036   2.448597   4.620877   0.000000
    20  C    4.622730   1.422034   2.707100   2.803436   0.000000
    21  C    4.075304   2.809645   4.866494   1.372861   2.419517
    22  H    2.464125   3.438965   5.577114   1.100349   3.903755
    23  C    4.868418   2.426677   4.074409   2.419968   1.372941
    24  H    5.578849   2.175502   2.463645   3.903709   1.100306
    25  H    4.789872   3.909410   5.945956   2.152742   3.404883
    26  H    5.947741   3.430492   4.789652   3.405205   2.153178
    27  H    2.470546   3.880766   4.302554   4.600151   5.302645
    28  O    4.606368   3.741939   2.681830   5.661247   4.919188
    29  C   10.097487   8.544171   6.505544  10.857122   9.191082
    30  O   10.892810   9.439457   7.416121  11.733390  10.100516
    31  C   10.796989   9.097199   7.047911  11.423562   9.645099
    32  H   11.780611  10.158563   8.110647  12.476660  10.713596
    33  H   10.938327   8.928362   6.824428  11.308680   9.325180
    34  H   10.321466   8.787845   6.844979  11.035914   9.400432
                   21         22         23         24         25
    21  C    0.000000
    22  H    2.155279   0.000000
    23  C    1.416225   3.425389   0.000000
    24  H    3.425058   5.004002   2.155342   0.000000
    25  H    1.099963   2.498010   2.173779   4.320065   0.000000
    26  H    2.173843   4.320169   1.099946   2.498695   2.482342
    27  H    5.806488   4.757865   6.101932   5.920352   6.744078
    28  O    6.457678   6.271465   6.143244   5.031178   7.543516
    29  C   11.333586  11.624427  10.563275   8.689123  12.425617
    30  O   12.230982  12.481603  11.471388   9.599278  13.323673
    31  C   11.826863  12.220742  10.997821   9.080569  12.901214
    32  H   12.894172  13.260456  12.066973  10.141577  13.969607
    33  H   11.590361  12.170002  10.661459   8.663054  12.644316
    34  H   11.491226  11.792074  10.731726   8.909859  12.559737
                   26         27         28         29         30
    26  H    0.000000
    27  H    7.186693   0.000000
    28  O    7.068165   2.660579   0.000000
    29  C   11.172709   7.957814   5.496363   0.000000
    30  O   12.081460   8.694006   6.311148   1.258400   0.000000
    31  C   11.544327   8.743561   6.288910   1.540000   2.426202
    32  H   12.607775   9.665645   7.262710   2.148263   2.543316
    33  H   11.119653   9.037541   6.487154   2.148263   3.014039
    34  H   11.320771   8.273345   5.949225   2.148263   3.190398
                   31         32         33         34
    31  C    0.000000
    32  H    1.070000   0.000000
    33  H    1.070000   1.747303   0.000000
    34  H    1.070000   1.747303   1.747303   0.000000
 Stoichiometry    C18H14O2
 Framework group  C1[X(C18H14O2)]
 Deg. of freedom    96
 Full point group                 C1      NOp   1
 Largest Abelian subgroup         C1      NOp   1
 Largest concise Abelian subgroup C1      NOp   1
                         Standard orientation:                         
 ---------------------------------------------------------------------
 Center     Atomic      Atomic             Coordinates (Angstroms)
 Number     Number       Type             X           Y           Z
 ---------------------------------------------------------------------
      1          6           0       -3.953297   -0.118440   -0.119658
      2          6           0       -3.567258    1.218506    0.046083
      3          6           0       -2.228739    1.589557   -0.139957
      4          6           0       -1.276260    0.623661   -0.491738
      5          6           0       -1.662299   -0.713286   -0.657477
      6          6           0       -3.000817   -1.084337   -0.471437
      7          1           0       -4.294497    1.955989    0.314676
      8          1           0       -0.935059   -1.450769   -0.926070
      9          1           0       -3.295566   -2.105125   -0.597980
     10          1           0       -1.933990    2.610345   -0.013409
     11          6           0        2.092683    2.038806    0.171540
     12          6           0        1.216240    0.931506    0.067297
     13          6           0        3.452411    1.847607    0.196975
     14          6           0        1.716182   -0.344717   -0.009503
     15          6           0        3.997404    0.536819    0.118839
     16          1           0        4.141616    2.701392    0.277636
     17          6           0        3.119554   -0.572966    0.014242
     18          1           0        1.042805   -1.211142   -0.090761
     19          6           0        5.400701    0.307664    0.142633
     20          6           0        3.664822   -1.883973   -0.064011
     21          6           0        5.900735   -0.968570    0.065561
     22          1           0        6.074402    1.173856    0.223916
     23          6           0        5.024049   -2.075908   -0.038917
     24          1           0        2.975604   -2.737883   -0.144578
     25          1           0        6.985867   -1.147692    0.083555
     26          1           0        5.449148   -3.088595   -0.099231
     27          1           0        1.693437    3.029759    0.230808
     28          8           0       -0.194463    1.164428    0.043572
     29          6           0       -5.424197   -0.526188    0.084780
     30          8           0       -6.279743   -0.278270   -0.804124
     31          6           0       -5.849562   -1.239781    1.381487
     32          1           0       -6.913162   -1.186509    1.485492
     33          1           0       -5.546117   -2.265030    1.340406
     34          1           0       -5.384951   -0.763614    2.219522
 ---------------------------------------------------------------------
 Rotational constants (GHZ):           1.1148936           0.1235558           0.1140544
 Standard basis: 6-31+G(d) (6D, 7F)
 There are   408 symmetry adapted cartesian basis functions of A   symmetry.
 There are   408 symmetry adapted basis functions of A   symmetry.
   408 basis functions,   696 primitive gaussians,   408 cartesian basis functions
    69 alpha electrons       69 beta electrons
       nuclear repulsion energy      1322.0188792315 Hartrees.
 NAtoms=   34 NActive=   34 NUniq=   34 SFac= 1.00D+00 NAtFMM=   60 NAOKFM=F Big=F
 Integral buffers will be    131072 words long.
 Raffenetti 2 integral format.
 Two-electron integral symmetry is turned on.
 Nuclear repulsion after empirical dispersion term =     1321.9910880559 Hartrees.
 One-electron integrals computed using PRISM.
 NBasis=   408 RedAO= T EigKep=  1.11D-06  NBF=   408
 NBsUse=   406 1.00D-06 EigRej=  5.95D-07 NBFU=   406
 ExpMin= 4.38D-02 ExpMax= 5.48D+03 ExpMxC= 8.25D+02 IAcc=3 IRadAn=         5 AccDes= 0.00D+00
 Harris functional with IExCor=  402 and IRadAn=       5 diagonalized for initial guess.
 HarFok:  IExCor=  402 AccDes= 0.00D+00 IRadAn=         5 IDoV= 1 UseB2=F ITyADJ=14
 ICtDFT=  3500011 ScaDFX=  1.000000  1.000000  1.000000  1.000000
 FoFCou: FMM=F IPFlag=           0 FMFlag=      100000 FMFlg1=           0
         NFxFlg=           0 DoJE=T BraDBF=F KetDBF=T FulRan=T
         wScrn=  0.000000 ICntrl=       500 IOpCl=  0 I1Cent=   200000004 NGrid=           0
         NMat0=    1 NMatS0=      1 NMatT0=    0 NMatD0=    1 NMtDS0=    0 NMtDT0=    0
 Petite list used in FoFCou.
 Requested convergence on RMS density matrix=1.00D-08 within 128 cycles.
 Requested convergence on MAX density matrix=1.00D-06.
 Requested convergence on             energy=1.00D-06.
 No special actions if energy rises.
 SCF Done:  E(RB3LYP) =  -844.797215869     A.U. after   16 cycles
            NFock= 16  Conv=0.93D-08     -V/T= 2.0096

 **********************************************************************

            Population analysis using the SCF Density.

 **********************************************************************

 Orbital symmetries:
       Occupied  (A) (A) (A) (A) (A) (A) (A) (A) (A) (A) (A) (A)
                 (A) (A) (A) (A) (A) (A) (A) (A) (A) (A) (A) (A)
                 (A) (A) (A) (A) (A) (A) (A) (A) (A) (A) (A) (A)
                 (A) (A) (A) (A) (A) (A) (A) (A) (A) (A) (A) (A)
                 (A) (A) (A) (A) (A) (A) (A) (A) (A) (A) (A) (A)
                 (A) (A) (A) (A) (A) (A) (A) (A) (A)
       Virtual   (A) (A) (A) (A) (A) (A) (A) (A) (A) (A) (A) (A)
                 (A) (A) (A) (A) (A) (A) (A) (A) (A) (A) (A) (A)
                 (A) (A) (A) (A) (A) (A) (A) (A) (A) (A) (A) (A)
                 (A) (A) (A) (A) (A) (A) (A) (A) (A) (A) (A) (A)
                 (A) (A) (A) (A) (A) (A) (A) (A) (A) (A) (A) (A)
                 (A) (A) (A) (A) (A) (A) (A) (A) (A) (A) (A) (A)
                 (A) (A) (A) (A) (A) (A) (A) (A) (A) (A) (A) (A)
                 (A) (A) (A) (A) (A) (A) (A) (A) (A) (A) (A) (A)
                 (A) (A) (A) (A) (A) (A) (A) (A) (A) (A) (A) (A)
                 (A) (A) (A) (A) (A) (A) (A) (A) (A) (A) (A) (A)
                 (A) (A) (A) (A) (A) (A) (A) (A) (A) (A) (A) (A)
                 (A) (A) (A) (A) (A) (A) (A) (A) (A) (A) (A) (A)
                 (A) (A) (A) (A) (A) (A) (A) (A) (A) (A) (A) (A)
                 (A) (A) (A) (A) (A) (A) (A) (A) (A) (A) (A) (A)
                 (A) (A) (A) (A) (A) (A) (A) (A) (A) (A) (A) (A)
                 (A) (A) (A) (A) (A) (A) (A) (A) (A) (A) (A) (A)
                 (A) (A) (A) (A) (A) (A) (A) (A) (A) (A) (A) (A)
                 (A) (A) (A) (A) (A) (A) (A) (A) (A) (A) (A) (A)
                 (A) (A) (A) (A) (A) (A) (A) (A) (A) (A) (A) (A)
                 (A) (A) (A) (A) (A) (A) (A) (A) (A) (A) (A) (A)
                 (A) (A) (A) (A) (A) (A) (A) (A) (A) (A) (A) (A)
                 (A) (A) (A) (A) (A) (A) (A) (A) (A) (A) (A) (A)
                 (A) (A) (A) (A) (A) (A) (A) (A) (A) (A) (A) (A)
                 (A) (A) (A) (A) (A) (A) (A) (A) (A) (A) (A) (A)
                 (A) (A) (A) (A) (A) (A) (A) (A) (A) (A) (A) (A)
                 (A) (A) (A) (A) (A) (A) (A) (A) (A) (A) (A) (A)
                 (A) (A) (A) (A) (A) (A) (A) (A) (A) (A) (A) (A)
                 (A) (A) (A) (A) (A) (A) (A) (A) (A) (A) (A) (A)
                 (A)
 The electronic state is 1-A.
 Alpha  occ. eigenvalues --  -19.20419 -19.15647 -10.29710 -10.27546 -10.27051
 Alpha  occ. eigenvalues --  -10.21762 -10.21504 -10.21391 -10.21364 -10.21322
 Alpha  occ. eigenvalues --  -10.21205 -10.20998 -10.20980 -10.20833 -10.20803
 Alpha  occ. eigenvalues --  -10.20760 -10.20627 -10.20625 -10.19816 -10.19518
 Alpha  occ. eigenvalues --   -1.09745  -1.02980  -0.89530  -0.87055  -0.84113
 Alpha  occ. eigenvalues --   -0.79491  -0.78369  -0.76688  -0.75788  -0.74378
 Alpha  occ. eigenvalues --   -0.72930  -0.66977  -0.64433  -0.63186  -0.61406
 Alpha  occ. eigenvalues --   -0.60880  -0.56688  -0.56345  -0.53143  -0.52391
 Alpha  occ. eigenvalues --   -0.49369  -0.48987  -0.47780  -0.46731  -0.46028
 Alpha  occ. eigenvalues --   -0.45671  -0.45316  -0.44730  -0.44121  -0.43844
 Alpha  occ. eigenvalues --   -0.43269  -0.42955  -0.42364  -0.40464  -0.39773
 Alpha  occ. eigenvalues --   -0.38480  -0.38400  -0.36614  -0.36069  -0.35325
 Alpha  occ. eigenvalues --   -0.34969  -0.33467  -0.32823  -0.30167  -0.26767
 Alpha  occ. eigenvalues --   -0.26605  -0.25760  -0.23972  -0.21886
 Alpha virt. eigenvalues --   -0.05900  -0.04502  -0.03496  -0.02540  -0.01675
 Alpha virt. eigenvalues --   -0.00543  -0.00148   0.00234   0.00680   0.01339
 Alpha virt. eigenvalues --    0.02181   0.02997   0.03478   0.03662   0.04182
 Alpha virt. eigenvalues --    0.04556   0.05155   0.05317   0.05787   0.05934
 Alpha virt. eigenvalues --    0.06494   0.06640   0.07275   0.07621   0.07846
 Alpha virt. eigenvalues --    0.08213   0.08399   0.09178   0.09724   0.10188
 Alpha virt. eigenvalues --    0.10365   0.10736   0.10949   0.11579   0.11818
 Alpha virt. eigenvalues --    0.12265   0.12689   0.13049   0.13148   0.13513
 Alpha virt. eigenvalues --    0.13923   0.14294   0.14858   0.15378   0.15941
 Alpha virt. eigenvalues --    0.16180   0.16243   0.16770   0.16908   0.17323
 Alpha virt. eigenvalues --    0.17578   0.17854   0.18492   0.18793   0.19349
 Alpha virt. eigenvalues --    0.19779   0.19895   0.20127   0.20278   0.20809
 Alpha virt. eigenvalues --    0.20902   0.21244   0.21786   0.21965   0.22386
 Alpha virt. eigenvalues --    0.22710   0.23135   0.23421   0.23523   0.24203
 Alpha virt. eigenvalues --    0.24625   0.24866   0.25117   0.25313   0.25665
 Alpha virt. eigenvalues --    0.25787   0.26057   0.26278   0.26809   0.27181
 Alpha virt. eigenvalues --    0.27569   0.27717   0.28256   0.28816   0.29172
 Alpha virt. eigenvalues --    0.29674   0.30007   0.30937   0.31005   0.31445
 Alpha virt. eigenvalues --    0.31742   0.31823   0.32348   0.32658   0.32850
 Alpha virt. eigenvalues --    0.33309   0.33886   0.34024   0.34231   0.34814
 Alpha virt. eigenvalues --    0.35375   0.36361   0.36485   0.36960   0.38543
 Alpha virt. eigenvalues --    0.38653   0.39210   0.39888   0.40742   0.41166
 Alpha virt. eigenvalues --    0.42709   0.42983   0.44587   0.45367   0.46490
 Alpha virt. eigenvalues --    0.46992   0.48254   0.52414   0.53879   0.56532
 Alpha virt. eigenvalues --    0.59684   0.60879   0.63650   0.64211   0.65685
 Alpha virt. eigenvalues --    0.65763   0.67404   0.68249   0.68643   0.69124
 Alpha virt. eigenvalues --    0.69568   0.69871   0.70348   0.71445   0.72116
 Alpha virt. eigenvalues --    0.72649   0.72870   0.73358   0.73840   0.74389
 Alpha virt. eigenvalues --    0.74620   0.75177   0.76061   0.76675   0.77007
 Alpha virt. eigenvalues --    0.77319   0.77775   0.77972   0.79129   0.80007
 Alpha virt. eigenvalues --    0.80611   0.82046   0.83085   0.83178   0.84270
 Alpha virt. eigenvalues --    0.85232   0.85975   0.87429   0.87988   0.88329
 Alpha virt. eigenvalues --    0.89292   0.90108   0.91346   0.92192   0.92698
 Alpha virt. eigenvalues --    0.94488   0.94704   0.96109   0.97585   0.98263
 Alpha virt. eigenvalues --    0.99062   0.99972   1.00587   1.01332   1.02437
 Alpha virt. eigenvalues --    1.03340   1.04058   1.07378   1.08221   1.09172
 Alpha virt. eigenvalues --    1.09824   1.11938   1.13080   1.14139   1.14654
 Alpha virt. eigenvalues --    1.15762   1.16598   1.16986   1.18612   1.20183
 Alpha virt. eigenvalues --    1.20600   1.21380   1.21983   1.22953   1.24101
 Alpha virt. eigenvalues --    1.25125   1.25439   1.26747   1.27243   1.28565
 Alpha virt. eigenvalues --    1.30119   1.30758   1.33064   1.35357   1.37152
 Alpha virt. eigenvalues --    1.37639   1.37931   1.39535   1.40018   1.40673
 Alpha virt. eigenvalues --    1.42063   1.43214   1.44802   1.45634   1.46198
 Alpha virt. eigenvalues --    1.46906   1.47554   1.47729   1.48368   1.48862
 Alpha virt. eigenvalues --    1.49144   1.50548   1.52232   1.55876   1.57763
 Alpha virt. eigenvalues --    1.60101   1.64306   1.67524   1.69372   1.71364
 Alpha virt. eigenvalues --    1.75111   1.76264   1.77611   1.80400   1.81560
 Alpha virt. eigenvalues --    1.82142   1.82291   1.83511   1.84437   1.85699
 Alpha virt. eigenvalues --    1.86610   1.89611   1.90291   1.91553   1.92581
 Alpha virt. eigenvalues --    1.93839   1.94455   1.94818   1.96894   1.98009
 Alpha virt. eigenvalues --    1.99384   2.00873   2.01052   2.01463   2.03744
 Alpha virt. eigenvalues --    2.04553   2.06802   2.08459   2.09776   2.11656
 Alpha virt. eigenvalues --    2.12326   2.14363   2.17410   2.18580   2.19748
 Alpha virt. eigenvalues --    2.19869   2.20164   2.21154   2.22306   2.24587
 Alpha virt. eigenvalues --    2.25671   2.27286   2.27918   2.31221   2.31545
 Alpha virt. eigenvalues --    2.32445   2.32749   2.34191   2.35336   2.35974
 Alpha virt. eigenvalues --    2.36183   2.38523   2.43331   2.45352   2.47818
 Alpha virt. eigenvalues --    2.52634   2.54424   2.58967   2.60003   2.61469
 Alpha virt. eigenvalues --    2.63226   2.64208   2.64707   2.65963   2.66572
 Alpha virt. eigenvalues --    2.68416   2.69134   2.74575   2.75876   2.76646
 Alpha virt. eigenvalues --    2.79284   2.80237   2.81557   2.85052   2.87241
 Alpha virt. eigenvalues --    2.88301   2.89155   2.93277   2.96891   3.04398
 Alpha virt. eigenvalues --    3.06534   3.09252   3.12876   3.29119   3.36112
 Alpha virt. eigenvalues --    3.41583   3.49156   4.19806   4.21833   4.25016
 Alpha virt. eigenvalues --    4.26628   4.28699   4.29452   4.30556   4.31832
 Alpha virt. eigenvalues --    4.36395   4.37499   4.38451   4.40111   4.44660
 Alpha virt. eigenvalues --    4.45821   4.49421   4.55595   4.60698   4.62656
 Alpha virt. eigenvalues --    4.76094   4.83431
          Condensed to atoms (all electrons):
               1          2          3          4          5          6
     1  C    8.890427  -0.150148   0.280734  -0.818297  -0.700629  -0.660798
     2  C   -0.150148  10.250254  -1.726805   0.997123  -1.724340  -0.811587
     3  C    0.280734  -1.726805  10.035332  -1.708817   0.035450  -1.145536
     4  C   -0.818297   0.997123  -1.708817   9.412394  -1.139670   0.345422
     5  C   -0.700629  -1.724340   0.035450  -1.139670  10.629636  -1.801013
     6  C   -0.660798  -0.811587  -1.145536   0.345422  -1.801013   9.951735
     7  H    0.003850   0.315094  -0.100132   0.047960  -0.027796   0.049881
     8  H   -0.000775   0.001436   0.000413   0.027255   0.212756   0.022470
     9  H    0.086895   0.076847  -0.040681   0.010925  -0.043666   0.216038
    10  H    0.018405  -0.018428   0.292918   0.015912   0.015247  -0.009638
    11  C    0.030827  -0.076766  -0.024353  -0.229881   0.300705  -0.099850
    12  C   -0.223671   0.331005  -0.166573  -1.483224  -0.204383   0.595333
    13  C    0.006580  -0.030411   0.027829   0.023725   0.020448  -0.010629
    14  C    0.059211  -0.045647  -0.181317   1.007828  -0.238644  -0.111799
    15  C   -0.004368  -0.002890   0.033288  -0.368959   0.180494  -0.019475
    16  H   -0.000024   0.000051  -0.000537   0.000352   0.000079   0.000079
    17  C   -0.002043  -0.002857  -0.076923   0.118272   0.129036  -0.067541
    18  H   -0.001167   0.003403  -0.004657  -0.016852  -0.014114   0.037225
    19  C    0.000924  -0.000325   0.041492  -0.112624  -0.008151   0.000227
    20  C    0.011785   0.006566  -0.049396   0.238657  -0.146583   0.035834
    21  C   -0.000016   0.000133  -0.003295   0.008805   0.002682   0.001290
    22  H    0.000000   0.000001   0.000021  -0.000010  -0.000016   0.000000
    23  C    0.001699   0.000042  -0.009593  -0.031462   0.031759  -0.001790
    24  H   -0.000017   0.000032   0.000170  -0.001574   0.001349   0.000294
    25  H    0.000000   0.000000   0.000000   0.000008  -0.000006   0.000000
    26  H    0.000000   0.000000   0.000003  -0.000010   0.000007  -0.000004
    27  H    0.000183  -0.000882  -0.005887  -0.000666   0.002648  -0.000658
    28  O   -0.015568   0.020656   0.082813   0.067212  -0.209333  -0.020925
    29  C   -0.697690  -0.595097   0.237727  -0.438444   0.388908  -0.103154
    30  O    0.181299  -0.123647  -0.024596  -0.012459  -0.001567  -0.083939
    31  C   -0.286669  -0.130517   0.048049  -0.022888   0.128837  -0.024222
    32  H    0.019325   0.006212   0.000484   0.000541  -0.003075  -0.004336
    33  H   -0.034711  -0.000338  -0.002535   0.001579   0.021162   0.014126
    34  H    0.049705   0.001435   0.012522  -0.001353  -0.003915  -0.008865
               7          8          9         10         11         12
     1  C    0.003850  -0.000775   0.086895   0.018405   0.030827  -0.223671
     2  C    0.315094   0.001436   0.076847  -0.018428  -0.076766   0.331005
     3  C   -0.100132   0.000413  -0.040681   0.292918  -0.024353  -0.166573
     4  C    0.047960   0.027255   0.010925   0.015912  -0.229881  -1.483224
     5  C   -0.027796   0.212756  -0.043666   0.015247   0.300705  -0.204383
     6  C    0.049881   0.022470   0.216038  -0.009638  -0.099850   0.595333
     7  H    0.530440   0.000016  -0.000161  -0.004684   0.000733  -0.001132
     8  H    0.000016   0.544417  -0.005518  -0.000170   0.013803  -0.004906
     9  H   -0.000161  -0.005518   0.535678   0.000013  -0.000378  -0.007088
    10  H   -0.004684  -0.000170   0.000013   0.516255  -0.014149  -0.002967
    11  C    0.000733   0.013803  -0.000378  -0.014149  12.938296  -0.784556
    12  C   -0.001132  -0.004906  -0.007088  -0.002967  -0.784556  13.354115
    13  C    0.000031  -0.004259   0.000023   0.000573  -1.965201  -0.677512
    14  C    0.000273   0.002239   0.006388   0.013415  -4.283435  -3.533851
    15  C   -0.000016  -0.007944  -0.000190  -0.002114   0.611274   2.471065
    16  H    0.000000   0.000000   0.000000   0.000000   0.084236   0.016032
    17  C   -0.000049   0.004585   0.000122   0.002707   0.509281  -0.414862
    18  H    0.000000   0.002640   0.000000  -0.000001   0.059416   0.029118
    19  C   -0.000002  -0.000656  -0.000011  -0.000037   0.522285   0.774360
    20  C    0.000009   0.010175   0.000506   0.000321  -0.892772  -4.142466
    21  C    0.000000   0.000191   0.000003   0.000005  -0.600759  -0.144415
    22  H    0.000000   0.000000   0.000000   0.000000   0.008513   0.003147
    23  C    0.000000   0.001402   0.000013  -0.000009   0.385208  -0.196919
    24  H    0.000000  -0.000006   0.000000   0.000000   0.006461   0.011997
    25  H    0.000000   0.000000   0.000000   0.000000   0.000617   0.000071
    26  H    0.000000   0.000000   0.000000   0.000000  -0.000047   0.001474
    27  H    0.000000   0.000000   0.000000   0.000044   0.198816   0.019024
    28  O    0.000335  -0.002540  -0.000467  -0.017259  -0.478887   0.559956
    29  C   -0.003661   0.006213  -0.016729   0.000769   0.005334  -0.041522
    30  O    0.000201  -0.000007  -0.000700  -0.000018   0.000061  -0.000272
    31  C    0.000087  -0.000480  -0.002649  -0.000325   0.001248   0.000123
    32  H   -0.000029   0.000000  -0.000035   0.000000  -0.000001   0.000012
    33  H   -0.000008   0.000000   0.000046   0.000000   0.000001  -0.000140
    34  H    0.000018   0.000000   0.000037   0.000000  -0.000016   0.000130
              13         14         15         16         17         18
     1  C    0.006580   0.059211  -0.004368  -0.000024  -0.002043  -0.001167
     2  C   -0.030411  -0.045647  -0.002890   0.000051  -0.002857   0.003403
     3  C    0.027829  -0.181317   0.033288  -0.000537  -0.076923  -0.004657
     4  C    0.023725   1.007828  -0.368959   0.000352   0.118272  -0.016852
     5  C    0.020448  -0.238644   0.180494   0.000079   0.129036  -0.014114
     6  C   -0.010629  -0.111799  -0.019475   0.000079  -0.067541   0.037225
     7  H    0.000031   0.000273  -0.000016   0.000000  -0.000049   0.000000
     8  H   -0.004259   0.002239  -0.007944   0.000000   0.004585   0.002640
     9  H    0.000023   0.006388  -0.000190   0.000000   0.000122   0.000000
    10  H    0.000573   0.013415  -0.002114   0.000000   0.002707  -0.000001
    11  C   -1.965201  -4.283435   0.611274   0.084236   0.509281   0.059416
    12  C   -0.677512  -3.533851   2.471065   0.016032  -0.414862   0.029118
    13  C   11.629417   2.084473  -5.000482   0.196390  -3.817113  -0.052110
    14  C    2.084473  12.916146  -3.783968   0.001275   0.406901   0.201673
    15  C   -5.000482  -3.783968  22.203838  -0.001118  -0.794536  -0.014537
    16  H    0.196390   0.001275  -0.001118   0.523609   0.109701   0.000015
    17  C   -3.817113   0.406901  -0.794536   0.109701  16.885890   0.018133
    18  H   -0.052110   0.201673  -0.014537   0.000015   0.018133   0.548978
    19  C    1.593250  -0.940980  -5.254066  -0.131860  -2.238000   0.007329
    20  C    2.641904   2.870355  -5.506691   0.019940  -5.425958   0.007410
    21  C   -0.471718   0.312517   0.385110  -0.010486   0.736672  -0.000975
    22  H   -0.080225  -0.001270  -0.015980   0.004292   0.087819   0.000002
    23  C   -0.382419  -0.612579   0.511116  -0.000579   0.117894   0.015390
    24  H    0.003527  -0.007995   0.070679   0.000002  -0.057426   0.004283
    25  H   -0.013728  -0.001859   0.019160  -0.000009   0.029001   0.000000
    26  H    0.004148  -0.003438   0.014000   0.000000   0.009720  -0.000010
    27  H    0.009321   0.084668  -0.047970  -0.004501   0.037995  -0.000155
    28  O    0.121546  -0.172786  -0.005211  -0.000302  -0.096063  -0.008742
    29  C   -0.000814   0.012273  -0.000924   0.000000   0.003044   0.000256
    30  O   -0.000002   0.000012   0.000004   0.000000   0.000017   0.000000
    31  C   -0.000066  -0.001141   0.000139   0.000000   0.000591  -0.000020
    32  H    0.000000  -0.000007   0.000000   0.000000   0.000000   0.000000
    33  H    0.000000   0.000108  -0.000001   0.000000   0.000000   0.000000
    34  H    0.000002  -0.000073   0.000001   0.000000  -0.000002   0.000000
              19         20         21         22         23         24
     1  C    0.000924   0.011785  -0.000016   0.000000   0.001699  -0.000017
     2  C   -0.000325   0.006566   0.000133   0.000001   0.000042   0.000032
     3  C    0.041492  -0.049396  -0.003295   0.000021  -0.009593   0.000170
     4  C   -0.112624   0.238657   0.008805  -0.000010  -0.031462  -0.001574
     5  C   -0.008151  -0.146583   0.002682  -0.000016   0.031759   0.001349
     6  C    0.000227   0.035834   0.001290   0.000000  -0.001790   0.000294
     7  H   -0.000002   0.000009   0.000000   0.000000   0.000000   0.000000
     8  H   -0.000656   0.010175   0.000191   0.000000   0.001402  -0.000006
     9  H   -0.000011   0.000506   0.000003   0.000000   0.000013   0.000000
    10  H   -0.000037   0.000321   0.000005   0.000000  -0.000009   0.000000
    11  C    0.522285  -0.892772  -0.600759   0.008513   0.385208   0.006461
    12  C    0.774360  -4.142466  -0.144415   0.003147  -0.196919   0.011997
    13  C    1.593250   2.641904  -0.471718  -0.080225  -0.382419   0.003527
    14  C   -0.940980   2.870355   0.312517  -0.001270  -0.612579  -0.007995
    15  C   -5.254066  -5.506691   0.385110  -0.015980   0.511116   0.070679
    16  H   -0.131860   0.019940  -0.010486   0.004292  -0.000579   0.000002
    17  C   -2.238000  -5.425958   0.736672   0.087819   0.117894  -0.057426
    18  H    0.007329   0.007410  -0.000975   0.000002   0.015390   0.004283
    19  C   12.943711   0.038248  -1.155822   0.280426  -0.263740  -0.022600
    20  C    0.038248  17.204166  -0.401980  -0.038150  -0.431654   0.244962
    21  C   -1.155822  -0.401980   6.755470   0.017297   0.578517   0.004674
    22  H    0.280426  -0.038150   0.017297   0.537206   0.015334   0.000018
    23  C   -0.263740  -0.431654   0.578517   0.015334   6.321488   0.021787
    24  H   -0.022600   0.244962   0.004674   0.000018   0.021787   0.539807
    25  H    0.008355   0.007446   0.272783  -0.004275  -0.025500  -0.000158
    26  H    0.026635  -0.009412  -0.027781  -0.000157   0.280772  -0.004261
    27  H   -0.009177   0.011607   0.001251  -0.000010  -0.000495   0.000000
    28  O    0.018015  -0.029088  -0.001347   0.000002  -0.005294   0.000008
    29  C    0.000135   0.001506  -0.000036   0.000000   0.000037   0.000001
    30  O    0.000000  -0.000002   0.000000   0.000000   0.000000   0.000000
    31  C    0.000006  -0.000083  -0.000001   0.000000   0.000003   0.000000
    32  H    0.000000   0.000000   0.000000   0.000000   0.000000   0.000000
    33  H    0.000000   0.000001   0.000000   0.000000   0.000000   0.000000
    34  H    0.000000  -0.000001   0.000000   0.000000   0.000000   0.000000
              25         26         27         28         29         30
     1  C    0.000000   0.000000   0.000183  -0.015568  -0.697690   0.181299
     2  C    0.000000   0.000000  -0.000882   0.020656  -0.595097  -0.123647
     3  C    0.000000   0.000003  -0.005887   0.082813   0.237727  -0.024596
     4  C    0.000008  -0.000010  -0.000666   0.067212  -0.438444  -0.012459
     5  C   -0.000006   0.000007   0.002648  -0.209333   0.388908  -0.001567
     6  C    0.000000  -0.000004  -0.000658  -0.020925  -0.103154  -0.083939
     7  H    0.000000   0.000000   0.000000   0.000335  -0.003661   0.000201
     8  H    0.000000   0.000000   0.000000  -0.002540   0.006213  -0.000007
     9  H    0.000000   0.000000   0.000000  -0.000467  -0.016729  -0.000700
    10  H    0.000000   0.000000   0.000044  -0.017259   0.000769  -0.000018
    11  C    0.000617  -0.000047   0.198816  -0.478887   0.005334   0.000061
    12  C    0.000071   0.001474   0.019024   0.559956  -0.041522  -0.000272
    13  C   -0.013728   0.004148   0.009321   0.121546  -0.000814  -0.000002
    14  C   -0.001859  -0.003438   0.084668  -0.172786   0.012273   0.000012
    15  C    0.019160   0.014000  -0.047970  -0.005211  -0.000924   0.000004
    16  H   -0.000009   0.000000  -0.004501  -0.000302   0.000000   0.000000
    17  C    0.029001   0.009720   0.037995  -0.096063   0.003044   0.000017
    18  H    0.000000  -0.000010  -0.000155  -0.008742   0.000256   0.000000
    19  C    0.008355   0.026635  -0.009177   0.018015   0.000135   0.000000
    20  C    0.007446  -0.009412   0.011607  -0.029088   0.001506  -0.000002
    21  C    0.272783  -0.027781   0.001251  -0.001347  -0.000036   0.000000
    22  H   -0.004275  -0.000157  -0.000010   0.000002   0.000000   0.000000
    23  C   -0.025500   0.280772  -0.000495  -0.005294   0.000037   0.000000
    24  H   -0.000158  -0.004261   0.000000   0.000008   0.000001   0.000000
    25  H    0.529574  -0.004136   0.000000   0.000000   0.000000   0.000000
    26  H   -0.004136   0.529374   0.000000   0.000000   0.000000   0.000000
    27  H    0.000000   0.000000   0.519786  -0.007026   0.000008   0.000000
    28  O    0.000000   0.000000  -0.007026   8.571497  -0.003125   0.000015
    29  C    0.000000   0.000000   0.000008  -0.003125   6.212782   0.562736
    30  O    0.000000   0.000000   0.000000   0.000015   0.562736   8.013928
    31  C    0.000000   0.000000   0.000000  -0.000424   0.185270  -0.153675
    32  H    0.000000   0.000000   0.000000   0.000000  -0.073110  -0.000380
    33  H    0.000000   0.000000   0.000000  -0.000001  -0.033418   0.000593
    34  H    0.000000   0.000000   0.000000   0.000017  -0.093355   0.006264
              31         32         33         34
     1  C   -0.286669   0.019325  -0.034711   0.049705
     2  C   -0.130517   0.006212  -0.000338   0.001435
     3  C    0.048049   0.000484  -0.002535   0.012522
     4  C   -0.022888   0.000541   0.001579  -0.001353
     5  C    0.128837  -0.003075   0.021162  -0.003915
     6  C   -0.024222  -0.004336   0.014126  -0.008865
     7  H    0.000087  -0.000029  -0.000008   0.000018
     8  H   -0.000480   0.000000   0.000000   0.000000
     9  H   -0.002649  -0.000035   0.000046   0.000037
    10  H   -0.000325   0.000000   0.000000   0.000000
    11  C    0.001248  -0.000001   0.000001  -0.000016
    12  C    0.000123   0.000012  -0.000140   0.000130
    13  C   -0.000066   0.000000   0.000000   0.000002
    14  C   -0.001141  -0.000007   0.000108  -0.000073
    15  C    0.000139   0.000000  -0.000001   0.000001
    16  H    0.000000   0.000000   0.000000   0.000000
    17  C    0.000591   0.000000   0.000000  -0.000002
    18  H   -0.000020   0.000000   0.000000   0.000000
    19  C    0.000006   0.000000   0.000000   0.000000
    20  C   -0.000083   0.000000   0.000001  -0.000001
    21  C   -0.000001   0.000000   0.000000   0.000000
    22  H    0.000000   0.000000   0.000000   0.000000
    23  C    0.000003   0.000000   0.000000   0.000000
    24  H    0.000000   0.000000   0.000000   0.000000
    25  H    0.000000   0.000000   0.000000   0.000000
    26  H    0.000000   0.000000   0.000000   0.000000
    27  H    0.000000   0.000000   0.000000   0.000000
    28  O   -0.000424   0.000000  -0.000001   0.000017
    29  C    0.185270  -0.073110  -0.033418  -0.093355
    30  O   -0.153675  -0.000380   0.000593   0.006264
    31  C    5.947522   0.402683   0.371618   0.375540
    32  H    0.402683   0.457386  -0.021691  -0.026298
    33  H    0.371618  -0.021691   0.473531  -0.023877
    34  H    0.375540  -0.026298  -0.023877   0.483327
 Mulliken charges:
               1
     1  C   -0.045256
     2  C   -0.569607
     3  C    0.142387
     4  C    0.063222
     5  C    0.165698
     6  C   -0.284193
     7  H    0.188741
     8  H    0.177251
     9  H    0.184738
    10  H    0.193212
    11  C   -0.226067
    12  C   -0.136503
    13  C    0.143500
    14  C   -0.058968
    15  C    0.331272
    16  H    0.193363
    17  C   -0.214009
    18  H    0.178068
    19  C   -0.117348
    20  C   -0.277162
    21  C   -0.258770
    22  H    0.186017
    23  C   -0.320427
    24  H    0.183987
    25  H    0.182657
    26  H    0.183122
    27  H    0.192075
    28  O   -0.367683
    29  C    0.484080
    30  O   -0.363863
    31  C   -0.838557
    32  H    0.242319
    33  H    0.233953
    34  H    0.228755
 Sum of Mulliken charges =   0.00000
 Mulliken charges with hydrogens summed into heavy atoms:
               1
     1  C   -0.045256
     2  C   -0.380866
     3  C    0.335599
     4  C    0.063222
     5  C    0.342949
     6  C   -0.099456
    11  C   -0.033992
    12  C   -0.136503
    13  C    0.336863
    14  C    0.119099
    15  C    0.331272
    17  C   -0.214009
    19  C    0.068669
    20  C   -0.093175
    21  C   -0.076112
    23  C   -0.137306
    28  O   -0.367683
    29  C    0.484080
    30  O   -0.363863
    31  C   -0.133531
 Electronic spatial extent (au):  <R**2>=           8912.9837
 Charge=              0.0000 electrons
 Dipole moment (field-independent basis, Debye):
    X=              3.7231    Y=             -0.8516    Z=              2.1966  Tot=              4.4059
 Quadrupole moment (field-independent basis, Debye-Ang):
   XX=           -127.7084   YY=           -102.5771   ZZ=           -124.3276
   XY=              4.1972   XZ=            -15.3255   YZ=              1.1974
 Traceless Quadrupole moment (field-independent basis, Debye-Ang):
   XX=             -9.5040   YY=             15.6272   ZZ=             -6.1232
   XY=              4.1972   XZ=            -15.3255   YZ=              1.1974
 Octapole moment (field-independent basis, Debye-Ang**2):
  XXX=            230.2297  YYY=              4.6063  ZZZ=              4.5990  XYY=             -4.0024
  XXY=            -12.4435  XXZ=            102.6790  XZZ=            -19.4094  YZZ=              0.2912
  YYZ=              0.6637  XYZ=              5.9023
 Hexadecapole moment (field-independent basis, Debye-Ang**3):
 XXXX=         -11571.6916 YYYY=          -1136.3072 ZZZZ=           -314.6902 XXXY=             58.9688
 XXXZ=           -590.0419 YYYX=             11.8477 YYYZ=             15.5348 ZZZX=            -22.0630
 ZZZY=             -1.2641 XXYY=          -1799.2911 XXZZ=          -2010.5598 YYZZ=           -280.1622
 XXYZ=            -10.3639 YYXZ=             -3.8293 ZZXY=             18.8621
 N-N= 1.321991088056D+03 E-N=-4.604305377523D+03  KE= 8.367586433359D+02
 Evaluate density.
 Using the total density.
 Monte-Carlo method of calculating molar volume:
 based on  0.001 e/bohr**3 density envelope.
 Number of points per bohr**3 =   20 CutOff= 1.00D-04
 Using the SCF density.
 There are       462 points.  Will hold       462 in memory.
 LenV=  4026174624 MDV=  4026531840.
 Box volume =12369.187 fraction occupied=0.177
 Integrated density= 9.4975024341953159D+01 error=-4.3024975658046841D+01
 Molar volume = 2195.397 bohr**3/mol (195.915 cm**3/mol)
 Recommended a0 for SCRF calculation =  5.20 angstrom (  9.82 bohr)
 Calling FoFJK, ICntrl=      2127 FMM=F ISym2X=0 I1Cent= 0 IOpClX= 0 NMat=1 NMatS=1 NMatT=0.
 ***** Axes restored to original set *****
 -------------------------------------------------------------------
 Center     Atomic                   Forces (Hartrees/Bohr)
 Number     Number              X              Y              Z
 -------------------------------------------------------------------
      1        6           0.000281089   -0.021544679   -0.007285343
      2        6           0.003029254    0.018079708   -0.007862474
      3        6          -0.038864692   -0.045517620   -0.025010051
      4        6           0.000052569   -0.050395548    0.019210107
      5        6          -0.002440022    0.007613501   -0.003452386
      6        6          -0.012480080    0.009341627    0.014408915
      7        1          -0.007533707   -0.005648423    0.007854564
      8        1           0.009490186    0.002449044   -0.006413248
      9        1           0.004091699   -0.004416068   -0.010338775
     10        1           0.001838221    0.004815211    0.009266788
     11        6          -0.003234420   -0.004663998    0.001326157
     12        6          -0.017580028   -0.023468744   -0.026223485
     13        6           0.003397465    0.002871166    0.000930082
     14        6           0.005059089   -0.006913276   -0.011964385
     15        6           0.002311481    0.010032134    0.006396980
     16        1          -0.001412181   -0.007236390   -0.005180631
     17        6          -0.001487739   -0.008383760   -0.004453622
     18        1          -0.000761071    0.007482034    0.007919967
     19        6          -0.002745086    0.005723960    0.007926960
     20        6          -0.001786086   -0.008763203   -0.005945392
     21        6           0.009881666    0.008968513   -0.002584829
     22        1           0.000681788   -0.005665388   -0.005845395
     23        6           0.008891769    0.002179454   -0.007638631
     24        1           0.000279612    0.006203399    0.005327821
     25        1          -0.006127075   -0.005816647    0.001376395
     26        1          -0.006317128   -0.001240047    0.005666048
     27        1          -0.009358249   -0.002414216    0.007173757
     28        8           0.058668726    0.096859012    0.031965202
     29        6          -0.042143953   -0.005081799   -0.016286849
     30        8           0.049539834    0.010594327    0.020289413
     31        6          -0.019640697    0.024765269   -0.000055645
     32        1          -0.009943082   -0.012754853   -0.001644170
     33        1           0.014336229   -0.000514338   -0.012808014
     34        1           0.012024619    0.002460636    0.013954169
 -------------------------------------------------------------------
 Cartesian Forces:  Max     0.096859012 RMS     0.018041292

 GradGradGradGradGradGradGradGradGradGradGradGradGradGradGradGradGradGrad
 Berny optimization.
 FormGI is forming the generalized inverse of G from B-inverse, IUseBI=4.
 Internal  Forces:  Max     0.062930019 RMS     0.011423044
 Search for a local minimum.
 Step number   1 out of a maximum of  186
 All quantities printed in internal units (Hartrees-Bohrs-Radians)
 Mixed Optimization -- RFO/linear search
 Second derivative matrix not updated -- first step.
 ITU=  0
     Eigenvalues ---    0.00237   0.00237   0.00237   0.01295   0.01510
     Eigenvalues ---    0.01806   0.01817   0.01818   0.01949   0.02009
     Eigenvalues ---    0.02023   0.02035   0.02070   0.02070   0.02070
     Eigenvalues ---    0.02070   0.02070   0.02070   0.02070   0.02101
     Eigenvalues ---    0.02129   0.02130   0.02159   0.02190   0.02220
     Eigenvalues ---    0.02269   0.02300   0.02716   0.03041   0.07243
     Eigenvalues ---    0.07243   0.16000   0.16000   0.16000   0.16000
     Eigenvalues ---    0.16000   0.16000   0.16000   0.16000   0.16000
     Eigenvalues ---    0.16000   0.16000   0.16000   0.16000   0.16000
     Eigenvalues ---    0.20748   0.22000   0.22000   0.22285   0.22686
     Eigenvalues ---    0.22860   0.23520   0.23714   0.24373   0.24753
     Eigenvalues ---    0.25000   0.25000   0.25000   0.25000   0.25000
     Eigenvalues ---    0.28519   0.28519   0.33644   0.33645   0.33648
     Eigenvalues ---    0.33659   0.33686   0.33688   0.37230   0.37230
     Eigenvalues ---    0.37230   0.37230   0.37230   0.37230   0.37230
     Eigenvalues ---    0.37230   0.37558   0.39677   0.40125   0.40989
     Eigenvalues ---    0.41069   0.41268   0.41474   0.42246   0.42561
     Eigenvalues ---    0.42923   0.45389   0.45389   0.45389   0.45389
     Eigenvalues ---    0.48402   0.48617   0.49809   0.49828   0.61288
     Eigenvalues ---    0.80209
 RFO step:  Lambda=-6.82984889D-02 EMin= 2.36824235D-03
 Linear search not attempted -- first point.
 Maximum step size (   0.300) exceeded in Quadratic search.
    -- Step size scaled by   0.795
 Iteration  1 RMS(Cart)=  0.20442796 RMS(Int)=  0.00925102
 Iteration  2 RMS(Cart)=  0.04368497 RMS(Int)=  0.00146204
 Iteration  3 RMS(Cart)=  0.00053178 RMS(Int)=  0.00145575
 Iteration  4 RMS(Cart)=  0.00000135 RMS(Int)=  0.00145575
 Iteration  5 RMS(Cart)=  0.00000002 RMS(Int)=  0.00145575
 Variable       Old X    -DE/DX   Delta X   Delta X   Delta X     New X
                                 (Linear)    (Quad)   (Total)
    R1        2.64826  -0.00136   0.00000  -0.00088  -0.00128   2.64698
    R2        2.64826  -0.00598   0.00000  -0.00821  -0.00849   2.63977
    R3        2.91018  -0.02004   0.00000  -0.04509  -0.04509   2.86509
    R4        2.64826  -0.00977   0.00000  -0.01458  -0.01465   2.63361
    R5        2.02201   0.01226   0.00000   0.02213   0.02213   2.04414
    R6        2.64826   0.02949   0.00000   0.04402   0.04435   2.69261
    R7        2.02201   0.00945   0.00000   0.01707   0.01707   2.03908
    R8        2.64826   0.00387   0.00000   0.00470   0.00504   2.65330
    R9        2.49935   0.06293   0.00000   0.07348   0.07348   2.57284
   R10        2.64826  -0.00165   0.00000  -0.00282  -0.00274   2.64553
   R11        2.02201   0.01113   0.00000   0.02009   0.02009   2.04209
   R12        2.02201   0.01185   0.00000   0.02139   0.02139   2.04340
   R13        2.67590  -0.00371   0.00000  -0.00618  -0.00618   2.66973
   R14        2.59524   0.00256   0.00000   0.00334   0.00333   2.59857
   R15        2.02201   0.01168   0.00000   0.02109   0.02109   2.04310
   R16        2.59422   0.00542   0.00000   0.00751   0.00753   2.60174
   R17        2.70231  -0.03507   0.00000  -0.05834  -0.05834   2.64397
   R18        2.68666   0.00286   0.00000   0.00465   0.00464   2.69130
   R19        2.07909  -0.00881   0.00000  -0.01731  -0.01731   2.06178
   R20        2.68721   0.00043   0.00000   0.00096   0.00096   2.68817
   R21        2.07933  -0.01089   0.00000  -0.02141  -0.02141   2.05792
   R22        2.68127   0.00972   0.00000   0.01604   0.01603   2.69730
   R23        2.68735   0.00135   0.00000   0.00225   0.00225   2.68960
   R24        2.68725   0.00146   0.00000   0.00244   0.00244   2.68969
   R25        2.59433   0.00465   0.00000   0.00640   0.00640   2.60073
   R26        2.07936  -0.00815   0.00000  -0.01601  -0.01601   2.06335
   R27        2.59448   0.00465   0.00000   0.00641   0.00641   2.60089
   R28        2.07928  -0.00817   0.00000  -0.01605  -0.01605   2.06323
   R29        2.67628   0.00330   0.00000   0.00513   0.00513   2.68141
   R30        2.07863  -0.00849   0.00000  -0.01667  -0.01667   2.06195
   R31        2.07860  -0.00850   0.00000  -0.01668  -0.01668   2.06192
   R32        2.37803  -0.05447   0.00000  -0.04978  -0.04978   2.32825
   R33        2.91018  -0.01294   0.00000  -0.02913  -0.02913   2.88105
   R34        2.02201   0.01603   0.00000   0.02893   0.02893   2.05094
   R35        2.02201   0.01909   0.00000   0.03446   0.03446   2.05646
   R36        2.02201   0.01821   0.00000   0.03288   0.03288   2.05489
    A1        2.09440  -0.00201   0.00000  -0.00616  -0.00659   2.08780
    A2        2.09440   0.00058   0.00000   0.00201   0.00220   2.09659
    A3        2.09440   0.00143   0.00000   0.00415   0.00434   2.09873
    A4        2.09440   0.00002   0.00000  -0.00229  -0.00244   2.09196
    A5        2.09440  -0.00031   0.00000   0.00011   0.00018   2.09458
    A6        2.09440   0.00029   0.00000   0.00218   0.00224   2.09663
    A7        2.09440   0.00917   0.00000   0.01911   0.01972   2.11412
    A8        2.09440  -0.00232   0.00000  -0.00166  -0.00195   2.09244
    A9        2.09440  -0.00685   0.00000  -0.01745  -0.01779   2.07661
   A10        2.09440  -0.01942   0.00000  -0.03252  -0.03381   2.06058
   A11        1.74418   0.06247   0.00000   0.19421   0.19418   1.93836
   A12        2.29594  -0.03593   0.00000  -0.08112  -0.08895   2.20699
   A13        2.09440   0.00564   0.00000   0.00767   0.00824   2.10263
   A14        2.09440  -0.00136   0.00000   0.00126   0.00085   2.09524
   A15        2.09440  -0.00428   0.00000  -0.00893  -0.00925   2.08515
   A16        2.09440   0.00660   0.00000   0.01419   0.01424   2.10864
   A17        2.09440  -0.00166   0.00000  -0.00138  -0.00143   2.09296
   A18        2.09440  -0.00494   0.00000  -0.01281  -0.01287   2.08153
   A19        2.10053  -0.00461   0.00000  -0.01344  -0.01342   2.08711
   A20        2.09133  -0.00059   0.00000  -0.00336  -0.00337   2.08796
   A21        2.09133   0.00520   0.00000   0.01679   0.01679   2.10812
   A22        2.10096   0.00629   0.00000   0.01546   0.01545   2.11641
   A23        2.07652  -0.01928   0.00000  -0.04806  -0.04810   2.02842
   A24        2.10570   0.01300   0.00000   0.03260   0.03255   2.13825
   A25        2.10235   0.00397   0.00000   0.01074   0.01073   2.11308
   A26        2.11010  -0.00394   0.00000  -0.01219  -0.01219   2.09791
   A27        2.07073  -0.00002   0.00000   0.00145   0.00146   2.07219
   A28        2.10330  -0.00255   0.00000  -0.00639  -0.00637   2.09693
   A29        2.10981   0.00050   0.00000   0.00050   0.00048   2.11029
   A30        2.07008   0.00205   0.00000   0.00589   0.00588   2.07596
   A31        2.08061  -0.00242   0.00000  -0.00556  -0.00557   2.07504
   A32        2.12459   0.00260   0.00000   0.00596   0.00597   2.13056
   A33        2.07798  -0.00019   0.00000  -0.00040  -0.00039   2.07759
   A34        2.07862  -0.00067   0.00000  -0.00082  -0.00082   2.07780
   A35        2.12407   0.00177   0.00000   0.00367   0.00367   2.12775
   A36        2.08050  -0.00110   0.00000  -0.00286  -0.00286   2.07764
   A37        2.10398   0.00070   0.00000   0.00202   0.00201   2.10599
   A38        2.06981   0.00026   0.00000   0.00110   0.00110   2.07091
   A39        2.10940  -0.00095   0.00000  -0.00312  -0.00312   2.10628
   A40        2.10307   0.00056   0.00000   0.00165   0.00165   2.10472
   A41        2.07068   0.00023   0.00000   0.00094   0.00094   2.07162
   A42        2.10944  -0.00079   0.00000  -0.00259  -0.00259   2.10685
   A43        2.10080  -0.00054   0.00000  -0.00173  -0.00173   2.09907
   A44        2.10573  -0.00084   0.00000  -0.00300  -0.00300   2.10273
   A45        2.07666   0.00138   0.00000   0.00473   0.00473   2.08139
   A46        2.10005   0.00057   0.00000   0.00132   0.00132   2.10137
   A47        2.10635  -0.00150   0.00000  -0.00490  -0.00490   2.10145
   A48        2.07679   0.00094   0.00000   0.00358   0.00358   2.08037
   A49        2.41435  -0.04503   0.00000  -0.11253  -0.11253   2.30182
   A50        2.09836   0.00065   0.00000   0.00162   0.00162   2.09997
   A51        2.09241  -0.00761   0.00000  -0.01901  -0.01901   2.07341
   A52        2.09241   0.00696   0.00000   0.01739   0.01739   2.10980
   A53        1.91063  -0.00223   0.00000  -0.00639  -0.00640   1.90423
   A54        1.91063  -0.00007   0.00000  -0.00215  -0.00215   1.90849
   A55        1.91063   0.00279   0.00000   0.01024   0.01024   1.92087
   A56        1.91063   0.00056   0.00000   0.00095   0.00093   1.91157
   A57        1.91063   0.00189   0.00000   0.01036   0.01035   1.92098
   A58        1.91063  -0.00294   0.00000  -0.01301  -0.01300   1.89764
    D1        0.00000  -0.00299   0.00000  -0.01903  -0.01837  -0.01837
    D2       -3.14159  -0.00037   0.00000  -0.01034  -0.01147   3.13012
    D3       -3.14159  -0.00176   0.00000  -0.00781  -0.00692   3.13468
    D4        0.00000   0.00086   0.00000   0.00089  -0.00002  -0.00001
    D5        0.00000   0.00033   0.00000   0.01044   0.01150   0.01150
    D6        3.14159   0.00354   0.00000   0.02344   0.02316  -3.11844
    D7        3.14159  -0.00090   0.00000  -0.00079   0.00003  -3.14157
    D8        0.00000   0.00230   0.00000   0.01221   0.01169   0.01168
    D9        1.34320  -0.00215   0.00000  -0.02288  -0.02303   1.32017
   D10       -1.79839  -0.00214   0.00000  -0.02273  -0.02289  -1.82128
   D11       -1.79839  -0.00092   0.00000  -0.01165  -0.01150  -1.80989
   D12        1.34320  -0.00090   0.00000  -0.01151  -0.01136   1.33184
   D13        0.00000   0.00146   0.00000  -0.00081  -0.00295  -0.00295
   D14       -3.14159   0.00414   0.00000   0.00753   0.00405  -3.13754
   D15        3.14159  -0.00117   0.00000  -0.00951  -0.00986   3.13173
   D16        0.00000   0.00152   0.00000  -0.00117  -0.00285  -0.00286
   D17        0.00000   0.00274   0.00000   0.02926   0.03069   0.03068
   D18       -2.64376   0.00084   0.00000  -0.07264  -0.08207  -2.72584
   D19        3.14159   0.00006   0.00000   0.02092   0.02374  -3.11785
   D20        0.49783  -0.00184   0.00000  -0.08098  -0.08901   0.40882
   D21        0.00000  -0.00540   0.00000  -0.03786  -0.03748  -0.03748
   D22       -3.14159  -0.00945   0.00000  -0.05929  -0.05715   3.08445
   D23        2.46199   0.03200   0.00000   0.19920   0.19120   2.65319
   D24       -0.67960   0.02795   0.00000   0.17777   0.17153  -0.50807
   D25       -3.01645   0.00820   0.00000   0.08138   0.08198  -2.93447
   D26        0.71059  -0.00780   0.00000  -0.07812  -0.07872   0.63186
   D27        0.00000   0.00386   0.00000   0.01801   0.01712   0.01712
   D28       -3.14159   0.00066   0.00000   0.00500   0.00554  -3.13605
[...]
 ,-0.00016838,0.00000557,0.00016295,-0.00004888,-0.00001802,-0.00014634
 ,0.00023415,-0.00015285,-0.00007402,-0.00004232,0.00005094,-0.00024773
 ,0.00012326,-0.00012361,0.00023615,-0.00010425,0.00020410,0.00011251,-
 0.00006168,-0.00005243,0.00005022,-0.00002712,0.00005452,0.00008866,-0
 .00007830,0.00000050,-0.00005159,0.00003241,0.00004443,0.00006596,-0.0
 0003028,0.00008468,0.00003179,-0.00002107,0.00016483,-0.00024755,-0.00
 003110,0.00749924,0.00747741,0.00227053,0.25677638,0.51508846,-0.03057
 417,-0.04140124,-0.13713949,-0.02290246,-0.02815104,-0.00973335,0.0010
 0934,0.00030435,-0.00782213,-0.00056754,-0.00063274,-0.00504569,0.0049
 3678,0.00504517,-0.00037093,0.00837401,0.01165347,0.01727572,-0.000178
 44,-0.00012182,-0.00191985,0.00094741,0.00106129,0.00062062,0.00084246
 ,0.00126312,-0.00146605,-0.00101351,-0.00130817,-0.00047197,0.00012275
 ,0.00035567,-0.00023306,-0.00101038,-0.00166180,0.00111373,-0.00013110
 ,-0.00012400,0.00007466,0.00008247,0.00025784,-0.00011802,0.00007510,0
 .00009526,-0.00008699,-0.00000159,0.00009057,-0.00000037,-0.00002674,-
 0.00006946,0.00009184,-0.00006734,-0.00002580,-0.00000887,0.00001952,-
 0.00012267,0.00005082,-0.00005165,0.00008813,-0.00005247,0.00009693,0.
 00004510,-0.00003767,-0.00002525,0.00003282,-0.00000261,0.00003171,0.0
 0004012,-0.00004256,-0.00000125,-0.00001649,0.00002197,0.00002136,0.00
 003379,-0.00000647,0.00003542,0.00001753,-0.00000143,0.00008175,-0.000
 12016,0.00001249,0.00269540,0.00320085,0.00104563,-0.14206192,-0.13179
 892,0.66653288,-0.02116669,-0.04595305,0.01442748,0.00031119,0.0007590
 5,0.00591147,-0.00148387,-0.00141592,0.00058967,0.00203207,0.00240510,
 0.00293342,-0.00297520,-0.00164678,-0.00187537,0.00329382,-0.00097586,
 -0.00632431,-0.00082341,-0.00071748,-0.00114492,-0.00067143,-0.0002250
 5,-0.00021399,0.00053451,-0.00018441,0.00039813,-0.00000769,-0.0001656
 0,-0.00019072,-0.00021582,-0.00039667,0.00021222,0.00118355,0.00181670
 ,-0.00120984,0.00013597,0.00008055,-0.00007447,-0.00010195,-0.00033258
 ,0.00014707,-0.00004933,-0.00008972,0.00008007,-0.00000650,-0.00007844
 ,0.00003510,0.00003409,0.00009943,-0.00010760,0.00007598,0.00003882,0.
 00002913,-0.00003235,0.00011274,-0.00006628,0.00004965,-0.00011687,0.0
 0005182,-0.00008714,-0.00005518,0.00002689,0.00002661,-0.00002290,0.00
 001798,-0.00002655,-0.00003637,0.00002569,0.00000227,0.00002750,-0.000
 00916,-0.00002220,-0.00003154,0.00001883,-0.00004126,-0.00001327,0.000
 01218,-0.00008434,0.00013633,0.00002975,-0.00305664,-0.00362236,-0.001
 16281,-0.24614395,-0.19603382,0.19598645,0.25535804,-0.04643510,-0.035
 01630,0.01751510,0.00009860,0.00072542,0.00624326,-0.00104443,-0.00203
 024,0.00095408,0.00255728,0.00258260,0.00351764,-0.00180070,-0.0036130
 2,-0.00201895,-0.00051571,0.00236370,-0.00787392,-0.00079128,-0.001247
 58,-0.00117145,-0.00022925,-0.00071605,-0.00020971,-0.00018666,0.00038
 477,0.00045257,-0.00013333,-0.00005577,-0.00022219,-0.00020197,-0.0005
 0159,0.00023571,0.00125569,0.00211183,-0.00140189,0.00017073,0.0001295
 7,-0.00011198,-0.00008352,-0.00037301,0.00019511,-0.00008612,-0.000101
 97,0.00010219,-0.00000249,-0.00008404,0.00003234,0.00001559,0.00009025
 ,-0.00012935,0.00008039,0.00004321,0.00003130,-0.00003090,0.00014420,-
 0.00008422,0.00007857,-0.00013885,0.00006023,-0.00012000,-0.00006262,0
 .00003281,0.00003159,-0.00002530,0.00001865,-0.00003179,-0.00005544,0.
 00004178,-0.00000204,0.00003361,-0.00001615,-0.00002675,-0.00003830,0.
 00002077,-0.00005137,-0.00001813,0.00001428,-0.00010354,0.00015484,0.0
 0003964,-0.00371210,-0.00407022,-0.00132334,-0.19666856,-0.28312560,0.
 21106034,0.25505372,0.30744809,0.01021077,0.01246163,0.02318716,-0.002
 24690,-0.00341605,-0.00923844,0.00124577,0.00192897,0.00235660,-0.0015
 1101,-0.00161535,-0.00024082,-0.00022518,-0.00012082,0.00183168,-0.002
 57566,-0.00337489,-0.00019930,-0.00149480,-0.00163253,0.00208355,-0.00
 006455,-0.00004037,-0.00006404,-0.00046800,-0.00052375,0.00047308,0.00
 022543,0.00027753,0.00014741,0.00008423,0.00010411,-0.00002701,-0.0003
 5012,-0.00037937,0.00025866,-0.00004324,0.00000053,0.00001051,-0.00000
 227,0.00005342,-0.00005507,0.00001443,0.00000627,-0.00001280,0.0000048
 9,0.00000654,-0.00001810,0.00000715,-0.00000102,0.00002446,-0.00001255
 ,-0.00001293,-0.00001515,0.00000399,-0.00001516,0.00001965,-0.00001821
 ,0.00002892,-0.00000159,0.00001712,0.00001064,0.00000156,-0.00000339,-
 0.00000254,-0.00000906,-0.00000056,0.00001182,-0.00000250,0.00000174,-
 0.00000924,-0.00000352,0.00000307,0.00000227,-0.00000735,0.00000829,0.
 00000024,-0.00000758,0.00001131,-0.00001903,-0.00003261,0.00099748,0.0
 0089546,0.00073264,0.18864324,0.20228410,-0.32764533,-0.22585481,-0.24
 034439,0.35864010,0.01028457,-0.00715068,-0.01684330,-0.00128296,-0.00
 408006,-0.00044215,-0.00011092,0.00057702,-0.00131777,0.00031093,0.000
 00691,0.00007852,-0.00072035,0.00082155,-0.00019559,-0.00133091,-0.000
 37134,-0.00063026,0.00004150,-0.00009990,-0.00016898,-0.00002722,-0.00
 002256,0.00000875,0.00031869,-0.00158198,-0.00078217,-0.00039167,-0.00
 006604,-0.00014573,-0.00000870,-0.00003010,0.00001468,0.00008385,0.000
 16275,-0.00007645,0.00000434,0.00000574,-0.00000925,-0.00001748,-0.000
 03960,0.00001036,0.00000277,-0.00001298,-0.00000562,-0.00000056,-0.000
 00304,0.00000390,0.00000418,0.00002069,-0.00000710,0.00000390,0.000000
 22,-0.00000250,-0.00000545,0.00001226,-0.00000047,0.00000269,-0.000011
 83,0.00000932,-0.00000647,-0.00000727,0.00000325,0.00000231,-0.0000011
 5,0.00000093,-0.00000468,-0.00000026,0.00000267,-0.00000177,0.00000212
 ,-0.00000371,-0.00000200,-0.00000318,0.00000116,-0.00000458,-0.0000025
 1,0.00000018,-0.00000911,0.00001974,0.00000357,-0.00009562,-0.00031917
 ,-0.00003189,-0.09007985,-0.00412931,-0.01990909,0.01373418,-0.0108767
 4,0.03123357,0.56229079,-0.00597442,0.00621490,-0.02195720,-0.00405684
 ,-0.00275865,-0.00057724,0.00068872,0.00003262,-0.00150184,0.00001424,
 0.00028897,0.00004605,0.00082336,-0.00047743,-0.00011038,-0.00035424,-
 0.00153952,-0.00084501,-0.00005561,0.00002902,-0.00017189,-0.00002782,
 -0.00003266,0.00000850,-0.00152816,-0.00031057,-0.00106989,-0.00004903
 ,-0.00042509,-0.00013251,-0.00002155,-0.00004906,0.00003416,0.00011554
 ,0.00025428,-0.00012906,0.00001411,0.00001635,-0.00001906,-0.00000873,
 -0.00005409,0.00000939,-0.00001040,-0.00001876,0.00001447,-0.00000016,
 -0.00001591,0.00000150,0.00000695,0.00001651,-0.00001429,0.00001123,0.
 00000533,0.00000667,-0.00000358,0.00001858,-0.00000485,0.00000684,-0.0
 0001607,0.00000418,-0.00001221,-0.00000776,0.00000270,0.00000390,-0.00
 000598,0.00000098,-0.00000407,-0.00000294,0.00000679,0.00000168,0.0000
 0261,-0.00000154,-0.00000339,-0.00000465,0.00000148,-0.00000471,-0.000
 00203,0.00000076,-0.00001426,0.00001955,-0.00000710,-0.00032985,-0.000
 28568,-0.00001255,-0.00391506,-0.09515819,-0.03044913,-0.01204772,0.01
 336014,0.03139865,0.03864032,0.57431038,-0.00302020,-0.00565551,-0.009
 68123,0.00034306,0.00042899,0.00236884,-0.00071424,-0.00085251,0.00020
 125,0.00089592,0.00085833,-0.00014934,-0.00008352,0.00002963,-0.000358
 46,-0.00057864,-0.00071406,-0.00149716,0.00017433,0.00022865,0.0003345
 3,-0.00003304,-0.00001899,0.00003649,-0.00033370,-0.00054004,-0.000197
 01,-0.00002621,0.00000026,0.00002353,-0.00004051,-0.00010791,0.0000810
 1,0.00034719,0.00056326,-0.00037502,0.00003385,0.00002594,-0.00001631,
 -0.00004913,-0.00010500,0.00004967,-0.00001069,-0.00003141,0.00002398,
 0.00000079,-0.00002616,0.00000434,0.00001192,0.00003499,-0.00003526,0.
 00002355,0.00000950,0.00000105,-0.00001175,0.00003547,-0.00001457,0.00
 001061,-0.00003313,0.00002126,-0.00002600,-0.00001718,0.00001323,0.000
 00900,-0.00001037,0.00000136,-0.00001132,-0.00000751,0.00001069,0.0000
 0089,0.00000622,-0.00000702,-0.00000736,-0.00001195,0.00000283,-0.0000
 1276,-0.00000591,0.00000056,-0.00002267,0.00003938,-0.00000510,-0.0009
 4784,-0.00106376,-0.00016571,-0.01668275,-0.02658617,-0.16947051,0.016
 77528,0.01427386,-0.04275761,-0.00493080,-0.01161221,0.46109483,0.0010
 3015,-0.00044611,-0.00012644,0.00018583,-0.00023267,0.00017282,-0.0001
 0786,0.00006411,-0.00007898,0.00009309,0.00007987,0.00005245,0.0001305
 9,-0.00004835,-0.00009166,0.00016695,0.00003301,0.00021562,0.00005816,
 -0.00002007,-0.00003421,-0.00000450,-0.00000498,0.00000441,-0.00016621
 ,0.00028579,-0.00019129,-0.00003981,0.00001077,-0.00001043,-0.00000906
 ,-0.00002056,0.00000963,0.00005707,0.00008847,-0.00005157,0.00000586,0
 .00000493,-0.00000607,-0.00000512,-0.00001956,0.00000446,-0.00000186,-
 0.00000442,0.00000445,0.00000004,-0.00000365,0.00000155,0.00000351,0.0
 0000652,-0.00000796,0.00000411,0.00000211,0.00000236,-0.00000229,0.000
 00688,-0.00000313,0.00000245,-0.00000655,0.00000417,-0.00000474,-0.000
 00311,0.00000138,0.00000168,-0.00000126,0.00000079,-0.00000157,-0.0000
 0166,0.00000119,0.00000022,0.00000181,-0.00000058,-0.00000135,-0.00000
 216,0.00000114,-0.00000275,-0.00000091,0.00000058,-0.00000520,0.000008
 42,0.00000109,-0.00014196,-0.00012975,-0.00004234,-0.00197113,-0.00115
 509,0.00059423,0.00038649,0.00178266,0.00092507,-0.15700243,-0.1307924
 9,-0.03512326,0.16481164,-0.00031934,0.00093626,-0.00076154,-0.0003449
 9,0.00000370,0.00017392,0.00008383,-0.00009631,-0.00012138,0.00011258,
 0.00014201,0.00006635,-0.00005318,0.00009452,-0.00010584,0.00008247,0.
 00027184,0.00018199,-0.00001709,0.00005036,-0.00004584,-0.00000973,-0.
 00000639,0.00000369,0.00029293,-0.00008710,-0.00014905,0.00000451,-0.0
 0004688,-0.00001246,-0.00000888,-0.00002736,0.00000999,0.00006129,0.00
 011708,-0.00007450,0.00000639,0.00000871,-0.00000768,-0.00000874,-0.00
 002465,0.00000851,-0.00000172,-0.00000565,0.00000672,0.00000013,-0.000
 00362,0.00000282,0.00000413,0.00000863,-0.00000874,0.00000471,0.000002
 77,0.00000271,-0.00000323,0.00000811,-0.00000644,0.00000293,-0.0000084
 5,0.00000445,-0.00000597,-0.00000384,0.00000275,0.00000231,-0.00000159
 ,0.00000127,-0.00000223,-0.00000237,0.00000137,0.00000012,0.00000202,-
 0.00000088,-0.00000191,-0.00000272,0.00000148,-0.00000334,-0.00000103,
 0.00000069,-0.00000676,0.00001127,0.00000448,-0.00014614,-0.00021359,-
 0.00004027,-0.00319405,-0.00474717,0.00004758,0.00176566,0.00117742,0.
 00149340,-0.13050558,-0.20842892,-0.04244978,0.14286506,0.22115006,0.0
 0129026,0.00093490,-0.00591616,-0.00111646,-0.00135847,0.00001342,0.00
 000263,-0.00002998,-0.00051539,0.00022266,0.00022984,-0.00002481,-0.00
 010117,-0.00009134,0.00031681,0.00077404,0.00083488,-0.00078589,0.0000
 0897,0.00000492,-0.00000228,-0.00003115,-0.00003560,-0.00001646,-0.000
 03593,0.00003803,0.00055160,-0.00009615,-0.00011809,-0.00006257,-0.000
 00749,-0.00001679,0.00001777,0.00005505,0.00009268,-0.00006795,0.00000
 630,0.00000231,-0.00000233,-0.00000730,-0.00001781,0.00001186,-0.00000
 348,-0.00000478,0.00000568,-0.00000030,-0.00000546,0.00000050,-0.00000
 043,0.00000410,-0.00000519,0.00000384,0.00000139,-0.00000062,-0.000001
 03,0.00000506,-0.00000240,0.00000201,-0.00000491,0.00000335,-0.0000043
 3,-0.00000291,0.00000185,0.00000092,-0.00000159,0.00000028,-0.00000152
 ,-0.00000152,0.00000173,-0.00000002,0.00000076,-0.00000118,-0.00000084
 ,-0.00000123,0.00000031,-0.00000151,-0.00000088,0.00000028,-0.00000340
 ,0.00000573,-0.00000351,-0.00016994,-0.00018637,0.00001949,-0.02389648
 ,-0.02911052,-0.00895700,0.00074886,0.00128718,0.00369743,-0.03172629,
 -0.03840914,-0.05729103,0.03676088,0.04510885,0.06370359,-0.00017737,-
 0.00067927,-0.00072333,0.00009487,-0.00001518,0.00037140,-0.00019052,-
 0.00014396,0.00011536,0.00011106,0.00012744,-0.00015834,-0.00009206,-0
 .00002713,0.00036462,0.00026402,0.00001292,-0.00111144,0.00002613,0.00
 000888,0.00007404,-0.00000868,-0.00001705,-0.00001803,-0.00130642,-0.0
 0062199,-0.00015505,-0.00001232,-0.00000067,0.00000655,0.00000623,0.00
 001063,0.00000879,0.00000073,-0.00001651,-0.00000556,-0.00000009,-0.00
 000413,0.00001261,-0.00000325,0.00001294,0.00000720,-0.00000217,0.0000
 0185,0.00000207,0.00000063,-0.00000250,-0.00000420,-0.00000371,-0.0000
 0739,0.,-0.00000028,-0.00000121,-0.00000380,0.00000223,-0.00000384,0.0
 0000235,-0.00000230,0.00000484,-0.00000159,0.00000122,0.00000170,0.000
 00193,-0.00000085,-0.00000112,-0.00000212,0.00000055,0.00000066,0.0000
 0089,0.00000026,-0.00000180,-0.00000074,0.00000083,0.00000066,-0.00000
 188,0.00000185,0.,-0.00000121,0.00000615,-0.00000781,-0.00000967,-0.00
 003615,-0.00002170,0.00004550,-0.00103350,0.00031002,0.00245639,-0.000
 56556,0.00052867,0.00098255,-0.07270888,0.06983343,-0.04219687,0.00855
 018,-0.01645244,0.01084837,0.07683603,0.00003616,-0.00113292,-0.000101
 88,0.00040356,0.00032626,0.00052841,-0.00031687,-0.00027943,0.00006724
 ,0.00012914,0.00012666,-0.00025929,-0.00013175,0.00034633,-0.00011556,
 -0.00098923,-0.00046005,-0.00013998,-0.00002296,-0.00002017,-0.0000355
 7,0.00001290,0.00000908,0.00001657,-0.00060436,-0.00056063,-0.00081178
 ,-0.00000472,0.00002730,0.00000993,-0.00000684,-0.00000201,0.00000606,
 0.00001899,0.00002974,-0.00002959,0.00000234,-0.00000065,0.00000360,-0
 .00000210,-0.00000574,0.00000707,-0.00000050,0.00000121,0.00000345,-0.
 00000052,-0.00000058,0.00000089,-0.00000132,0.00000096,-0.00000328,0.0
 0000048,0.00000049,-0.00000051,0.00000014,-0.00000142,-0.00000337,0.00
 000096,-0.00000215,0.00000103,-0.00000045,-0.00000081,0.00000125,-0.00
 000023,0.00000041,0.00000029,0.00000055,-0.00000010,0.,-0.00000046,0.0
 0000037,-0.00000060,0.00000015,0.00000020,0.00000019,-0.00000045,-0.00
 000034,0.00000025,0.00000081,-0.00000149,-0.00000314,-0.00002970,-0.00
 013167,-0.00002980,-0.00410575,0.00557858,-0.00075264,0.00152589,0.000
 49422,-0.00000971,0.07098474,-0.22809328,0.09701299,0.00977891,-0.0178
 6900,0.01043262,-0.07818502,0.24741830,0.00115822,-0.00230006,-0.00019
 816,0.00046351,-0.00033048,0.00003012,-0.00019043,0.00010873,0.0001427
 9,0.00006820,-0.00001158,0.00018289,-0.00034554,-0.00015264,-0.0001577
 2,0.00014405,-0.00019744,-0.00004265,0.00008951,0.00007177,0.00014200,
 -0.00000725,-0.00000516,-0.00000115,-0.00064694,-0.00036164,0.00010209
 ,-0.00006202,0.00005182,-0.00001564,-0.00001194,-0.00000138,0.00000662
 ,0.00001380,0.00002189,-0.00002234,0.00000413,-0.00000297,0.00000503,0
 .00000184,0.00000147,0.00001105,-0.00000296,-0.00000021,0.00000167,-0.
 00000173,-0.00000356,0.00000043,-0.00000241,-0.00000449,-0.00000044,0.
 00000183,0.00000024,-0.00000098,0.00000174,-0.00000118,-0.00000037,0.0
 0000025,0.00000066,-0.00000154,0.00000032,0.00000055,-0.00000051,-0.00
 000069,-0.00000016,0.00000036,0.00000127,-0.00000040,0.00000009,0.0000
 0047,-0.00000047,0.00000040,0.00000051,0.00000086,-0.00000014,0.000000
 91,0.00000027,0.00000021,0.00000049,-0.00000422,-0.00000688,-0.0000577
 1,-0.00007377,-0.00003600,-0.01041136,0.03150673,-0.00955376,0.0030063
 9,-0.00329865,-0.00630797,-0.04431649,0.10057925,-0.10080767,0.0034458
 3,-0.00587509,0.00309126,0.04387347,-0.10855349,0.10676913,-0.00078450
 ,-0.00016301,0.00000502,0.00024081,0.00041793,0.00043151,-0.00019508,-
 0.00029459,0.00003999,0.00010192,0.00005814,-0.00026280,0.00038023,-0.
 00002129,-0.00010554,-0.00027201,-0.00109849,0.00007525,-0.00001609,-0
 .00004139,-0.00005621,0.00000599,0.00001579,0.00001857,-0.00028780,-0.
 00043142,-0.00076381,0.00002129,0.00000725,0.00001104,-0.00000754,-0.0
 0000347,0.00000611,0.00003223,0.00003205,-0.00001896,0.00000130,-0.000
 00145,-0.00000154,-0.00000259,-0.00001112,-0.00000007,0.00000152,-0.00
 000070,0.00000301,-0.00000097,-0.00000200,0.00000191,0.00000079,0.0000
 0334,-0.00000137,0.00000165,0.00000085,0.00000098,-0.00000090,0.000000
 10,-0.00000214,-0.00000051,-0.00000180,0.00000109,0.00000057,-0.000000
 83,-0.00000014,0.00000012,-0.00000010,0.00000096,-0.00000009,0.0000002
 1,-0.00000143,0.00000031,0.00000033,0.00000072,-0.00000020,0.00000018,
 0.00000066,-0.00000007,0.00000026,0.00000067,-0.00000132,0.00000295,-0
 .00000091,-0.00011943,-0.00000719,-0.00003463,0.00333686,-0.00248145,0
 .00011296,0.00040345,0.00148084,0.00025113,-0.26327309,0.04905398,0.08
 623688,-0.01602017,0.00579625,0.00648044,-0.00975885,0.00150752,0.0037
 8070,0.28621216,-0.00092496,-0.00030701,-0.00079724,-0.00005942,0.0002
 2861,0.00043369,-0.00012529,-0.00027861,0.00014706,0.00015808,0.000114
 28,-0.00019877,-0.00000170,-0.00008847,0.00034523,-0.00000295,-0.00000
 748,-0.00113888,-0.00000147,0.00003534,0.00007513,-0.00001451,-0.00000
 986,-0.00001457,-0.00046551,-0.00155556,-0.00021680,0.00001024,-0.0000
 1561,0.00000969,0.00000761,0.00000877,0.00000586,0.00000774,-0.0000143
 0,-0.00000704,-0.00000060,-0.00000359,0.00001310,-0.00000535,0.0000083
 7,0.00000326,0.00000004,-0.00000023,-0.00000246,0.00000037,-0.00000148
 ,-0.00000312,-0.00000413,-0.00000385,0.00000492,-0.00000072,-0.0000014
 8,-0.00000503,0.00000139,-0.00000376,0.00000291,-0.00000274,0.00000491
 ,-0.00000013,0.00000173,0.00000145,0.00000183,-0.00000087,-0.00000073,
 -0.00000171,-0.00000003,0.00000054,0.,-0.00000006,-0.00000190,-0.00000
 098,0.00000074,0.00000080,-0.00000175,0.00000187,0.00000004,-0.0000011
 3,0.00000499,-0.00000564,-0.00000547,-0.00007684,-0.00000883,0.0000456
 6,0.00367850,-0.00169209,0.00206306,0.00034011,0.00003018,0.00055263,0
 .04806126,-0.05688200,-0.02369793,-0.02212597,0.00759188,0.01041417,0.
 02535610,-0.00579765,-0.01116520,-0.05381767,0.05865498,-0.00244753,0.
 00074926,-0.00038962,-0.00039417,0.00041312,-0.00003918,0.00015283,-0.
 00015317,0.00016391,-0.00003760,0.00005161,0.00016408,-0.00007020,-0.0
 0037145,-0.00017550,-0.00022719,0.00001875,0.00000500,0.00004654,0.000
 10912,0.00013159,-0.00000224,-0.00000589,0.00000270,-0.00024273,-0.000
 63888,0.00008828,0.00006305,-0.00005013,-0.00000440,-0.00000294,-0.000
 00626,0.00000077,0.00001100,0.00001048,-0.00001617,0.00000354,0.000000
 98,0.00000239,0.00000419,-0.00000156,0.00000351,-0.00000303,-0.0000019
 9,-0.00000331,-0.00000077,-0.00000028,-0.00000008,-0.00000538,-0.00000
 157,0.00000565,-0.00000090,-0.00000116,-0.00000273,0.00000094,0.000001
 15,0.00000149,0.00000315,-0.00000077,-0.00000047,-0.00000147,-0.000000
 54,-0.00000176,-0.00000053,0.00000065,0.00000020,0.00000031,-0.0000011
 3,0.00000166,-0.00000088,-0.00000014,-0.00000070,0.00000023,0.00000070
 ,-0.00000012,0.00000018,-0.00000015,0.00000033,0.00000023,-0.00000177,
 -0.00000081,-0.00007033,-0.00004953,-0.00002088,0.03370302,-0.00549098
 ,-0.00665377,-0.00322961,0.00207737,-0.00681863,0.09017478,-0.02509061
 ,-0.08144044,-0.00643621,0.00253648,0.00221755,-0.01478027,0.00275834,
 0.00666777,-0.09621002,0.02313999,0.08611168\\0.00000235,-0.00000295,-
 0.00000847,0.00000133,0.00000455,0.00000225,-0.00000184,-0.00000303,-0
 .00000006,0.00000389,0.00000504,0.00000096,0.00000114,-0.00000089,0.00
 000012,-0.00000405,-0.00000253,0.00000346,-0.00000076,0.00000009,0.000
 00055,-0.00000153,-0.00000032,-0.00000126,-0.00000016,-0.00000066,-0.0
 0000250,0.00000028,0.00000127,0.00000061,0.00000047,-0.00000636,0.0000
 0260,-0.00000331,0.00000435,-0.00000105,0.00000569,0.00000487,-0.00000
 295,0.00000590,0.00000426,-0.00000032,-0.00000736,-0.00000133,0.000000
 34,-0.00000005,-0.00000036,0.00000003,-0.00000169,-0.00000576,0.000003
 19,-0.00000280,-0.00000115,-0.00000051,0.00000373,0.00000231,-0.000001
 34,0.00000294,0.00000236,-0.00000126,-0.00000335,0.00000169,-0.0000006
 9,0.00000018,-0.00000043,0.00000016,0.00000105,-0.00000320,0.00000282,
 -0.00000081,0.00000002,0.00000067,0.00000033,-0.00000055,0.00000042,-0
 .00000043,0.00000015,0.00000047,-0.00000028,0.00000032,-0.00000064,-0.
 00000514,-0.00000566,0.00000055,-0.00000430,-0.00000302,0.00000418,0.0
 0000353,0.00000569,-0.00000253,0.00000673,-0.00000241,0.00000152,-0.00
 000149,0.00000076,-0.00000066,-0.00000106,0.00000130,-0.00000002,0.000
 00087,0.00000161,-0.00000063\\\@


 IT IS BY LOGIC THAT WE PROVE, BUT BY INTUITION THAT WE DISCOVER.
     -- J.H.POINCARE (1854-1912)
 Job cpu time:       0 days  5 hours  3 minutes  0.5 seconds.
 Elapsed time:       0 days  0 hours 10 minutes  6.1 seconds.
 File lengths (MBytes):  RWF=    591 Int=      0 D2E=      0 Chk=     16 Scr=      1
 Normal termination of Gaussian 16 at Fri Sep 15 13:04:02 2023.
