 Entering Gaussian System, Link 0=/home/ubuntu/g16/g16
 Input=/home/ubuntu/ML products/molecule_100.gjf
 Output=/home/ubuntu/ML products/molecule_100.log
 Initial command:
 /home/ubuntu/g16/l1.exe "/home/ubuntu/Scratch/Gau-256303.inp" -scrdir="/home/ubuntu/Scratch/"
 Entering Link 1 = /home/ubuntu/g16/l1.exe PID=    256305.
  
 Copyright (c) 1988-2017, Gaussian, Inc.  All Rights Reserved.
  
 This is part of the Gaussian(R) 16 program.  It is based on
 the Gaussian(R) 09 system (copyright 2009, Gaussian, Inc.),
 the Gaussian(R) 03 system (copyright 2003, Gaussian, Inc.),
 the Gaussian(R) 98 system (copyright 1998, Gaussian, Inc.),
 the Gaussian(R) 94 system (copyright 1995, Gaussian, Inc.),
 the Gaussian 92(TM) system (copyright 1992, Gaussian, Inc.),
 the Gaussian 90(TM) system (copyright 1990, Gaussian, Inc.),
 the Gaussian 88(TM) system (copyright 1988, Gaussian, Inc.),
 the Gaussian 86(TM) system (copyright 1986, Carnegie Mellon
 University), and the Gaussian 82(TM) system (copyright 1983,
 Carnegie Mellon University). Gaussian is a federally registered
 trademark of Gaussian, Inc.
  
 This software contains proprietary and confidential information,
 including trade secrets, belonging to Gaussian, Inc.
  
 This software is provided under written license and may be
 used, copied, transmitted, or stored only in accord with that
 written license.
  
 The following legend is applicable only to US Government
 contracts under FAR:
  
                    RESTRICTED RIGHTS LEGEND
  
 Use, reproduction and disclosure by the US Government is
 subject to restrictions as set forth in subparagraphs (a)
 and (c) of the Commercial Computer Software - Restricted
 Rights clause in FAR 52.227-19.
  
 Gaussian, Inc.
 340 Quinnipiac St., Bldg. 40, Wallingford CT 06492
  
  
 ---------------------------------------------------------------
 Warning -- This program may not be used in any manner that
 competes with the business of Gaussian, Inc. or will provide
 assistance to any competitor of Gaussian, Inc.  The licensee
 of this program is prohibited from giving any competitor of
 Gaussian, Inc. access to this program.  By using this program,
 the user acknowledges that Gaussian, Inc. is engaged in the
 business of creating and licensing software in the field of
 computational chemistry and represents and warrants to the
 licensee that it is not a competitor of Gaussian, Inc. and that
 it will not use this program in any manner prohibited above.
 ---------------------------------------------------------------
  

 Cite this work as:
 Gaussian 16, Revision B.01,
 M. J. Frisch, G. W. Trucks, H. B. Schlegel, G. E. Scuseria, 
 M. A. Robb, J. R. Cheeseman, G. Scalmani, V. Barone, 
 G. A. Petersson, H. Nakatsuji, X. Li, M. Caricato, A. V. Marenich, 
 J. Bloino, B. G. Janesko, R. Gomperts, B. Mennucci, H. P. Hratchian, 
 J. V. Ortiz, A. F. Izmaylov, J. L. Sonnenberg, D. Williams-Young, 
 F. Ding, F. Lipparini, F. Egidi, J. Goings, B. Peng, A. Petrone, 
 T. Henderson, D. Ranasinghe, V. G. Zakrzewski, J. Gao, N. Rega, 
 G. Zheng, W. Liang, M. Hada, M. Ehara, K. Toyota, R. Fukuda, 
 J. Hasegawa, M. Ishida, T. Nakajima, Y. Honda, O. Kitao, H. Nakai, 
 T. Vreven, K. Throssell, J. A. Montgomery, Jr., J. E. Peralta, 
 F. Ogliaro, M. J. Bearpark, J. J. Heyd, E. N. Brothers, K. N. Kudin, 
 V. N. Staroverov, T. A. Keith, R. Kobayashi, J. Normand, 
 K. Raghavachari, A. P. Rendell, J. C. Burant, S. S. Iyengar, 
 J. Tomasi, M. Cossi, J. M. Millam, M. Klene, C. Adamo, R. Cammi, 
 J. W. Ochterski, R. L. Martin, K. Morokuma, O. Farkas, 
 J. B. Foresman, and D. J. Fox, Gaussian, Inc., Wallingford CT, 2016.
 
 ******************************************
 Gaussian 16:  EM64L-G16RevB.01 20-Dec-2017
                15-Sep-2023 
 ******************************************
 %nprocshared=30
 Will use up to   30 processors via shared memory.
 %mem=30GB
 %chk=molecule_100.chk
 ----------------------------------------------------------------------
 # opt freq b3lyp/6-31+g(d) geom=connectivity empiricaldispersion=gd3 v
 olume
 ----------------------------------------------------------------------
 1/18=20,19=15,26=3,38=1,57=2/1,3;
 2/9=110,12=2,17=6,18=5,40=1/2;
 3/5=1,6=6,7=11,11=2,25=1,30=1,71=1,74=-5,124=31/1,2,3;
 4//1;
 5/5=2,38=5/2;
 6/7=2,8=2,9=2,10=2,28=1,44=1/1,4;
 7//1,2,3,16;
 1/18=20,19=15,26=3/3(2);
 2/9=110/2;
 99//99;
 2/9=110/2;
 3/5=1,6=6,7=11,11=2,25=1,30=1,71=1,74=-5,124=31/1,2,3;
 4/5=5,16=3,69=1/1;
 5/5=2,38=5/2;
 7//1,2,3,16;
 1/18=20,19=15,26=3/3(-5);
 2/9=110/2;
 6/7=2,8=2,9=2,10=2,19=2,28=1,44=1/1,4;
 99/9=1/99;
 --------------
 ML molecule100
 --------------
 Symbolic Z-matrix:
 Charge =  0 Multiplicity = 1
 C                    -4.74942  -0.23058  -0.40002 
 C                    -4.8202    0.23854  -1.71867 
 C                    -4.55025   1.58484  -1.99888 
 C                    -4.20951   2.46203  -0.96044 
 C                    -4.13873   1.99291   0.35822 
 C                    -4.40868   0.64661   0.63842 
 H                    -3.87857   2.66266   1.15109 
 O                    -3.91049   3.9533   -1.27081 
 C                    -3.81752   4.69985  -2.77936 
 C                    -4.13168   3.88761  -3.87731 
 C                    -3.30395   5.98751  -2.98454 
 C                    -3.93225   4.36302  -5.18043 
 C                    -3.10452   6.46292  -4.28767 
 H                    -3.06408   6.60768  -2.14623 
 C                    -3.41867   5.65068  -5.38561 
 H                    -4.17211   3.74285  -6.01874 
 H                    -2.7124    7.44608  -4.44432 
 H                    -4.60429   1.94302  -3.0057 
 H                    -4.5238    2.90445  -3.72065 
 H                    -4.95553  -1.25851  -0.18608 
 O                    -3.21518   6.13579  -6.71533 
 C                    -4.11354   7.21857  -6.97113 
 H                    -3.77052   8.09462  -6.46144 
 H                    -4.15121   7.40981  -8.02323 
 H                    -5.09109   6.96149  -6.62012 
 C                    -4.3309    0.13109   2.08749 
 H                    -3.32972   0.23606   2.45014 
 H                    -4.99514   0.69951   2.70441 
 H                    -4.61381  -0.90047   2.11474 
 C                    -5.19464  -0.7254   -2.85982 
 H                    -6.05451  -0.35121  -3.37508 
 H                    -4.37534  -0.80406  -3.54354 
 H                    -5.41422  -1.69068  -2.45372 
 

 GradGradGradGradGradGradGradGradGradGradGradGradGradGradGradGradGradGrad
 Berny optimization.
 Initialization pass.
                           ----------------------------
                           !    Initial Parameters    !
                           ! (Angstroms and Degrees)  !
 --------------------------                            --------------------------
 ! Name  Definition              Value          Derivative Info.                !
 --------------------------------------------------------------------------------
 ! R1    R(1,2)                  1.4014         estimate D2E/DX2                !
 ! R2    R(1,6)                  1.4014         estimate D2E/DX2                !
 ! R3    R(1,20)                 1.07           estimate D2E/DX2                !
 ! R4    R(2,3)                  1.4014         estimate D2E/DX2                !
 ! R5    R(2,30)                 1.54           estimate D2E/DX2                !
 ! R6    R(3,4)                  1.4014         estimate D2E/DX2                !
 ! R7    R(3,18)                 1.07           estimate D2E/DX2                !
 ! R8    R(4,5)                  1.4014         estimate D2E/DX2                !
 ! R9    R(4,8)                  1.5523         estimate D2E/DX2                !
 ! R10   R(5,6)                  1.4014         estimate D2E/DX2                !
 ! R11   R(5,7)                  1.07           estimate D2E/DX2                !
 ! R12   R(6,26)                 1.54           estimate D2E/DX2                !
 ! R13   R(8,9)                  1.6857         estimate D2E/DX2                !
 ! R14   R(9,10)                 1.4014         estimate D2E/DX2                !
 ! R15   R(9,11)                 1.4014         estimate D2E/DX2                !
 ! R16   R(10,12)                1.4014         estimate D2E/DX2                !
 ! R17   R(10,19)                1.07           estimate D2E/DX2                !
 ! R18   R(11,13)                1.4014         estimate D2E/DX2                !
 ! R19   R(11,14)                1.07           estimate D2E/DX2                !
 ! R20   R(12,15)                1.4014         estimate D2E/DX2                !
 ! R21   R(12,16)                1.07           estimate D2E/DX2                !
 ! R22   R(13,15)                1.4014         estimate D2E/DX2                !
 ! R23   R(13,17)                1.07           estimate D2E/DX2                !
 ! R24   R(15,21)                1.43           estimate D2E/DX2                !
 ! R25   R(21,22)                1.43           estimate D2E/DX2                !
 ! R26   R(22,23)                1.07           estimate D2E/DX2                !
 ! R27   R(22,24)                1.07           estimate D2E/DX2                !
 ! R28   R(22,25)                1.07           estimate D2E/DX2                !
 ! R29   R(26,27)                1.07           estimate D2E/DX2                !
 ! R30   R(26,28)                1.07           estimate D2E/DX2                !
 ! R31   R(26,29)                1.07           estimate D2E/DX2                !
 ! R32   R(30,31)                1.07           estimate D2E/DX2                !
 ! R33   R(30,32)                1.07           estimate D2E/DX2                !
 ! R34   R(30,33)                1.07           estimate D2E/DX2                !
 ! A1    A(2,1,6)              120.0            estimate D2E/DX2                !
 ! A2    A(2,1,20)             120.0            estimate D2E/DX2                !
 ! A3    A(6,1,20)             120.0            estimate D2E/DX2                !
 ! A4    A(1,2,3)              120.0            estimate D2E/DX2                !
 ! A5    A(1,2,30)             120.0            estimate D2E/DX2                !
 ! A6    A(3,2,30)             120.0            estimate D2E/DX2                !
 ! A7    A(2,3,4)              120.0            estimate D2E/DX2                !
 ! A8    A(2,3,18)             120.0            estimate D2E/DX2                !
 ! A9    A(4,3,18)             120.0            estimate D2E/DX2                !
 ! A10   A(3,4,5)              120.0            estimate D2E/DX2                !
 ! A11   A(3,4,8)              120.0            estimate D2E/DX2                !
 ! A12   A(5,4,8)              120.0            estimate D2E/DX2                !
 ! A13   A(4,5,6)              120.0            estimate D2E/DX2                !
 ! A14   A(4,5,7)              120.0            estimate D2E/DX2                !
 ! A15   A(6,5,7)              120.0            estimate D2E/DX2                !
 ! A16   A(1,6,5)              120.0            estimate D2E/DX2                !
 ! A17   A(1,6,26)             120.0            estimate D2E/DX2                !
 ! A18   A(5,6,26)             120.0            estimate D2E/DX2                !
 ! A19   A(4,8,9)              127.9526         estimate D2E/DX2                !
 ! A20   A(8,9,10)             115.5989         estimate D2E/DX2                !
 ! A21   A(8,9,11)             123.9281         estimate D2E/DX2                !
 ! A22   A(10,9,11)            120.0            estimate D2E/DX2                !
 ! A23   A(9,10,12)            120.0            estimate D2E/DX2                !
 ! A24   A(9,10,19)            120.0            estimate D2E/DX2                !
 ! A25   A(12,10,19)           120.0            estimate D2E/DX2                !
 ! A26   A(9,11,13)            120.0            estimate D2E/DX2                !
 ! A27   A(9,11,14)            120.0            estimate D2E/DX2                !
 ! A28   A(13,11,14)           120.0            estimate D2E/DX2                !
 ! A29   A(10,12,15)           120.0            estimate D2E/DX2                !
 ! A30   A(10,12,16)           120.0            estimate D2E/DX2                !
 ! A31   A(15,12,16)           120.0            estimate D2E/DX2                !
 ! A32   A(11,13,15)           120.0            estimate D2E/DX2                !
 ! A33   A(11,13,17)           120.0            estimate D2E/DX2                !
 ! A34   A(15,13,17)           120.0            estimate D2E/DX2                !
 ! A35   A(12,15,13)           120.0            estimate D2E/DX2                !
 ! A36   A(12,15,21)           120.0            estimate D2E/DX2                !
 ! A37   A(13,15,21)           120.0            estimate D2E/DX2                !
 ! A38   A(15,21,22)           109.5            estimate D2E/DX2                !
 ! A39   A(21,22,23)           109.4712         estimate D2E/DX2                !
 ! A40   A(21,22,24)           109.4712         estimate D2E/DX2                !
 ! A41   A(21,22,25)           109.4712         estimate D2E/DX2                !
 ! A42   A(23,22,24)           109.4713         estimate D2E/DX2                !
 ! A43   A(23,22,25)           109.4712         estimate D2E/DX2                !
 ! A44   A(24,22,25)           109.4712         estimate D2E/DX2                !
 ! A45   A(6,26,27)            109.4712         estimate D2E/DX2                !
 ! A46   A(6,26,28)            109.4712         estimate D2E/DX2                !
 ! A47   A(6,26,29)            109.4712         estimate D2E/DX2                !
 ! A48   A(27,26,28)           109.4713         estimate D2E/DX2                !
 ! A49   A(27,26,29)           109.4712         estimate D2E/DX2                !
 ! A50   A(28,26,29)           109.4712         estimate D2E/DX2                !
 ! A51   A(2,30,31)            109.4712         estimate D2E/DX2                !
 ! A52   A(2,30,32)            109.4712         estimate D2E/DX2                !
 ! A53   A(2,30,33)            109.4712         estimate D2E/DX2                !
 ! A54   A(31,30,32)           109.4713         estimate D2E/DX2                !
 ! A55   A(31,30,33)           109.4712         estimate D2E/DX2                !
 ! A56   A(32,30,33)           109.4712         estimate D2E/DX2                !
 ! D1    D(6,1,2,3)              0.0001         estimate D2E/DX2                !
 ! D2    D(6,1,2,30)          -179.9998         estimate D2E/DX2                !
 ! D3    D(20,1,2,3)          -179.9999         estimate D2E/DX2                !
 ! D4    D(20,1,2,30)            0.0002         estimate D2E/DX2                !
 ! D5    D(2,1,6,5)             -0.0001         estimate D2E/DX2                !
 ! D6    D(2,1,6,26)           179.9998         estimate D2E/DX2                !
 ! D7    D(20,1,6,5)           179.9999         estimate D2E/DX2                !
 ! D8    D(20,1,6,26)           -0.0002         estimate D2E/DX2                !
 ! D9    D(1,2,3,4)              0.0001         estimate D2E/DX2                !
 ! D10   D(1,2,3,18)          -179.9999         estimate D2E/DX2                !
 ! D11   D(30,2,3,4)           179.9999         estimate D2E/DX2                !
 ! D12   D(30,2,3,18)           -0.0001         estimate D2E/DX2                !
 ! D13   D(1,2,30,31)          122.9507         estimate D2E/DX2                !
 ! D14   D(1,2,30,32)         -117.0493         estimate D2E/DX2                !
 ! D15   D(1,2,30,33)            2.9507         estimate D2E/DX2                !
 ! D16   D(3,2,30,31)          -57.0492         estimate D2E/DX2                !
 ! D17   D(3,2,30,32)           62.9509         estimate D2E/DX2                !
 ! D18   D(3,2,30,33)         -177.0492         estimate D2E/DX2                !
 ! D19   D(2,3,4,5)             -0.0002         estimate D2E/DX2                !
 ! D20   D(2,3,4,8)            179.9998         estimate D2E/DX2                !
 ! D21   D(18,3,4,5)           179.9998         estimate D2E/DX2                !
 ! D22   D(18,3,4,8)            -0.0002         estimate D2E/DX2                !
 ! D23   D(3,4,5,6)              0.0001         estimate D2E/DX2                !
 ! D24   D(3,4,5,7)           -180.0            estimate D2E/DX2                !
 ! D25   D(8,4,5,6)           -179.9999         estimate D2E/DX2                !
 ! D26   D(8,4,5,7)              0.0            estimate D2E/DX2                !
 ! D27   D(3,4,8,9)             -5.2547         estimate D2E/DX2                !
 ! D28   D(5,4,8,9)            174.7453         estimate D2E/DX2                !
 ! D29   D(4,5,6,1)              0.0            estimate D2E/DX2                !
 ! D30   D(4,5,6,26)          -179.9999         estimate D2E/DX2                !
 ! D31   D(7,5,6,1)           -179.9999         estimate D2E/DX2                !
 ! D32   D(7,5,6,26)             0.0002         estimate D2E/DX2                !
 ! D33   D(1,6,26,27)          117.2128         estimate D2E/DX2                !
 ! D34   D(1,6,26,28)         -122.7872         estimate D2E/DX2                !
 ! D35   D(1,6,26,29)           -2.7872         estimate D2E/DX2                !
 ! D36   D(5,6,26,27)          -62.7873         estimate D2E/DX2                !
 ! D37   D(5,6,26,28)           57.2127         estimate D2E/DX2                !
 ! D38   D(5,6,26,29)          177.2127         estimate D2E/DX2                !
 ! D39   D(4,8,9,10)             4.3564         estimate D2E/DX2                !
 ! D40   D(4,8,9,11)          -167.7268         estimate D2E/DX2                !
 ! D41   D(8,9,10,12)         -172.4167         estimate D2E/DX2                !
 ! D42   D(8,9,10,19)            7.5833         estimate D2E/DX2                !
 ! D43   D(11,9,10,12)           0.0002         estimate D2E/DX2                !
 ! D44   D(11,9,10,19)        -179.9998         estimate D2E/DX2                !
 ! D45   D(8,9,11,13)          171.7535         estimate D2E/DX2                !
 ! D46   D(8,9,11,14)           -8.2466         estimate D2E/DX2                !
 ! D47   D(10,9,11,13)           0.0            estimate D2E/DX2                !
 ! D48   D(10,9,11,14)         179.9999         estimate D2E/DX2                !
 ! D49   D(9,10,12,15)          -0.0002         estimate D2E/DX2                !
 ! D50   D(9,10,12,16)         179.9998         estimate D2E/DX2                !
 ! D51   D(19,10,12,15)        179.9998         estimate D2E/DX2                !
 ! D52   D(19,10,12,16)         -0.0002         estimate D2E/DX2                !
 ! D53   D(9,11,13,15)          -0.0001         estimate D2E/DX2                !
 ! D54   D(9,11,13,17)         179.9999         estimate D2E/DX2                !
 ! D55   D(14,11,13,15)        179.9999         estimate D2E/DX2                !
 ! D56   D(14,11,13,17)          0.0            estimate D2E/DX2                !
 ! D57   D(10,12,15,13)          0.0001         estimate D2E/DX2                !
 ! D58   D(10,12,15,21)       -179.9999         estimate D2E/DX2                !
 ! D59   D(16,12,15,13)       -179.9999         estimate D2E/DX2                !
 ! D60   D(16,12,15,21)          0.0001         estimate D2E/DX2                !
 ! D61   D(11,13,15,12)          0.0001         estimate D2E/DX2                !
 ! D62   D(11,13,15,21)       -179.9999         estimate D2E/DX2                !
 ! D63   D(17,13,15,12)       -180.0            estimate D2E/DX2                !
 ! D64   D(17,13,15,21)          0.0            estimate D2E/DX2                !
 ! D65   D(12,15,21,22)        113.4445         estimate D2E/DX2                !
 ! D66   D(13,15,21,22)        -66.5555         estimate D2E/DX2                !
 ! D67   D(15,21,22,23)         74.9451         estimate D2E/DX2                !
 ! D68   D(15,21,22,24)       -165.0549         estimate D2E/DX2                !
 ! D69   D(15,21,22,25)        -45.0549         estimate D2E/DX2                !
 --------------------------------------------------------------------------------
 Trust Radius=3.00D-01 FncErr=1.00D-07 GrdErr=1.00D-06 EigMax=2.50D+02 EigMin=1.00D-04
 Number of steps in this run=    169 maximum allowed number of steps=    198.
 GradGradGradGradGradGradGradGradGradGradGradGradGradGradGradGradGradGrad

                          Input orientation:                          
 ---------------------------------------------------------------------
 Center     Atomic      Atomic             Coordinates (Angstroms)
 Number     Number       Type             X           Y           Z
 ---------------------------------------------------------------------
      1          6           0       -4.749416   -0.230579   -0.400021
      2          6           0       -4.820199    0.238538   -1.718672
      3          6           0       -4.550247    1.584841   -1.998879
      4          6           0       -4.209510    2.462026   -0.960435
      5          6           0       -4.138728    1.992910    0.358216
      6          6           0       -4.408682    0.646607    0.638423
      7          1           0       -3.878568    2.662660    1.151091
      8          8           0       -3.910486    3.953296   -1.270814
      9          6           0       -3.817523    4.699853   -2.779363
     10          6           0       -4.131676    3.887607   -3.877310
     11          6           0       -3.303947    5.987511   -2.984541
     12          6           0       -3.932249    4.363019   -5.180435
     13          6           0       -3.104523    6.462923   -4.287666
     14          1           0       -3.064085    6.607679   -2.146234
     15          6           0       -3.418674    5.650677   -5.385613
     16          1           0       -4.172109    3.742850   -6.018741
     17          1           0       -2.712397    7.446079   -4.444324
     18          1           0       -4.604292    1.943023   -3.005698
     19          1           0       -4.523805    2.904453   -3.720651
     20          1           0       -4.955530   -1.258512   -0.186077
     21          8           0       -3.215179    6.135791   -6.715333
     22          6           0       -4.113538    7.218574   -6.971131
     23          1           0       -3.770519    8.094618   -6.461441
     24          1           0       -4.151208    7.409810   -8.023229
     25          1           0       -5.091086    6.961487   -6.620125
     26          6           0       -4.330903    0.131094    2.087491
     27          1           0       -3.329719    0.236055    2.450140
     28          1           0       -4.995138    0.699515    2.704410
     29          1           0       -4.613810   -0.900468    2.114741
     30          6           0       -5.194637   -0.725401   -2.859819
     31          1           0       -6.054515   -0.351214   -3.375081
     32          1           0       -4.375341   -0.804059   -3.543535
     33          1           0       -5.414217   -1.690681   -2.453716
 ---------------------------------------------------------------------
                    Distance matrix (angstroms):
                    1          2          3          4          5
     1  C    0.000000
     2  C    1.401400   0.000000
     3  C    2.427296   1.401400   0.000000
     4  C    2.802800   2.427296   1.401400   0.000000
     5  C    2.427296   2.802800   2.427296   1.401400   0.000000
     6  C    1.401400   2.427296   2.802800   2.427296   1.401400
     7  H    3.396345   3.872800   3.396345   2.146700   1.070000
     8  O    4.355100   3.850660   2.559092   1.552300   2.559092
     9  C    5.553274   4.694012   3.293833   2.910330   4.156335
    10  C    5.425182   4.295286   3.001072   3.247537   4.640001
    11  C    6.887218   6.078827   4.680630   4.164864   5.275199
    12  C    6.679914   5.457435   4.268781   4.636706   6.027993
    13  C    7.913434   6.948831   5.578920   5.319647   6.529535
    14  H    7.256127   6.620627   5.240161   4.461452   5.359405
    15  C    7.824077   6.685954   5.411233   5.511362   6.847577
    16  H    6.905899   5.584874   4.578131   5.218081   6.612790
    17  H    8.912739   7.988783   6.611506   6.262556   7.405125
    18  H    3.396345   2.146700   1.070000   2.146700   3.396345
    19  H    4.572298   3.347069   2.169464   2.813062   4.197184
    20  H    1.070000   2.146700   3.396345   3.872800   3.396345
    21  O    9.097676   7.894321   6.688683   6.899571   8.249334
    22  C    9.953577   8.764051   7.526815   7.665665   9.001529
    23  H   10.344465   9.236540   7.930928   7.885421   9.158283
    24  H   10.809565   9.571944   8.389415   8.623631   9.979558
    25  H    9.514843   8.324401   7.110326   7.283846   8.619222
    26  C    2.548270   3.838989   4.342800   3.838989   2.548270
    27  H    3.218184   4.427249   4.806525   4.166654   2.849066
    28  H    3.250069   4.450479   4.806523   4.141829   2.812638
    29  H    2.605988   4.004372   4.806524   4.574553   3.417999
    30  C    2.548270   1.540000   2.548270   3.838989   4.342800
    31  H    3.250972   2.148263   2.811594   4.141121   4.806523
    32  H    3.217218   2.148263   2.850158   4.167400   4.806525
    33  H    2.606055   2.148263   3.417948   4.574515   4.806524
                    6          7          8          9         10
     6  C    0.000000
     7  H    2.146700   0.000000
     8  O    3.850660   2.744520   0.000000
     9  C    5.334748   4.427454   1.685736   0.000000
    10  C    5.565309   5.181638   2.616688   1.401400   0.000000
    11  C    6.547638   5.337441   2.728146   1.401400   2.427296
    12  C    6.920825   6.556091   3.931091   2.427296   1.401400
    13  C    7.732834   6.679913   4.006145   2.427296   2.802800
    14  H    6.715403   5.205662   2.920360   2.146700   3.396345
    15  C    7.893659   7.201962   4.478231   2.802800   2.427296
    16  H    7.345783   7.256685   4.759784   3.396345   2.146700
    17  H    8.657051   7.453169   4.868893   3.396345   3.872800
    18  H    3.872800   4.280590   2.744520   2.875821   2.182769
    19  H    4.910464   4.920231   2.734581   2.146700   1.070000
    20  H    2.146700   4.280590   5.425100   6.597143   6.386429
    21  O    9.253827   8.624578   5.906735   4.232800   3.734792
    22  C   10.058985   9.315689   6.572433   4.899235   4.546141
    23  H   10.309616   9.352459   6.641742   5.008427   4.950465
    24  H   10.992335  10.333340   7.589501   5.912135   5.440123
    25  H    9.645201   8.963365   6.249652   4.635559   4.229922
    26  C    1.540000   2.736837   5.105310   6.695026   7.051945
    27  H    2.148263   2.806630   5.291566   6.892833   7.349394
    28  H    2.148263   2.741070   5.250331   6.889212   7.364003
    29  H    2.148263   3.763653   5.959503   7.479968   7.685232
    30  C    3.838989   5.412800   5.105310   5.597884   4.842006
    31  H    4.451138   5.856997   5.249153   5.556284   4.681576
    32  H    4.426547   5.857000   5.292804   5.584637   4.709831
    33  H    4.004415   5.856999   5.959441   6.595029   5.898206
                   11         12         13         14         15
    11  C    0.000000
    12  C    2.802800   0.000000
    13  C    1.401400   2.427296   0.000000
    14  H    1.070000   3.872800   2.146700   0.000000
    15  C    2.427296   1.401400   1.401400   3.396345   0.000000
    16  H    3.872800   1.070000   3.396345   4.942800   2.146700
    17  H    2.146700   3.396345   1.070000   2.471400   2.146700
    18  H    4.248439   3.322273   4.931759   4.986976   4.562498
    19  H    3.396345   2.146700   3.872800   4.280590   3.396345
    20  H    7.941283   7.588960   8.936992   8.324466   8.782596
    21  O    3.734792   2.452106   2.452106   4.595886   1.430000
    22  C    4.250159   3.375449   2.964810   4.975356   2.335595
    23  H    4.092239   3.948666   2.798441   4.618554   2.693334
    24  H    5.303693   4.172812   3.993316   6.030283   3.253947
    25  H    4.166529   3.188675   3.104088   4.924389   2.457480
    26  C    7.815226   8.419670   9.068555   7.840625   9.335161
    27  H    7.913006   8.696007   9.177289   7.860967   9.524971
    28  H    7.949037   8.759096   9.256373   7.884422   9.614974
    29  H    8.669641   9.021553   9.873617   8.770965  10.030013
    30  C    6.975203   5.733315   7.620980   7.669584   7.084353
    31  H    6.920808   5.476066   7.481158   7.673260   6.856573
    32  H    6.898245   5.438241   7.414698   7.655436   6.780271
    33  H    7.980580   6.802831   8.670601   8.630205   8.153144
                   16         17         18         19         20
    16  H    0.000000
    17  H    4.280590   0.000000
    18  H    3.536183   5.994376   0.000000
    19  H    2.471400   4.942800   1.200826   0.000000
    20  H    7.723169   9.946568   4.280590   5.478127   0.000000
    21  O    2.669667   2.669667   5.768044   4.595886  10.016772
    22  C    3.604321   2.898225   6.617925   5.417156  10.890678
    23  H    4.392624   2.368329   7.104890   5.917532  11.325435
    24  H    4.179115   3.857466   7.434155   6.240933  11.713568
    25  H    3.400853   3.259923   6.203711   5.018792  10.439526
    26  C    8.875866   9.939476   5.412800   6.439196   2.736837
    27  H    9.204846   9.994957   5.857000   6.828240   3.438988
    28  H    9.275378  10.091157   5.856997   6.809209   3.491469
    29  H    9.375982  10.784320   5.856999   6.966874   2.353452
    30  C    5.566832   8.685924   2.736837   3.790368   2.736837
    31  H    5.224342   8.550486   2.739181   3.614119   3.492950
    32  H    5.180959   8.464135   2.808584   3.715706   3.437393
    33  H    6.616305   9.733588   3.763571   4.849043   2.353583
                   21         22         23         24         25
    21  O    0.000000
    22  C    1.430000   0.000000
    23  H    2.051796   1.070000   0.000000
    24  H    2.051796   1.070000   1.747303   0.000000
    25  H    2.051796   1.070000   1.747303   1.747303   0.000000
    26  C   10.714053  11.503836  11.696836  12.459480  11.093003
    27  H   10.900729  11.752884  11.889810  12.721205  11.428191
    28  H   11.020568  11.700062  11.840611  12.681582  11.232473
    29  H   11.376965  12.195171  12.456870  13.116904  11.761633
    30  C    8.115368   9.009906   9.632888   9.691811   8.557971
    31  H    7.829454   8.602363   9.277625   9.244530   8.058169
    32  H    7.718018   8.728092   9.384372   9.358714   8.383400
    33  H    9.178824  10.073412  10.701200  10.744003   9.608506
                   26         27         28         29         30
    26  C    0.000000
    27  H    1.070000   0.000000
    28  H    1.070000   1.747303   0.000000
    29  H    1.070000   1.747303   1.747303   0.000000
    30  C    5.094654   5.709465   5.747246   5.011413   0.000000
    31  H    5.748318   6.457755   6.259914   5.702233   1.070000
    32  H    5.708322   6.172464   6.456137   5.664120   1.070000
    33  H    5.011487   5.666150   5.700433   4.704880   1.070000
                   31         32         33
    31  H    0.000000
    32  H    1.747303   0.000000
    33  H    1.747303   1.747303   0.000000
 Stoichiometry    C15H16O2
 Framework group  C1[X(C15H16O2)]
 Deg. of freedom    93
 Full point group                 C1      NOp   1
 Largest Abelian subgroup         C1      NOp   1
 Largest concise Abelian subgroup C1      NOp   1
                         Standard orientation:                         
 ---------------------------------------------------------------------
 Center     Atomic      Atomic             Coordinates (Angstroms)
 Number     Number       Type             X           Y           Z
 ---------------------------------------------------------------------
      1          6           0       -4.077152    0.804317   -0.030872
      2          6           0       -2.837376    1.455972    0.016275
      3          6           0       -1.654319    0.707472    0.079882
      4          6           0       -1.711038   -0.692683    0.096340
      5          6           0       -2.950815   -1.344338    0.049195
      6          6           0       -4.133872   -0.595838   -0.014411
      7          1           0       -2.994121   -2.413387    0.061762
      8          8           0       -0.400592   -1.521780    0.166793
      9          6           0        1.187120   -0.958276    0.108979
     10          6           0        1.334359    0.435014    0.077571
     11          6           0        2.304624   -1.785144   -0.068209
     12          6           0        2.599102    1.001436   -0.131028
     13          6           0        3.569367   -1.218722   -0.276805
     14          1           0        2.192204   -2.848951   -0.044228
     15          6           0        3.716606    0.174568   -0.308215
     16          1           0        2.711522    2.065243   -0.155011
     17          1           0        4.422607   -1.850054   -0.412091
     18          1           0       -0.707723    1.205025    0.115880
     19          1           0        0.481120    1.066346    0.212861
     20          1           0       -4.980443    1.375813   -0.079439
     21          8           0        5.007160    0.752549   -0.521069
     22          6           0        5.850727    0.461496    0.596331
     23          1           0        6.160081   -0.561878    0.552673
     24          1           0        6.711874    1.095940    0.567921
     25          1           0        5.311426    0.632646    1.504495
     26          6           0       -5.496263   -1.311942   -0.066216
     27          1           0       -5.557252   -1.898334   -0.959147
     28          1           0       -5.596563   -1.949862    0.786954
     29          1           0       -6.281571   -0.585184   -0.062450
     30          6           0       -2.775048    2.994604   -0.001811
     31          1           0       -2.251108    3.340547    0.864625
     32          1           0       -2.262158    3.320459   -0.882528
     33          1           0       -3.768571    3.391855   -0.000095
 ---------------------------------------------------------------------
 Rotational constants (GHZ):           1.2104190           0.1825519           0.1604457
 Standard basis: 6-31+G(d) (6D, 7F)
 There are   355 symmetry adapted cartesian basis functions of A   symmetry.
 There are   355 symmetry adapted basis functions of A   symmetry.
   355 basis functions,   608 primitive gaussians,   355 cartesian basis functions
    61 alpha electrons       61 beta electrons
       nuclear repulsion energy      1078.4261389260 Hartrees.
 NAtoms=   33 NActive=   33 NUniq=   33 SFac= 1.00D+00 NAtFMM=   60 NAOKFM=F Big=F
 Integral buffers will be    131072 words long.
 Raffenetti 2 integral format.
 Two-electron integral symmetry is turned on.
 Nuclear repulsion after empirical dispersion term =     1078.4000988779 Hartrees.
 One-electron integrals computed using PRISM.
 NBasis=   355 RedAO= T EigKep=  1.41D-06  NBF=   355
 NBsUse=   353 1.00D-06 EigRej=  6.43D-07 NBFU=   353
 ExpMin= 4.38D-02 ExpMax= 5.48D+03 ExpMxC= 8.25D+02 IAcc=3 IRadAn=         5 AccDes= 0.00D+00
 Harris functional with IExCor=  402 and IRadAn=       5 diagonalized for initial guess.
 HarFok:  IExCor=  402 AccDes= 0.00D+00 IRadAn=         5 IDoV= 1 UseB2=F ITyADJ=14
 ICtDFT=  3500011 ScaDFX=  1.000000  1.000000  1.000000  1.000000
 FoFCou: FMM=F IPFlag=           0 FMFlag=      100000 FMFlg1=           0
         NFxFlg=           0 DoJE=T BraDBF=F KetDBF=T FulRan=T
         wScrn=  0.000000 ICntrl=       500 IOpCl=  0 I1Cent=   200000004 NGrid=           0
         NMat0=    1 NMatS0=      1 NMatT0=    0 NMatD0=    1 NMtDS0=    0 NMtDT0=    0
 Petite list used in FoFCou.
 Requested convergence on RMS density matrix=1.00D-08 within 128 cycles.
 Requested convergence on MAX density matrix=1.00D-06.
 Requested convergence on             energy=1.00D-06.
 No special actions if energy rises.
 SCF Done:  E(RB3LYP) =  -731.618150544     A.U. after   15 cycles
            NFock= 15  Conv=0.84D-08     -V/T= 2.0100

 **********************************************************************

            Population analysis using the SCF Density.

 **********************************************************************

 Orbital symmetries:
       Occupied  (A) (A) (A) (A) (A) (A) (A) (A) (A) (A) (A) (A)
                 (A) (A) (A) (A) (A) (A) (A) (A) (A) (A) (A) (A)
                 (A) (A) (A) (A) (A) (A) (A) (A) (A) (A) (A) (A)
                 (A) (A) (A) (A) (A) (A) (A) (A) (A) (A) (A) (A)
                 (A) (A) (A) (A) (A) (A) (A) (A) (A) (A) (A) (A)
                 (A)
       Virtual   (A) (A) (A) (A) (A) (A) (A) (A) (A) (A) (A) (A)
                 (A) (A) (A) (A) (A) (A) (A) (A) (A) (A) (A) (A)
                 (A) (A) (A) (A) (A) (A) (A) (A) (A) (A) (A) (A)
                 (A) (A) (A) (A) (A) (A) (A) (A) (A) (A) (A) (A)
                 (A) (A) (A) (A) (A) (A) (A) (A) (A) (A) (A) (A)
                 (A) (A) (A) (A) (A) (A) (A) (A) (A) (A) (A) (A)
                 (A) (A) (A) (A) (A) (A) (A) (A) (A) (A) (A) (A)
                 (A) (A) (A) (A) (A) (A) (A) (A) (A) (A) (A) (A)
                 (A) (A) (A) (A) (A) (A) (A) (A) (A) (A) (A) (A)
                 (A) (A) (A) (A) (A) (A) (A) (A) (A) (A) (A) (A)
                 (A) (A) (A) (A) (A) (A) (A) (A) (A) (A) (A) (A)
                 (A) (A) (A) (A) (A) (A) (A) (A) (A) (A) (A) (A)
                 (A) (A) (A) (A) (A) (A) (A) (A) (A) (A) (A) (A)
                 (A) (A) (A) (A) (A) (A) (A) (A) (A) (A) (A) (A)
                 (A) (A) (A) (A) (A) (A) (A) (A) (A) (A) (A) (A)
                 (A) (A) (A) (A) (A) (A) (A) (A) (A) (A) (A) (A)
                 (A) (A) (A) (A) (A) (A) (A) (A) (A) (A) (A) (A)
                 (A) (A) (A) (A) (A) (A) (A) (A) (A) (A) (A) (A)
                 (A) (A) (A) (A) (A) (A) (A) (A) (A) (A) (A) (A)
                 (A) (A) (A) (A) (A) (A) (A) (A) (A) (A) (A) (A)
                 (A) (A) (A) (A) (A) (A) (A) (A) (A) (A) (A) (A)
                 (A) (A) (A) (A) (A) (A) (A) (A) (A) (A) (A) (A)
                 (A) (A) (A) (A) (A) (A) (A) (A) (A) (A) (A) (A)
                 (A) (A) (A) (A) (A) (A) (A) (A) (A) (A) (A) (A)
                 (A) (A) (A) (A)
 The electronic state is 1-A.
 Alpha  occ. eigenvalues --  -19.18022 -19.17933 -10.27785 -10.26360 -10.26145
 Alpha  occ. eigenvalues --  -10.23511 -10.22030 -10.21482 -10.21078 -10.20996
 Alpha  occ. eigenvalues --  -10.20866 -10.20716 -10.19308 -10.18874 -10.18640
 Alpha  occ. eigenvalues --  -10.18433 -10.18312  -1.05071  -0.96548  -0.87132
 Alpha  occ. eigenvalues --   -0.85890  -0.78694  -0.77248  -0.76469  -0.75136
 Alpha  occ. eigenvalues --   -0.70043  -0.69821  -0.69369  -0.63815  -0.60948
 Alpha  occ. eigenvalues --   -0.59236  -0.58055  -0.54090  -0.52238  -0.49307
 Alpha  occ. eigenvalues --   -0.48892  -0.47818  -0.46995  -0.46930  -0.45244
 Alpha  occ. eigenvalues --   -0.44263  -0.43521  -0.42852  -0.42628  -0.41554
 Alpha  occ. eigenvalues --   -0.40882  -0.40781  -0.39369  -0.39012  -0.37593
 Alpha  occ. eigenvalues --   -0.36940  -0.35933  -0.35313  -0.33646  -0.31744
 Alpha  occ. eigenvalues --   -0.31130  -0.29046  -0.27377  -0.25653  -0.24453
 Alpha  occ. eigenvalues --   -0.22529
 Alpha virt. eigenvalues --   -0.03250  -0.03018  -0.01522  -0.01238  -0.00055
 Alpha virt. eigenvalues --    0.00368   0.00926   0.01605   0.02372   0.02631
 Alpha virt. eigenvalues --    0.03407   0.03969   0.04182   0.04257   0.05032
 Alpha virt. eigenvalues --    0.05127   0.05840   0.06369   0.06742   0.07194
 Alpha virt. eigenvalues --    0.07515   0.07820   0.08456   0.08870   0.09638
 Alpha virt. eigenvalues --    0.09964   0.10897   0.11076   0.11360   0.11551
 Alpha virt. eigenvalues --    0.12264   0.12441   0.12596   0.13603   0.13847
 Alpha virt. eigenvalues --    0.14116   0.14136   0.14560   0.15043   0.15457
 Alpha virt. eigenvalues --    0.16025   0.16506   0.16587   0.17017   0.17304
 Alpha virt. eigenvalues --    0.18133   0.18589   0.18775   0.19051   0.19657
 Alpha virt. eigenvalues --    0.20100   0.20156   0.20892   0.21167   0.21321
 Alpha virt. eigenvalues --    0.21633   0.22468   0.22924   0.23128   0.23518
 Alpha virt. eigenvalues --    0.23838   0.24484   0.24572   0.24990   0.25334
 Alpha virt. eigenvalues --    0.25996   0.26544   0.26752   0.27233   0.27569
 Alpha virt. eigenvalues --    0.27982   0.28257   0.28647   0.28915   0.29674
 Alpha virt. eigenvalues --    0.30134   0.30676   0.31167   0.31683   0.31860
 Alpha virt. eigenvalues --    0.32510   0.32858   0.33142   0.33481   0.34375
 Alpha virt. eigenvalues --    0.34823   0.35659   0.36191   0.36404   0.37108
 Alpha virt. eigenvalues --    0.37990   0.38998   0.39395   0.39875   0.40383
 Alpha virt. eigenvalues --    0.41355   0.42652   0.43578   0.43765   0.45887
 Alpha virt. eigenvalues --    0.46539   0.50468   0.55865   0.58261   0.59893
 Alpha virt. eigenvalues --    0.60987   0.64832   0.65225   0.65583   0.66113
 Alpha virt. eigenvalues --    0.66978   0.68263   0.68725   0.69220   0.69473
 Alpha virt. eigenvalues --    0.70057   0.70475   0.71540   0.72811   0.73378
 Alpha virt. eigenvalues --    0.73909   0.74219   0.74860   0.74990   0.75851
 Alpha virt. eigenvalues --    0.76967   0.77653   0.78544   0.80210   0.80257
 Alpha virt. eigenvalues --    0.80724   0.81000   0.81996   0.82654   0.84446
 Alpha virt. eigenvalues --    0.84897   0.86313   0.87714   0.89346   0.93316
 Alpha virt. eigenvalues --    0.93945   0.94410   0.95533   0.95871   0.96145
 Alpha virt. eigenvalues --    0.97287   0.98594   0.99495   0.99653   1.01504
 Alpha virt. eigenvalues --    1.05199   1.06950   1.08973   1.09799   1.10487
 Alpha virt. eigenvalues --    1.12595   1.13414   1.14428   1.15166   1.16366
 Alpha virt. eigenvalues --    1.16977   1.17244   1.18292   1.19582   1.20841
 Alpha virt. eigenvalues --    1.21458   1.21666   1.22391   1.22906   1.23683
 Alpha virt. eigenvalues --    1.24986   1.26095   1.27464   1.28739   1.28800
 Alpha virt. eigenvalues --    1.29785   1.31106   1.33906   1.34537   1.36008
 Alpha virt. eigenvalues --    1.38030   1.38549   1.40055   1.40835   1.41433
 Alpha virt. eigenvalues --    1.42601   1.44830   1.45621   1.47077   1.48222
 Alpha virt. eigenvalues --    1.48436   1.48556   1.49193   1.51227   1.52740
 Alpha virt. eigenvalues --    1.55943   1.56823   1.61178   1.62607   1.72758
 Alpha virt. eigenvalues --    1.75132   1.77274   1.78538   1.80242   1.81605
 Alpha virt. eigenvalues --    1.83673   1.84461   1.85486   1.86420   1.87332
 Alpha virt. eigenvalues --    1.88452   1.88922   1.89842   1.91296   1.93113
 Alpha virt. eigenvalues --    1.94911   1.96443   1.97843   1.98544   1.99985
 Alpha virt. eigenvalues --    2.02257   2.02611   2.06516   2.08026   2.09682
 Alpha virt. eigenvalues --    2.12142   2.13483   2.14732   2.15097   2.16978
 Alpha virt. eigenvalues --    2.17291   2.21716   2.22023   2.22383   2.24050
 Alpha virt. eigenvalues --    2.27065   2.28213   2.28752   2.29274   2.29851
 Alpha virt. eigenvalues --    2.31206   2.33420   2.35971   2.36459   2.37627
 Alpha virt. eigenvalues --    2.39369   2.40066   2.40555   2.40838   2.42075
 Alpha virt. eigenvalues --    2.45169   2.51698   2.56610   2.61724   2.62533
 Alpha virt. eigenvalues --    2.63538   2.64938   2.66929   2.71652   2.73069
 Alpha virt. eigenvalues --    2.74330   2.75722   2.78990   2.80257   2.82898
 Alpha virt. eigenvalues --    2.82985   2.86727   2.93551   2.95108   3.04152
 Alpha virt. eigenvalues --    3.05078   3.10569   3.12142   3.40604   3.41762
 Alpha virt. eigenvalues --    4.22115   4.24609   4.27910   4.28996   4.30567
 Alpha virt. eigenvalues --    4.33392   4.34314   4.36256   4.36994   4.38780
 Alpha virt. eigenvalues --    4.40355   4.41474   4.49226   4.51214   4.51354
 Alpha virt. eigenvalues --    4.77007   4.78763
          Condensed to atoms (all electrons):
               1          2          3          4          5          6
     1  C   12.440175  -1.807131  -2.053162   1.397540  -2.361791  -0.089636
     2  C   -1.807131   9.105928  -0.532158  -2.568227   2.419513   0.127262
     3  C   -2.053162  -0.532158  10.939792   1.402866  -3.968206   0.359245
     4  C    1.397540  -2.568227   1.402866  12.265195  -6.461029   0.420240
     5  C   -2.361791   2.419513  -3.968206  -6.461029  16.996506  -1.147457
     6  C   -0.089636   0.127262   0.359245   0.420240  -1.147457   7.659354
     7  H    0.064778   0.001833   0.023762   0.075240   0.143098  -0.006390
     8  O    0.010972  -0.062125  -0.049972   0.330019  -0.284184   0.046919
     9  C   -0.064859   0.295601  -0.108985  -0.581853   0.815810  -0.055964
    10  C    0.236923  -0.247600  -0.113311   0.917231  -0.924009   0.002064
    11  C   -0.079921  -0.145599  -0.799197   0.443603   0.488351  -0.016282
    12  C    0.027886  -0.329133   0.922148  -0.310150  -0.797571   0.009867
    13  C   -0.002009   0.014841   0.119141  -0.058321  -0.065430   0.001454
    14  H   -0.000086  -0.000509  -0.000876  -0.001758  -0.003431  -0.000122
    15  C    0.028230  -0.061525  -0.279997   0.069815  -0.025681  -0.017034
    16  H    0.000341   0.003226   0.000062  -0.005688  -0.000872  -0.000016
    17  H    0.000000   0.000014   0.000548   0.000475  -0.000022   0.000008
    18  H    0.097678  -0.044520   0.047828   0.012025   0.072488  -0.023650
    19  H    0.005319   0.012316  -0.019179   0.028478   0.007210   0.009508
    20  H    0.200474   0.035498   0.056176   0.012275  -0.003948   0.017118
    21  O   -0.000031  -0.000151  -0.000771   0.000499  -0.000171   0.000024
    22  C   -0.000053  -0.000721   0.001415  -0.001280  -0.000655   0.000037
    23  H    0.000001   0.000006  -0.000110  -0.000005   0.000002   0.000000
    24  H    0.000000   0.000000   0.000004   0.000009   0.000000   0.000000
    25  H   -0.000003  -0.000012   0.000484  -0.000010   0.000016   0.000001
    26  C   -0.390184   0.368129  -0.311541  -1.052886   0.899677  -0.971287
    27  H    0.047285  -0.013377  -0.001931  -0.003148  -0.037943  -0.056254
    28  H    0.050624  -0.009802  -0.001668   0.014829  -0.052014  -0.078130
    29  H   -0.095746   0.022383  -0.009995  -0.027438   0.076936  -0.149471
    30  C   -0.206912  -0.512570  -0.347447  -0.397440   0.263747  -0.179766
    31  H    0.029391  -0.080663  -0.058929  -0.006402   0.008763  -0.007416
    32  H    0.034062  -0.094540  -0.041968   0.002488   0.003284  -0.014153
    33  H   -0.042064  -0.110432   0.012804  -0.007051   0.003650   0.010092
               7          8          9         10         11         12
     1  C    0.064778   0.010972  -0.064859   0.236923  -0.079921   0.027886
     2  C    0.001833  -0.062125   0.295601  -0.247600  -0.145599  -0.329133
     3  C    0.023762  -0.049972  -0.108985  -0.113311  -0.799197   0.922148
     4  C    0.075240   0.330019  -0.581853   0.917231   0.443603  -0.310150
     5  C    0.143098  -0.284184   0.815810  -0.924009   0.488351  -0.797571
     6  C   -0.006390   0.046919  -0.055964   0.002064  -0.016282   0.009867
     7  H    0.530951  -0.004389  -0.008691   0.008633  -0.004522   0.000915
     8  O   -0.004389   8.391327   0.288322  -0.034756  -0.192314   0.023655
     9  C   -0.008691   0.288322  11.278287  -1.389141  -3.368128   0.666514
    10  C    0.008633  -0.034756  -1.389141  12.555989   0.302064  -4.841312
    11  C   -0.004522  -0.192314  -3.368128   0.302064  10.134421  -0.921948
    12  C    0.000915   0.023655   0.666514  -4.841312  -0.921948  13.872493
    13  C   -0.000234   0.019595   0.081581  -1.031345  -0.454506  -0.450744
    14  H    0.000000  -0.002230  -0.005537   0.078556   0.331200  -0.035584
    15  C   -0.000030  -0.027379  -1.651543   0.257044   0.842870  -1.919248
    16  H    0.000000  -0.000163   0.016557  -0.066724  -0.032988   0.317289
    17  H    0.000000  -0.000100   0.026348  -0.007163  -0.094660   0.023507
    18  H   -0.000210  -0.009745   0.061355  -0.014256   0.030434  -0.052957
    19  H    0.000005  -0.012672   0.059654   0.088166   0.009109   0.055861
    20  H   -0.000145   0.000084   0.000461   0.000062  -0.000002  -0.000076
    21  O    0.000000   0.000280  -0.027663  -0.049139   0.042808  -0.172356
    22  C    0.000000   0.000126  -0.025387  -0.101455   0.055055   0.038450
    23  H    0.000000  -0.000001  -0.002926   0.006375   0.002844  -0.061885
    24  H    0.000000   0.000000   0.000888  -0.001257  -0.000079   0.011562
    25  H    0.000000  -0.000001   0.005399   0.012731  -0.002469   0.063611
    26  C   -0.019626  -0.000823  -0.005404  -0.049947  -0.005222  -0.008203
    27  H    0.000888  -0.000022  -0.000167   0.000114  -0.000063  -0.000004
    28  H    0.001002   0.000005  -0.000167   0.000190  -0.000011   0.000023
    29  H    0.000086   0.000012   0.000028  -0.000160   0.000004  -0.000009
    30  C    0.002746   0.000703  -0.008941  -0.066752   0.034328  -0.015627
    31  H    0.000000  -0.000007   0.001508  -0.000309   0.000169  -0.004785
    32  H    0.000000   0.000002  -0.000197  -0.000641   0.000287  -0.000620
    33  H    0.000000   0.000015   0.000164   0.000204  -0.000013   0.000209
              13         14         15         16         17         18
     1  C   -0.002009  -0.000086   0.028230   0.000341   0.000000   0.097678
     2  C    0.014841  -0.000509  -0.061525   0.003226   0.000014  -0.044520
     3  C    0.119141  -0.000876  -0.279997   0.000062   0.000548   0.047828
     4  C   -0.058321  -0.001758   0.069815  -0.005688   0.000475   0.012025
     5  C   -0.065430  -0.003431  -0.025681  -0.000872  -0.000022   0.072488
     6  C    0.001454  -0.000122  -0.017034  -0.000016   0.000008  -0.023650
     7  H   -0.000234   0.000000  -0.000030   0.000000   0.000000  -0.000210
     8  O    0.019595  -0.002230  -0.027379  -0.000163  -0.000100  -0.009745
     9  C    0.081581  -0.005537  -1.651543   0.016557   0.026348   0.061355
    10  C   -1.031345   0.078556   0.257044  -0.066724  -0.007163  -0.014256
    11  C   -0.454506   0.331200   0.842870  -0.032988  -0.094660   0.030434
    12  C   -0.450744  -0.035584  -1.919248   0.317289   0.023507  -0.052957
    13  C    7.328267  -0.087698   0.197855   0.036099   0.386207  -0.002359
    14  H   -0.087698   0.505696   0.020592   0.000015  -0.005234   0.000005
    15  C    0.197855   0.020592   8.306788   0.027549  -0.043512  -0.005277
    16  H    0.036099   0.000015   0.027549   0.520428  -0.000156   0.000352
    17  H    0.386207  -0.005234  -0.043512  -0.000156   0.520716   0.000000
    18  H   -0.002359   0.000005  -0.005277   0.000352   0.000000   0.707296
    19  H    0.019438  -0.000211  -0.033486  -0.008487   0.000013  -0.009544
    20  H   -0.000002   0.000000  -0.000002   0.000000   0.000000  -0.000193
    21  O   -0.177980  -0.000624   0.513087  -0.004712  -0.001808   0.000011
    22  C    0.042645  -0.000087  -0.220883   0.000469   0.002262  -0.000032
    23  H    0.008601   0.000009   0.033868   0.000004   0.000968   0.000000
    24  H   -0.001532   0.000000  -0.000302  -0.000029  -0.000039   0.000000
    25  H   -0.022133  -0.000002  -0.055322  -0.000004   0.000187   0.000000
    26  C    0.000983  -0.000028  -0.002592   0.000000   0.000000  -0.001852
    27  H   -0.000002   0.000000   0.000001   0.000000   0.000000   0.000000
    28  H    0.000000   0.000000   0.000000   0.000000   0.000000   0.000000
    29  H    0.000000   0.000000   0.000000   0.000000   0.000000   0.000000
    30  C   -0.002743   0.000020  -0.021410   0.000003   0.000000   0.008062
    31  H   -0.000011   0.000000  -0.000520   0.000000   0.000000   0.001902
    32  H   -0.000044   0.000000  -0.000060   0.000000   0.000000   0.001025
    33  H    0.000000   0.000000   0.000018   0.000000   0.000000   0.000254
              19         20         21         22         23         24
     1  C    0.005319   0.200474  -0.000031  -0.000053   0.000001   0.000000
     2  C    0.012316   0.035498  -0.000151  -0.000721   0.000006   0.000000
     3  C   -0.019179   0.056176  -0.000771   0.001415  -0.000110   0.000004
     4  C    0.028478   0.012275   0.000499  -0.001280  -0.000005   0.000009
     5  C    0.007210  -0.003948  -0.000171  -0.000655   0.000002   0.000000
     6  C    0.009508   0.017118   0.000024   0.000037   0.000000   0.000000
     7  H    0.000005  -0.000145   0.000000   0.000000   0.000000   0.000000
     8  O   -0.012672   0.000084   0.000280   0.000126  -0.000001   0.000000
     9  C    0.059654   0.000461  -0.027663  -0.025387  -0.002926   0.000888
    10  C    0.088166   0.000062  -0.049139  -0.101455   0.006375  -0.001257
    11  C    0.009109  -0.000002   0.042808   0.055055   0.002844  -0.000079
    12  C    0.055861  -0.000076  -0.172356   0.038450  -0.061885   0.011562
    13  C    0.019438  -0.000002  -0.177980   0.042645   0.008601  -0.001532
    14  H   -0.000211   0.000000  -0.000624  -0.000087   0.000009   0.000000
    15  C   -0.033486  -0.000002   0.513087  -0.220883   0.033868  -0.000302
    16  H   -0.008487   0.000000  -0.004712   0.000469   0.000004  -0.000029
    17  H    0.000013   0.000000  -0.001808   0.002262   0.000968  -0.000039
    18  H   -0.009544  -0.000193   0.000011  -0.000032   0.000000   0.000000
    19  H    0.640162   0.000001  -0.000279   0.000385   0.000000   0.000000
    20  H    0.000001   0.559017   0.000000   0.000000   0.000000   0.000000
    21  O   -0.000279   0.000000   8.309669   0.092868  -0.051062  -0.044845
    22  C    0.000385   0.000000   0.092868   5.289885   0.403139   0.387150
    23  H    0.000000   0.000000  -0.051062   0.403139   0.551224  -0.033409
    24  H    0.000000   0.000000  -0.044845   0.387150  -0.033409   0.504642
    25  H    0.000008   0.000000  -0.051432   0.385234  -0.047092  -0.027539
    26  C    0.000508  -0.027911   0.000001   0.000000   0.000000   0.000000
    27  H    0.000000   0.000128   0.000000   0.000000   0.000000   0.000000
    28  H    0.000000   0.000112   0.000000   0.000000   0.000000   0.000000
    29  H    0.000000   0.004398   0.000000   0.000000   0.000000   0.000000
    30  C   -0.010354  -0.025065   0.000019   0.000113  -0.000001   0.000000
    31  H   -0.000137   0.000117   0.000000   0.000000   0.000000   0.000000
    32  H    0.000011   0.000125   0.000000   0.000001   0.000000   0.000000
    33  H   -0.000012   0.004517   0.000000   0.000000   0.000000   0.000000
              25         26         27         28         29         30
     1  C   -0.000003  -0.390184   0.047285   0.050624  -0.095746  -0.206912
     2  C   -0.000012   0.368129  -0.013377  -0.009802   0.022383  -0.512570
     3  C    0.000484  -0.311541  -0.001931  -0.001668  -0.009995  -0.347447
     4  C   -0.000010  -1.052886  -0.003148   0.014829  -0.027438  -0.397440
     5  C    0.000016   0.899677  -0.037943  -0.052014   0.076936   0.263747
     6  C    0.000001  -0.971287  -0.056254  -0.078130  -0.149471  -0.179766
     7  H    0.000000  -0.019626   0.000888   0.001002   0.000086   0.002746
     8  O   -0.000001  -0.000823  -0.000022   0.000005   0.000012   0.000703
     9  C    0.005399  -0.005404  -0.000167  -0.000167   0.000028  -0.008941
    10  C    0.012731  -0.049947   0.000114   0.000190  -0.000160  -0.066752
    11  C   -0.002469  -0.005222  -0.000063  -0.000011   0.000004   0.034328
    12  C    0.063611  -0.008203  -0.000004   0.000023  -0.000009  -0.015627
    13  C   -0.022133   0.000983  -0.000002   0.000000   0.000000  -0.002743
    14  H   -0.000002  -0.000028   0.000000   0.000000   0.000000   0.000020
    15  C   -0.055322  -0.002592   0.000001   0.000000   0.000000  -0.021410
    16  H   -0.000004   0.000000   0.000000   0.000000   0.000000   0.000003
    17  H    0.000187   0.000000   0.000000   0.000000   0.000000   0.000000
    18  H    0.000000  -0.001852   0.000000   0.000000   0.000000   0.008062
    19  H    0.000008   0.000508   0.000000   0.000000   0.000000  -0.010354
    20  H    0.000000  -0.027911   0.000128   0.000112   0.004398  -0.025065
    21  O   -0.051432   0.000001   0.000000   0.000000   0.000000   0.000019
    22  C    0.385234   0.000000   0.000000   0.000000   0.000000   0.000113
    23  H   -0.047092   0.000000   0.000000   0.000000   0.000000  -0.000001
    24  H   -0.027539   0.000000   0.000000   0.000000   0.000000   0.000000
    25  H    0.531642   0.000000   0.000000   0.000000   0.000000   0.000006
    26  C    0.000000   6.873302   0.400801   0.412123   0.523973   0.002139
    27  H    0.000000   0.400801   0.491135  -0.031099  -0.025759  -0.000068
    28  H    0.000000   0.412123  -0.031099   0.492675  -0.025778   0.000185
    29  H    0.000000   0.523973  -0.025759  -0.025778   0.499434   0.000863
    30  C    0.000006   0.002139  -0.000068   0.000185   0.000863   6.839510
    31  H    0.000000   0.000527   0.000000   0.000000   0.000000   0.451915
    32  H    0.000000   0.000137   0.000000   0.000000   0.000000   0.445270
    33  H    0.000000  -0.004057   0.000000   0.000000  -0.000001   0.478163
              31         32         33
     1  C    0.029391   0.034062  -0.042064
     2  C   -0.080663  -0.094540  -0.110432
     3  C   -0.058929  -0.041968   0.012804
     4  C   -0.006402   0.002488  -0.007051
     5  C    0.008763   0.003284   0.003650
     6  C   -0.007416  -0.014153   0.010092
     7  H    0.000000   0.000000   0.000000
     8  O   -0.000007   0.000002   0.000015
     9  C    0.001508  -0.000197   0.000164
    10  C   -0.000309  -0.000641   0.000204
    11  C    0.000169   0.000287  -0.000013
    12  C   -0.004785  -0.000620   0.000209
    13  C   -0.000011  -0.000044   0.000000
    14  H    0.000000   0.000000   0.000000
    15  C   -0.000520  -0.000060   0.000018
    16  H    0.000000   0.000000   0.000000
    17  H    0.000000   0.000000   0.000000
    18  H    0.001902   0.001025   0.000254
    19  H   -0.000137   0.000011  -0.000012
    20  H    0.000117   0.000125   0.004517
    21  O    0.000000   0.000000   0.000000
    22  C    0.000000   0.000001   0.000000
    23  H    0.000000   0.000000   0.000000
    24  H    0.000000   0.000000   0.000000
    25  H    0.000000   0.000000   0.000000
    26  C    0.000527   0.000137  -0.004057
    27  H    0.000000   0.000000   0.000000
    28  H    0.000000   0.000000   0.000000
    29  H    0.000000   0.000000  -0.000001
    30  C    0.451915   0.445270   0.478163
    31  H    0.498562  -0.031819  -0.025374
    32  H   -0.031819   0.494757  -0.025348
    33  H   -0.025374  -0.025348   0.497182
 Mulliken charges:
               1
     1  C   -1.478090
     2  C    0.214246
     3  C    0.813132
     4  C    0.089858
     5  C   -0.064636
     6  C    0.149836
     7  H    0.190302
     8  O   -0.431151
     9  C   -0.292926
    10  C    0.472932
    11  C   -0.599625
    12  C   -0.111777
    13  C    0.100384
    14  H    0.207926
    15  C    0.068088
    16  H    0.197445
    17  H    0.191443
    18  H    0.123879
    19  H    0.158209
    20  H    0.166780
    21  O   -0.376242
    22  C   -0.348680
    23  H    0.189451
    24  H    0.204778
    25  H    0.206701
    26  C   -0.630737
    27  H    0.229487
    28  H    0.226899
    29  H    0.206242
    30  C   -0.732695
    31  H    0.223519
    32  H    0.227944
    33  H    0.207081
 Sum of Mulliken charges =   0.00000
 Mulliken charges with hydrogens summed into heavy atoms:
               1
     1  C   -1.311310
     2  C    0.214246
     3  C    0.937011
     4  C    0.089858
     5  C    0.125666
     6  C    0.149836
     8  O   -0.431151
     9  C   -0.292926
    10  C    0.631140
    11  C   -0.391698
    12  C    0.085668
    13  C    0.291827
    15  C    0.068088
    21  O   -0.376242
    22  C    0.252248
    26  C    0.031891
    30  C   -0.074151
 Electronic spatial extent (au):  <R**2>=           6541.7215
 Charge=              0.0000 electrons
 Dipole moment (field-independent basis, Debye):
    X=              0.3393    Y=              0.8715    Z=              1.0911  Tot=              1.4371
 Quadrupole moment (field-independent basis, Debye-Ang):
   XX=            -82.8590   YY=            -95.5708   ZZ=           -107.7994
   XY=             -5.1888   XZ=              7.5696   YZ=              1.9250
 Traceless Quadrupole moment (field-independent basis, Debye-Ang):
   XX=             12.5507   YY=             -0.1611   ZZ=            -12.3897
   XY=             -5.1888   XZ=              7.5696   YZ=              1.9250
 Octapole moment (field-independent basis, Debye-Ang**2):
  XXX=             33.0131  YYY=             -1.6194  ZZZ=              0.1456  XYY=              5.1766
  XXY=            -27.5835  XXZ=             38.6024  XZZ=              5.6453  YZZ=              1.1357
  YYZ=             -0.7936  XYZ=              8.4743
 Hexadecapole moment (field-independent basis, Debye-Ang**3):
 XXXX=          -6776.4531 YYYY=          -1211.5292 ZZZZ=           -181.5697 XXXY=            -54.3600
 XXXZ=            232.6550 YYYX=             -8.7344 YYYZ=              1.4968 ZZZX=              3.5488
 ZZZY=             -0.4101 XXYY=          -1377.8626 XXZZ=          -1357.5644 YYZZ=           -245.3120
 XXYZ=             42.7368 YYXZ=              0.1415 ZZXY=             13.6390
 N-N= 1.078400098878D+03 E-N=-3.855046638935D+03  KE= 7.243562123629D+02
 Evaluate density.
 Using the total density.
 Monte-Carlo method of calculating molar volume:
 based on  0.001 e/bohr**3 density envelope.
 Number of points per bohr**3 =   20 CutOff= 1.00D-04
 Using the SCF density.
 There are       447 points.  Will hold       447 in memory.
 LenV=  4026244987 MDV=  4026531840.
 Box volume =11202.860 fraction occupied=0.168
 Integrated density= 9.2922670946433016D+01 error=-2.9077329053566984D+01
 Molar volume = 1879.674 bohr**3/mol (167.740 cm**3/mol)
 Recommended a0 for SCRF calculation =  4.96 angstrom (  9.37 bohr)
 Calling FoFJK, ICntrl=      2127 FMM=F ISym2X=0 I1Cent= 0 IOpClX= 0 NMat=1 NMatS=1 NMatT=0.
 ***** Axes restored to original set *****
 -------------------------------------------------------------------
 Center     Atomic                   Forces (Hartrees/Bohr)
 Number     Number              X              Y              Z
 -------------------------------------------------------------------
      1        6           0.003909480    0.019568280   -0.005412545
      2        6          -0.003239669   -0.010209342   -0.005951274
      3        6          -0.000314473   -0.008955124    0.017775249
      4        6           0.006937464    0.045308361   -0.040239670
      5        6           0.000515943    0.009360873   -0.011352925
      6        6          -0.000547327   -0.005638064    0.008577419
      7        1           0.003088648    0.008602123    0.008036487
      8        8          -0.002661373   -0.003782665   -0.025248439
      9        6          -0.003785149   -0.060457519    0.032037798
     10        6           0.004887293    0.020362258   -0.004474578
     11        6          -0.004879650   -0.013183328    0.015142031
     12        6           0.003458682    0.012887211    0.008530788
     13        6          -0.008923894   -0.017839209    0.000899085
     14        1           0.003988529    0.006056093    0.009451439
     15        6           0.006528795    0.005120610   -0.017638369
     16        1          -0.002323426   -0.005562803   -0.009766934
     17        1           0.004438873    0.009838246   -0.000219097
     18        1          -0.002498798   -0.021798591    0.012252637
     19        1           0.000841001    0.017928978   -0.016715760
     20        1          -0.002430833   -0.011719447    0.002532161
     21        8          -0.006636173   -0.016208639    0.026784690
     22        6           0.008808146   -0.008279753    0.002787876
     23        1           0.003507758    0.018168850    0.007425470
     24        1           0.003297381   -0.000037077   -0.016817911
     25        1          -0.018709235   -0.002405138    0.004438933
     26        6          -0.001899065    0.012524440   -0.033691391
     27        1           0.015922230    0.001021055    0.009037185
     28        1          -0.009832181    0.008157516    0.012958771
     29        1          -0.003938760   -0.016161813    0.003240772
     30        6           0.008563022    0.022663614    0.026899876
     31        1          -0.014204740    0.003948965   -0.010998655
     32        1           0.012126915   -0.003071544   -0.013632874
     33        1          -0.003995411   -0.016207421    0.003351757
 -------------------------------------------------------------------
 Cartesian Forces:  Max     0.060457519 RMS     0.014558640

 GradGradGradGradGradGradGradGradGradGradGradGradGradGradGradGradGradGrad
 Berny optimization.
 FormGI is forming the generalized inverse of G from B-inverse, IUseBI=4.
 Internal  Forces:  Max     0.165296665 RMS     0.022304217
 Search for a local minimum.
 Step number   1 out of a maximum of  169
 All quantities printed in internal units (Hartrees-Bohrs-Radians)
 Mixed Optimization -- RFO/linear search
 Second derivative matrix not updated -- first step.
 ITU=  0
     Eigenvalues ---    0.00230   0.00230   0.00237   0.00237   0.01295
     Eigenvalues ---    0.01295   0.01309   0.01365   0.01739   0.01784
     Eigenvalues ---    0.01932   0.02070   0.02070   0.02070   0.02070
     Eigenvalues ---    0.02070   0.02070   0.02070   0.02070   0.02070
     Eigenvalues ---    0.02070   0.02070   0.02070   0.02070   0.07243
     Eigenvalues ---    0.07243   0.07243   0.07243   0.10344   0.10344
     Eigenvalues ---    0.16000   0.16000   0.16000   0.16000   0.16000
     Eigenvalues ---    0.16000   0.16000   0.16000   0.16000   0.16000
     Eigenvalues ---    0.16000   0.16000   0.16000   0.16000   0.16000
     Eigenvalues ---    0.16000   0.18708   0.22000   0.22966   0.23478
     Eigenvalues ---    0.23478   0.23500   0.23969   0.24759   0.25000
     Eigenvalues ---    0.25000   0.25000   0.25000   0.25000   0.25000
     Eigenvalues ---    0.27457   0.28519   0.28519   0.37230   0.37230
     Eigenvalues ---    0.37230   0.37230   0.37230   0.37230   0.37230
     Eigenvalues ---    0.37230   0.37230   0.37230   0.37230   0.37230
     Eigenvalues ---    0.37230   0.37230   0.37230   0.37230   0.40989
     Eigenvalues ---    0.40989   0.41268   0.41554   0.41554   0.41631
     Eigenvalues ---    0.45389   0.45389   0.45389   0.45389   0.45389
     Eigenvalues ---    0.45389   0.45389   0.45389
 RFO step:  Lambda=-1.82496789D-01 EMin= 2.30000000D-03
 Linear search not attempted -- first point.
 Maximum step size (   0.300) exceeded in Quadratic search.
    -- Step size scaled by   0.464
 Iteration  1 RMS(Cart)=  0.28205950 RMS(Int)=  0.01200799
 Iteration  2 RMS(Cart)=  0.16762353 RMS(Int)=  0.00295968
 Iteration  3 RMS(Cart)=  0.00894796 RMS(Int)=  0.00011607
 Iteration  4 RMS(Cart)=  0.00000322 RMS(Int)=  0.00011607
 Iteration  5 RMS(Cart)=  0.00000000 RMS(Int)=  0.00011607
 Variable       Old X    -DE/DX   Delta X   Delta X   Delta X     New X
                                 (Linear)    (Quad)   (Total)
    R1        2.64826  -0.00709   0.00000  -0.00513  -0.00514   2.64312
    R2        2.64826  -0.00664   0.00000  -0.00497  -0.00498   2.64328
    R3        2.02201   0.01223   0.00000   0.01024   0.01024   2.03225
    R4        2.64826  -0.00075   0.00000  -0.00037  -0.00038   2.64788
    R5        2.91018  -0.00936   0.00000  -0.00929  -0.00929   2.90088
    R6        2.64826   0.00341   0.00000   0.00262   0.00262   2.65088
    R7        2.02201  -0.01870   0.00000  -0.01565  -0.01565   2.00635
    R8        2.64826  -0.00699   0.00000  -0.00514  -0.00514   2.64313
    R9        2.93342  -0.04082   0.00000  -0.04147  -0.04147   2.89195
   R10        2.64826  -0.00464   0.00000  -0.00356  -0.00355   2.64471
   R11        2.02201   0.01209   0.00000   0.01012   0.01012   2.03213
   R12        2.91018  -0.00980   0.00000  -0.00973  -0.00973   2.90045
   R13        3.18558  -0.05265   0.00000  -0.06616  -0.06616   3.11942
   R14        2.64826  -0.00286   0.00000  -0.00199  -0.00199   2.64628
   R15        2.64826  -0.01153   0.00000  -0.00842  -0.00842   2.63984
   R16        2.64826  -0.00224   0.00000  -0.00152  -0.00153   2.64674
   R17        2.02201  -0.01923   0.00000  -0.01610  -0.01610   2.00591
   R18        2.64826  -0.00613   0.00000  -0.00458  -0.00458   2.64368
   R19        2.02201   0.01181   0.00000   0.00988   0.00988   2.03189
   R20        2.64826  -0.01358   0.00000  -0.00990  -0.00990   2.63836
   R21        2.02201   0.01140   0.00000   0.00954   0.00954   2.03155
   R22        2.64826  -0.01019   0.00000  -0.00753  -0.00753   2.64073
   R23        2.02201   0.01070   0.00000   0.00895   0.00895   2.03096
   R24        2.70231  -0.02725   0.00000  -0.02136  -0.02136   2.68095
   R25        2.70231   0.00797   0.00000   0.00625   0.00625   2.70856
   R26        2.02201   0.01954   0.00000   0.01635   0.01635   2.03836
   R27        2.02201   0.01641   0.00000   0.01374   0.01374   2.03575
   R28        2.02201   0.01913   0.00000   0.01601   0.01601   2.03802
   R29        2.02201   0.01806   0.00000   0.01512   0.01512   2.03712
   R30        2.02201   0.01791   0.00000   0.01499   0.01499   2.03700
   R31        2.02201   0.01671   0.00000   0.01398   0.01398   2.03599
   R32        2.02201   0.01809   0.00000   0.01514   0.01514   2.03715
   R33        2.02201   0.01822   0.00000   0.01525   0.01525   2.03726
   R34        2.02201   0.01671   0.00000   0.01399   0.01399   2.03600
    A1        2.09440  -0.00119   0.00000  -0.00169  -0.00170   2.09269
    A2        2.09440   0.00067   0.00000   0.00095   0.00096   2.09535
    A3        2.09440   0.00052   0.00000   0.00074   0.00075   2.09514
    A4        2.09440   0.00076   0.00000   0.00097   0.00095   2.09535
    A5        2.09440   0.00275   0.00000   0.00288   0.00289   2.09728
    A6        2.09440  -0.00351   0.00000  -0.00385  -0.00384   2.09056
    A7        2.09440   0.00398   0.00000   0.00490   0.00490   2.09930
    A8        2.09440  -0.01895   0.00000  -0.02544  -0.02544   2.06896
    A9        2.09440   0.01496   0.00000   0.02054   0.02054   2.11493
   A10        2.09440  -0.01216   0.00000  -0.01310  -0.01308   2.08131
   A11        2.09440   0.10167   0.00000   0.10919   0.10918   2.20358
   A12        2.09440  -0.08951   0.00000  -0.09609  -0.09610   1.99830
   A13        2.09440   0.01035   0.00000   0.01141   0.01143   2.10582
   A14        2.09440  -0.00658   0.00000  -0.00762  -0.00762   2.08677
   A15        2.09440  -0.00377   0.00000  -0.00380  -0.00380   2.09059
   A16        2.09440  -0.00174   0.00000  -0.00250  -0.00249   2.09190
   A17        2.09440   0.00452   0.00000   0.00517   0.00516   2.09956
   A18        2.09440  -0.00278   0.00000  -0.00267  -0.00267   2.09173
   A19        2.23319   0.16530   0.00000   0.17748   0.17748   2.41068
   A20        2.01758   0.10491   0.00000   0.11353   0.11360   2.13118
   A21        2.16295  -0.09614   0.00000  -0.10354  -0.10364   2.05931
   A22        2.09440  -0.00819   0.00000  -0.00849  -0.00848   2.08591
   A23        2.09440   0.00201   0.00000   0.00245   0.00244   2.09684
   A24        2.09440   0.01316   0.00000   0.01798   0.01797   2.11237
   A25        2.09440  -0.01517   0.00000  -0.02043  -0.02043   2.07396
   A26        2.09440   0.00598   0.00000   0.00650   0.00650   2.10090
   A27        2.09440  -0.00330   0.00000  -0.00367  -0.00367   2.09073
   A28        2.09440  -0.00269   0.00000  -0.00284  -0.00284   2.09156
   A29        2.09440   0.00189   0.00000   0.00216   0.00216   2.09655
   A30        2.09440   0.00042   0.00000   0.00076   0.00077   2.09516
   A31        2.09440  -0.00230   0.00000  -0.00293  -0.00292   2.09147
   A32        2.09440   0.00076   0.00000   0.00033   0.00033   2.09473
   A33        2.09440  -0.00175   0.00000  -0.00203  -0.00203   2.09237
   A34        2.09440   0.00099   0.00000   0.00169   0.00169   2.09609
   A35        2.09440  -0.00245   0.00000  -0.00296  -0.00297   2.09143
   A36        2.09440  -0.00434   0.00000  -0.00449  -0.00449   2.08991
   A37        2.09440   0.00679   0.00000   0.00745   0.00745   2.10185
   A38        1.91114   0.02088   0.00000   0.02242   0.02242   1.93355
   A39        1.91063   0.00680   0.00000   0.00944   0.00942   1.92006
   A40        1.91063  -0.01000   0.00000  -0.01404  -0.01402   1.89661
   A41        1.91063   0.00526   0.00000   0.00738   0.00735   1.91799
   A42        1.91063  -0.00071   0.00000  -0.00146  -0.00145   1.90918
   A43        1.91063  -0.00162   0.00000  -0.00124  -0.00129   1.90934
   A44        1.91063   0.00028   0.00000  -0.00007  -0.00007   1.91057
   A45        1.91063   0.00311   0.00000   0.00417   0.00416   1.91479
   A46        1.91063   0.00324   0.00000   0.00436   0.00435   1.91498
   A47        1.91063   0.00292   0.00000   0.00403   0.00402   1.91465
   A48        1.91063  -0.00355   0.00000  -0.00495  -0.00496   1.90567
   A49        1.91063  -0.00287   0.00000  -0.00385  -0.00386   1.90678
   A50        1.91063  -0.00284   0.00000  -0.00376  -0.00377   1.90687
   A51        1.91063   0.00330   0.00000   0.00445   0.00444   1.91508
   A52        1.91063   0.00310   0.00000   0.00416   0.00415   1.91478
   A53        1.91063   0.00343   0.00000   0.00471   0.00470   1.91534
   A54        1.91063  -0.00355   0.00000  -0.00495  -0.00496   1.90568
   A55        1.91063  -0.00314   0.00000  -0.00418  -0.00419   1.90644
   A56        1.91063  -0.00313   0.00000  -0.00420  -0.00421   1.90643
    D1        0.00000  -0.00010   0.00000  -0.00021  -0.00021  -0.00021
    D2       -3.14159  -0.00017   0.00000  -0.00040  -0.00039   3.14120
    D3       -3.14159  -0.00003   0.00000  -0.00007  -0.00007   3.14153
    D4        0.00000  -0.00011   0.00000  -0.00025  -0.00025  -0.00025
    D5        0.00000   0.00003   0.00000   0.00005   0.00005   0.00005
    D6        3.14159   0.00012   0.00000   0.00028   0.00028  -3.14132
    D7        3.14159  -0.00004   0.00000  -0.00009  -0.00009   3.14150
    D8        0.00000   0.00006   0.00000   0.00013   0.00014   0.00013
    D9        0.00000   0.00007   0.00000   0.00016   0.00016   0.00016
   D10       -3.14159  -0.00029   0.00000  -0.00066  -0.00064   3.14095
   D11        3.14159   0.00015   0.00000   0.00034   0.00034  -3.14126
   D12        0.00000  -0.00021   0.00000  -0.00047  -0.00046  -0.00046
   D13        2.14589   0.00027   0.00000   0.00051   0.00051   2.14641
   D14       -2.04290  -0.00016   0.00000  -0.00027  -0.00028  -2.04317
   D15        0.05150   0.00000   0.00000   0.00002   0.00002   0.05152
   D16       -0.99570   0.00019   0.00000   0.00033   0.00033  -0.99537
   D17        1.09870  -0.00024   0.00000  -0.00046  -0.00046   1.09824
   D18       -3.09009  -0.00008   0.00000  -0.00017  -0.00017  -3.09026
   D19        0.00000   0.00003   0.00000   0.00006   0.00006   0.00006
   D20        3.14159   0.00017   0.00000   0.00039   0.00040  -3.14119
   D21        3.14159   0.00038   0.00000   0.00088   0.00088  -3.14071
   D22        0.00000   0.00053   0.00000   0.00120   0.00122   0.00122
   D23        0.00000  -0.00010   0.00000  -0.00022  -0.00022  -0.00022
   D24       -3.14159  -0.00002   0.00000  -0.00004  -0.00004   3.14155
   D25       -3.14159  -0.00024   0.00000  -0.00055  -0.00053   3.14107
   D26        0.00000  -0.00016   0.00000  -0.00037  -0.00035  -0.00035
   D27       -0.09171   0.00104   0.00000   0.00264   0.00263  -0.08908
   D28        3.04988   0.00118   0.00000   0.00296   0.00296   3.05284
   D29        0.00000   0.00007   0.00000   0.00016   0.00017   0.00017
   D30       -3.14159  -0.00002   0.00000  -0.00006  -0.00006   3.14153
   D31       -3.14159  -0.00001   0.00000  -0.00002  -0.00001   3.14158
   D32        0.00000  -0.00010   0.00000  -0.00024  -0.00024  -0.00023
   D33        2.04575   0.00016   0.00000   0.00027   0.00027   2.04602
   D34       -2.14304  -0.00030   0.00000  -0.00057  -0.00057  -2.14361
   D35       -0.04865   0.00000   0.00000  -0.00003  -0.00004  -0.04868
   D36       -1.09585   0.00026   0.00000   0.00050   0.00050  -1.09535
   D37        0.99855  -0.00020   0.00000  -0.00034  -0.00034   0.99821
   D38        3.09294   0.00009   0.00000   0.00019   0.00019   3.09314
   D39        0.07603   0.01099   0.00000   0.02732   0.02701   0.10304
   D40       -2.92738   0.00548   0.00000   0.01405   0.01436  -2.91303
   D41       -3.00924   0.00341   0.00000  -0.00136  -0.00215  -3.01139
   D42        0.13235   0.00539   0.00000   0.00472   0.00412   0.13648
   D43        0.00000   0.00070   0.00000   0.00272   0.00282   0.00283
   D44       -3.14159   0.00268   0.00000   0.00880   0.00910  -3.13249
   D45        2.99766   0.01130   0.00000   0.01740   0.01678   3.01444
   D46       -0.14393   0.01058   0.00000   0.01738   0.01688  -0.12705
   D47        0.00000  -0.00241   0.00000  -0.00502  -0.00499  -0.00499
   D48        3.14159  -0.00314   0.00000  -0.00504  -0.00488   3.13671
   D49        0.00000   0.00121   0.00000   0.00103   0.00087   0.00087
   D50        3.14159   0.00038   0.00000   0.00077   0.00074  -3.14086
   D51        3.14159  -0.00077   0.00000  -0.00505  -0.00527   3.13632
   D52        0.00000  -0.00161   0.00000  -0.00531  -0.00540  -0.00540
   D53        0.00000   0.00220   0.00000   0.00357   0.00347   0.00347
   D54        3.14159   0.00108   0.00000   0.00256   0.00258  -3.13901
   D55        3.14159   0.00293   0.00000   0.00359   0.00336  -3.13823
   D56        0.00000   0.00181   0.00000   0.00258   0.00247   0.00247
   D57        0.00000  -0.00141   0.00000  -0.00248  -0.00241  -0.00241
   D58       -3.14159  -0.00179   0.00000  -0.00329  -0.00321   3.13838
   D59       -3.14159  -0.00058   0.00000  -0.00222  -0.00228   3.13931
   D60        0.00000  -0.00096   0.00000  -0.00303  -0.00308  -0.00308
   D61        0.00000  -0.00030   0.00000   0.00018   0.00025   0.00026
   D62       -3.14159   0.00009   0.00000   0.00099   0.00106  -3.14053
   D63       -3.14159   0.00083   0.00000   0.00119   0.00115  -3.14045
   D64        0.00000   0.00121   0.00000   0.00200   0.00195   0.00195
   D65        1.97998  -0.00049   0.00000  -0.00121  -0.00121   1.97877
   D66       -1.16161  -0.00087   0.00000  -0.00202  -0.00202  -1.16363
   D67        1.30804   0.00185   0.00000   0.00234   0.00239   1.31043
   D68       -2.88075  -0.00098   0.00000  -0.00227  -0.00227  -2.88303
   D69       -0.78636  -0.00355   0.00000  -0.00644  -0.00648  -0.79284
         Item               Value     Threshold  Converged?
 Maximum Force            0.165297     0.000450     NO 
 RMS     Force            0.022304     0.000300     NO 
 Maximum Displacement     1.357637     0.001800     NO 
 RMS     Displacement     0.442026     0.001200     NO 
 Predicted change in Energy=-7.344840D-02
 GradGradGradGradGradGradGradGradGradGradGradGradGradGradGradGradGradGrad

                          Input orientation:                          
 ---------------------------------------------------------------------
 Center     Atomic      Atomic             Coordinates (Angstroms)
 Number     Number       Type             X           Y           Z
 ---------------------------------------------------------------------
      1          6           0       -4.749883   -0.357243   -0.183214
      2          6           0       -4.875273   -0.147008   -1.560307
      3          6           0       -4.650880    1.126883   -2.099018
      4          6           0       -4.299698    2.196802   -1.262503
      5          6           0       -4.176456    1.976773    0.113255
      6          6           0       -4.399877    0.706058    0.655495
      7          1           0       -3.907439    2.793368    0.759159
      8          8           0       -4.025146    3.636793   -1.701852
      9          6           0       -3.906153    4.490833   -3.109458
     10          6           0       -4.194228    3.917851   -4.354320
[...]
 -0.00000063,0.00000153,-0.00000178,-0.00000167,-0.00000119,-0.07090717
 ,0.05687552,0.04619429,-0.00748656,0.02165798,0.01728786,0.07106322,-0
 .00007238,-0.00060768,0.00155182,0.00004972,0.00032626,0.00059045,-0.0
 0002564,0.00018650,0.00000685,-0.00028110,0.00001501,-0.00007343,-0.00
 037133,0.00073258,0.00156636,-0.00408467,0.00876250,0.00748473,0.00015
 238,-0.00011329,0.00023716,0.00005406,0.00031347,-0.00021674,0.0000055
 8,-0.00004664,0.00015533,0.00000126,0.00001477,-0.00002172,-0.00000976
 ,0.00001166,-0.00002091,0.00000398,0.00000753,-0.00000358,-0.00000819,
 0.00000850,-0.00001234,-0.00000260,-0.00000707,0.00000117,0.00001105,-
 0.00002483,0.00004939,-0.00000160,-0.00000003,-0.00000565,0.00000289,0
 .00000137,-0.00000532,0.00008302,0.00001431,-0.00001713,0.00000977,-0.
 00000795,0.00000064,-0.00006934,0.00030443,0.00027637,0.00000545,0.000
 03668,-0.00006483,-0.00002269,-0.00001772,0.00001289,0.00000361,0.0000
 0053,0.00000095,-0.00000026,0.00000143,-0.00000407,0.00000453,0.000002
 47,0.00000246,0.05765773,-0.20148270,-0.11904888,0.00259336,-0.0092201
 0,-0.00657859,-0.06358915,0.21734813,0.00145923,0.00399560,-0.00486408
 ,-0.00025848,-0.00165053,-0.00049498,0.00001692,0.00030135,0.00018142,
 -0.00026131,-0.00023635,-0.00020102,-0.00066368,-0.00180996,0.00115385
 ,0.00836090,-0.02506275,-0.01881791,0.00039914,0.00142398,0.00011271,0
 .00001131,0.00027901,0.00003528,0.00000046,-0.00003929,0.00004823,0.00
 000663,0.00002687,-0.00000319,-0.00001636,0.00000602,0.00001015,-0.000
 00297,0.00000358,0.00000910,-0.00000892,0.00000626,-0.00000691,-0.0000
 0034,-0.00000988,-0.00000423,0.00001256,-0.00001333,0.00002510,0.00000
 002,-0.00000143,-0.00000353,0.00000156,-0.00000136,-0.00000262,0.00003
 345,0.00008541,0.00003251,0.00001160,-0.00001616,-0.00000886,0.0000460
 8,0.00004001,0.00015986,0.00000153,0.00001888,-0.00002951,-0.00000977,
 -0.00001130,0.00000563,0.00000072,0.00000067,0.00000077,-0.00000023,0.
 00000055,-0.00000214,0.00000245,0.00000191,0.00000176,0.04517577,-0.11
 532712,-0.13892593,-0.00260740,0.01008558,0.00816797,-0.05043748,0.126
 56441,0.15329887,0.00096605,-0.00055834,-0.00027177,0.00011974,-0.0001
 2914,0.00034416,-0.00009348,0.00036593,0.00021819,0.00022346,0.0000451
 5,-0.00079244,-0.00023447,0.00044642,0.00083604,-0.00132453,-0.0014970
 1,-0.00054471,0.00003352,-0.00003136,-0.00007662,-0.00001495,-0.000068
 32,0.00019978,-0.00002202,0.00005056,-0.00011306,0.00000200,-0.0000041
 7,0.00000931,0.00000711,-0.00001524,0.00001469,-0.00001099,-0.00001046
 ,0.00000584,0.00000875,-0.00000884,0.00000908,0.00000416,0.00000766,-0
 .00000265,-0.00000587,0.00002930,-0.00005880,0.00000244,-0.00000016,0.
 00000379,-0.00000356,-0.00000162,0.00000408,-0.00001081,0.00004661,0.0
 0000490,-0.00001085,0.00000584,-0.00000473,-0.00034203,0.00050815,0.00
 038958,-0.00000815,-0.00003938,0.00007502,0.00002661,0.00001723,-0.000
 01655,-0.00000521,-0.00000008,-0.00000130,0.00000061,-0.00000225,0.000
 00468,-0.00000497,-0.00000169,-0.00000187,-0.17684722,-0.13117941,0.00
 596419,-0.02017771,-0.02082615,0.00012831,0.00833061,0.00791443,-0.001
 31259,0.18941257,0.00090388,0.00043714,-0.00206397,0.00054898,-0.00046
 978,0.00089538,-0.00001515,0.00047834,-0.00003947,0.00075105,-0.000205
 23,-0.00025531,-0.00082184,0.00012254,0.00219302,-0.00572288,-0.008507
 79,0.00205155,-0.00041997,0.00040788,-0.00007099,-0.00003531,-0.000326
 05,0.00043253,-0.00004217,0.00004778,-0.00023175,-0.00001940,-0.000006
 56,0.00003443,0.00001102,-0.00002258,0.00004650,-0.00000241,-0.0000124
 2,0.00001053,0.00000940,-0.00000620,0.00000903,0.00000762,0.00000665,-
 0.00000502,-0.00001118,0.00003104,-0.00006218,0.00000287,-0.00000339,0
 .00000882,-0.00000312,-0.00000274,0.00000689,-0.00019337,0.00004597,0.
 00002545,-0.00000857,0.00000395,-0.00000542,-0.00064603,0.00036292,-0.
 00004697,-0.00000276,-0.00004312,0.00008461,0.00002625,0.00001778,-0.0
 0001707,-0.00000504,-0.00000046,-0.00000135,0.00000049,-0.00000211,0.0
 0000487,-0.00000518,-0.00000171,-0.00000201,-0.13082774,-0.17932396,0.
 00220718,0.00945219,0.01039695,-0.00073224,-0.01780283,-0.01654852,0.0
 0113565,0.14490396,0.19308334,-0.00052098,0.00100980,0.00051076,-0.000
 34165,0.00015662,0.00027167,0.00018703,0.00023908,-0.00020971,-0.00108
 542,0.00078323,-0.00022643,0.00097447,-0.00052043,-0.00386375,0.022588
 77,0.02445304,-0.00193402,0.00037971,0.00015204,0.00009881,-0.00006926
 ,0.00015916,-0.00049471,0.00010123,0.00002528,0.00011874,0.00001062,0.
 00002393,-0.00001925,-0.00003178,0.00002056,-0.00002839,0.00000368,0.0
 0000263,0.00000601,-0.00000702,0.00001233,-0.00002088,-0.00000343,-0.0
 0000585,0.00000084,0.00002297,-0.00002520,0.00005443,-0.00000269,0.000
 00248,-0.00000535,0.00000336,0.00000041,-0.00000889,-0.00005676,-0.000
 05307,-0.00000871,0.00001235,-0.00001083,0.00000237,0.00029180,-0.0008
 1592,-0.00017202,0.00000494,0.00003833,-0.00007286,-0.00002570,-0.0000
 1651,0.00001488,0.00000471,-0.00000009,0.00000147,-0.00000024,0.000002
 15,-0.00000399,0.00000461,0.00000212,0.00000192,0.00546321,0.00195148,
 -0.04770570,-0.00796428,-0.00930965,-0.00000331,-0.01492652,-0.0125185
 6,0.00056011,-0.00503543,-0.00570254,0.05307106,0.00525109,0.00375303,
 0.00496223,-0.07287686,0.00654424,0.01169866,0.00353227,-0.00048903,-0
 .00140615,0.00477381,-0.00073706,0.00045492,-0.00083982,-0.00017719,0.
 00016979,0.00750863,-0.00051637,0.00208573,-0.00042800,0.00003039,-0.0
 0007164,-0.00013118,-0.00030696,0.00010303,0.00010448,0.00004521,-0.00
 015224,0.00003071,0.00005557,-0.00000298,-0.00003486,-0.00002229,0.000
 04209,-0.00002514,-0.00003196,0.00001755,-0.00003892,0.00001368,-0.000
 00867,-0.00000526,-0.00001954,-0.00002113,0.00006784,0.00002872,-0.000
 02555,-0.00001016,0.00001497,-0.00000549,-0.00000389,-0.00001549,0.000
 00264,-0.00224224,-0.00012481,-0.00048612,-0.00002446,0.00000464,0.000
 01779,-0.00431367,0.00047602,-0.00082452,-0.00003430,-0.00003121,0.000
 03997,0.00004664,0.00000990,-0.00001979,-0.00001077,0.00000263,0.00000
 411,-0.00000221,0.00000140,0.00000238,-0.00000563,-0.00000303,-0.00000
 032,-0.00004375,0.00027511,-0.00002074,0.00004592,-0.00001255,-0.00005
 261,-0.00016643,-0.00001177,0.00002083,-0.00001969,-0.00002238,0.00000
 511,0.53998424,-0.00018823,0.00844333,0.00234411,0.00749322,-0.1436788
 1,-0.06282946,0.00332072,-0.02646953,-0.02732171,-0.00123077,-0.003243
 22,0.00445483,0.00012890,0.00052714,-0.00048127,-0.00060985,-0.0013622
 9,0.00255051,0.00000734,0.00005976,-0.00007265,0.00027884,-0.00107288,
 -0.00125869,-0.00005394,0.00024275,-0.00026527,-0.00003116,0.00002926,
 0.00000545,-0.00000106,0.00002588,0.00003759,-0.00000893,-0.00000834,0
 .00002397,0.00000818,-0.00000150,0.00000150,0.00000334,-0.00000545,-0.
 00000305,0.00000464,0.00001205,-0.00001469,-0.00000114,0.00000013,0.00
 000167,-0.00000069,0.00000164,0.00000334,0.00039147,0.00118187,-0.0010
 6163,0.00000550,-0.00000730,-0.00000148,-0.00031908,0.00057971,0.00227
 435,0.00000051,-0.00001172,0.00002148,0.00000750,0.00000384,-0.0000036
 9,-0.00000017,0.00000128,-0.00000072,-0.00000036,-0.00000120,0.0000001
 5,-0.00000163,-0.00000182,-0.00000005,-0.00007188,0.00069275,0.0003909
 7,0.00004425,-0.00000038,0.00002189,-0.00004063,-0.00003981,0.00027853
 ,-0.00004166,-0.00002580,-0.00003059,0.00730784,0.54987891,0.00404319,
 -0.02171690,-0.02476348,0.01140836,-0.05707232,-0.15421481,-0.00046234
 ,-0.00295322,0.00582153,0.00064526,0.00352020,0.00230655,0.00019976,0.
 00032567,-0.00217093,0.00165216,0.00207982,-0.00193522,-0.00010103,-0.
 00004863,0.00006501,0.00009339,0.00189750,0.00019347,-0.00003450,-0.00
 024288,0.00057914,0.00002126,0.00003995,-0.00007256,-0.00001388,0.0000
 2347,-0.00006004,0.00000494,-0.00001997,-0.00002162,-0.00001237,0.0000
 0346,-0.00001785,-0.00000913,-0.00000231,0.00000649,0.00001986,-0.0000
 1151,0.00005071,-0.00000953,0.00001912,-0.00001268,0.00000218,0.000008
 86,-0.00000876,-0.00058991,0.00084148,0.00056341,0.00000337,0.00000552
 ,0.00002519,-0.00084988,-0.00119611,0.00059308,-0.00000054,0.00003870,
 -0.00009775,-0.00002870,-0.00000601,0.00001379,0.00000723,-0.00000150,
 0.00000065,0.00000154,0.00000270,-0.00000287,0.00000472,-0.00000039,0.
 00000054,0.00007717,-0.00094691,-0.00021740,-0.00003047,0.00000320,0.0
 0002758,-0.00000196,0.00008295,-0.00028541,0.00001068,0.00003304,0.000
 06835,0.00056119,-0.04731107,0.51965085,-0.00037036,0.00010153,0.00061
 507,0.00518077,-0.00094120,0.00438214,0.00092547,0.00007649,-0.0001398
 6,0.00014964,-0.00012790,-0.00018666,-0.00008011,-0.00006916,0.0001789
 9,-0.00043351,0.00011660,0.00013391,-0.00002754,-0.00001418,0.00000564
 ,-0.00001945,-0.00023259,0.00013911,-0.00000289,0.00007353,-0.00017259
 ,0.00002135,0.00002186,0.00000316,-0.00001714,-0.00001445,0.00001011,-
 0.00000688,0.00001163,0.00003050,-0.00000293,0.00000306,0.00001269,0.0
 0000587,0.00000562,-0.00000133,-0.00000883,0.00000543,-0.00002829,0.00
 001163,-0.00001486,-0.00000186,-0.00000143,-0.00000578,-0.00000116,-0.
 00029823,-0.00028638,-0.00007723,-0.00000534,0.00000064,-0.00000968,0.
 00015129,-0.00001754,0.00010362,0.00000352,-0.00000669,0.00005219,0.00
 000974,-0.00001147,-0.00000551,-0.00000811,-0.00000066,-0.00000144,-0.
 00000037,-0.00000302,0.00000065,-0.00000175,0.00000513,0.00000339,0.00
 003107,0.00000483,0.00003690,-0.00000473,0.,0.00001032,0.00000999,-0.0
 0000951,0.00000195,0.00000126,0.00000221,0.00000429,-0.18235838,0.0243
 6550,-0.12785663,0.19679006,-0.00039041,-0.00145407,0.00031146,-0.0163
 9934,0.00271985,-0.01653814,0.00053593,-0.00028587,-0.00106422,0.00036
 037,0.00057852,0.00080010,-0.00002576,0.00026082,-0.00082393,0.0006717
 2,-0.00054151,-0.00045752,0.00011199,0.00001184,0.00004369,-0.00002781
 ,-0.00003778,0.00012354,-0.00001662,0.00008136,-0.00017727,-0.00000685
 ,0.00004298,0.00001241,-0.00000941,-0.00000761,0.00001908,0.00001102,0
 .00001999,0.00003242,0.00000048,0.00000577,0.00000347,0.00000726,0.000
 00344,-0.00000506,-0.00001258,-0.00001680,0.00002619,0.00001021,-0.000
 02052,0.00000321,0.00000239,-0.00000434,0.00000047,-0.00027251,-0.0002
 9541,0.00036640,0.00000718,-0.00002410,-0.00003167,0.00002914,0.000242
 36,-0.00020389,0.00000992,0.00001452,-0.00000631,-0.00000871,-0.000015
 30,0.00000684,-0.00000084,0.00000036,0.00000034,-0.00000052,0.00000037
 ,-0.00000224,0.00000204,0.00000371,0.00000202,0.00007143,-0.00015871,-
 0.00000885,-0.00002030,0.00001641,0.00000010,-0.00002863,0.00000927,-0
 .00004600,0.00001436,0.00001790,0.00001268,0.02340409,-0.05294767,0.02
 308108,-0.02802683,0.05423224,0.00003719,-0.00289707,-0.00118001,-0.01
 579640,0.00137312,-0.01934174,0.00071944,0.00191047,0.00103186,0.00113
 896,-0.00007978,-0.00115063,-0.00018350,-0.00041821,0.00033886,0.00148
 496,0.00039470,-0.00013295,-0.00016111,-0.00004662,-0.00001744,-0.0001
 1594,-0.00034090,0.00033237,0.00000506,0.00012404,-0.00028754,-0.00002
 463,-0.00000609,0.00003838,0.00000654,-0.00004107,0.00004354,-0.000003
 01,-0.00000075,0.00002742,0.00001108,0.00000171,-0.00000339,0.00001138
 ,0.00001012,-0.00000429,-0.00000664,0.00001921,-0.00004393,0.00000599,
 -0.00001506,0.00001133,-0.00000141,-0.00000259,0.00000568,-0.00079468,
 -0.00025254,0.00022144,-0.00000492,-0.00001574,-0.00003005,-0.00077455
 ,-0.00000088,-0.00005345,0.00000311,-0.00003119,0.00007025,0.00001657,
 0.00000955,-0.00001177,-0.00000368,-0.00000025,-0.00000124,0.00000023,
 -0.00000214,0.00000342,-0.00000312,-0.00000003,-0.00000085,0.00000366,
 -0.00022489,-0.00007515,-0.00000091,0.00001337,-0.00002096,-0.00001442
 ,-0.00000250,-0.00010660,-0.00000280,0.00003018,0.00000652,-0.12887384
 ,0.02412350,-0.16420830,0.14015187,-0.02256270,0.18054958,-0.00019941,
 0.00078471,-0.00019597,0.00065577,0.00027086,0.00070693,0.00106207,-0.
 00075739,0.00006489,0.00021307,0.00014791,0.00069383,-0.00000111,0.000
 29223,-0.00037144,0.00003056,-0.00041251,-0.00020589,-0.00007038,0.000
 03409,-0.00002897,0.00005742,0.00031281,-0.00022275,-0.00001514,-0.000
 08556,0.00022024,-0.00002962,-0.00000535,-0.00002376,0.00001468,-0.000
 00198,-0.00000814,0.00000516,-0.00000818,-0.00001329,0.00000555,-0.000
 00037,-0.00003780,-0.00000511,0.00000234,0.00001079,0.00000922,-0.0000
 1366,0.00004636,-0.00000732,0.00000595,0.00000152,0.00000290,0.0000141
 2,-0.00000074,-0.00043969,0.00043235,-0.00015031,0.00001436,-0.0000081
 4,0.00000302,-0.00002409,0.00001244,-0.00011138,0.00001175,0.00002461,
 -0.00007671,-0.00003466,0.00000523,0.00001671,0.00001274,-0.00000143,0
 .00000015,0.00000092,0.00000278,-0.00000219,0.00000503,-0.00000359,-0.
 00000237,0.00000896,0.00004751,-0.00000412,0.00000739,-0.00000537,0.00
 000311,-0.00000427,0.00000980,0.00002325,0.00000261,-0.00000181,-0.000
 00742,-0.24809174,-0.02712574,0.10594241,-0.02181199,-0.00366673,0.011
 09886,0.26877045,0.00012602,-0.00177371,0.00015316,0.02019836,0.002574
 49,-0.01138118,-0.00019319,-0.00015136,-0.00121563,-0.00041199,0.00055
 685,0.00058886,0.00026277,0.00020462,-0.00068401,-0.00046872,-0.000328
 47,-0.00069663,-0.00012469,0.00001926,0.00000759,0.00008374,-0.0000171
 2,0.00009399,-0.00003821,0.00007812,-0.00011506,0.00002737,0.00000641,
 0.00002340,-0.00000850,0.00001653,0.00000011,0.00000121,0.00001292,-0.
 00000817,-0.00001148,0.00000268,0.00003469,0.00000197,-0.00001193,-0.0
 0001251,-0.00000939,-0.00001217,0.00001515,0.00000295,-0.00000676,-0.0
 0000064,0.00000082,-0.00001032,0.00000036,0.00005631,-0.00035268,0.000
 43743,-0.00000981,-0.00000235,-0.00000733,0.00006490,0.00024737,-0.000
 23099,0.00000135,0.00000655,-0.00000051,0.00000200,-0.00001252,0.00000
 176,-0.00000311,0.00000057,0.00000169,-0.00000155,0.00000062,-0.000001
 41,0.00000038,0.00000270,0.00000178,-0.00005046,-0.00019367,-0.0000163
 8,-0.00001764,0.00002256,0.00000976,0.00002360,0.00000764,-0.00002910,
 0.00001816,0.00002996,0.00000607,-0.02630324,-0.05258685,0.01472490,0.
 00479882,0.00025144,-0.00237229,0.03023516,0.05364214,0.00029371,-0.00
 304699,-0.00133471,0.02137168,0.00170213,-0.01486784,-0.00058923,0.001
 77443,0.00088841,-0.00067211,0.00006279,-0.00114486,0.00007178,-0.0002
 7500,0.00026903,-0.00131761,0.00040194,-0.00082385,0.00014713,-0.00005
 571,0.00003158,-0.00001748,-0.00026418,0.00022822,0.00000215,0.0000611
 1,-0.00016946,0.00000607,-0.00003004,0.00004482,0.00002170,0.00000592,
 0.00001501,-0.00000557,-0.00000093,-0.00001836,0.00000682,-0.00001126,
 0.00003042,0.00000120,-0.00000813,-0.00001042,-0.00001928,0.00001704,-
 0.00004123,0.00000059,-0.00000141,0.00000534,-0.00000143,-0.00000634,0
 .00000648,0.00056732,-0.00024046,0.00048819,-0.00001465,0.00000432,-0.
 00000793,0.00069851,-0.00009665,0.00022191,-0.00001134,-0.00003387,0.0
 0005826,0.00002698,0.00001550,-0.00001451,-0.00000382,0.00000177,0.000
 00017,-0.00000018,-0.00000117,0.00000348,-0.00000360,-0.00000282,-0.00
 000268,0.00004096,-0.00026282,-0.00006024,-0.00001774,0.00001978,-0.00
 001693,0.00003891,0.00000566,-0.00009478,0.00000378,0.00002644,0.00000
 906,0.10647105,0.01520380,-0.09995792,-0.02030717,-0.00327930,0.011555
 66,-0.11673899,-0.01270063,0.11029678,-0.00019797,0.00033557,-0.000136
 66,-0.00119127,0.00298249,-0.00146735,0.00115779,0.00032401,0.00074731
 ,0.00073864,0.00003749,-0.00007010,-0.00007283,-0.00003878,0.00004288,
 -0.00018377,0.00004241,-0.00005474,0.00002902,-0.00000901,0.00000271,-
 0.00021713,0.00005365,0.00000164,0.00001258,-0.00000012,0.00001085,-0.
 00000954,0.00000983,-0.00000953,0.00000726,-0.00001673,0.00000669,0.00
 000039,0.00000069,0.00001300,0.00000055,0.00000237,-0.00001691,0.00000
 223,0.00000504,0.00000474,0.00000165,0.00000158,0.00000284,0.00000245,
 -0.00000444,0.00000078,0.00000043,0.00000390,0.00000057,-0.00034764,0.
 00007452,-0.00008095,0.00000654,-0.00000730,-0.00000825,0.00035107,-0.
 00003701,0.00021366,0.00000235,0.00000172,-0.00000426,-0.00000501,0.00
 000134,0.00000192,0.00000152,-0.00000021,-0.00000078,0.00000081,-0.000
 00021,-0.00000008,0.00000078,-0.00000032,-0.00000023,-0.00000311,0.000
 00440,-0.00000373,-0.00000793,-0.00000243,-0.00002322,-0.00000664,-0.0
 0000262,-0.00000685,-0.00000498,-0.00001076,0.00001571,-0.04963826,-0.
 01364083,0.00530219,0.00216832,0.02366431,-0.00792933,-0.00015608,-0.0
 2825394,0.00994987,0.04755780,-0.00038736,0.00092258,0.00220301,-0.001
 48341,-0.02014524,0.00881690,0.00073404,-0.00186196,-0.00449623,-0.000
 30378,-0.00026289,0.00126276,0.00005591,0.00023978,-0.00026044,0.00001
 578,0.00000821,-0.00023738,0.00002252,0.00005838,-0.00007683,0.0000603
 3,-0.00064481,-0.00020464,-0.00002015,0.00017396,-0.00029924,-0.000011
 47,-0.00003098,0.00002026,0.00003277,-0.00001271,0.00001423,-0.0000233
 0,-0.00001918,-0.00000080,0.00002716,-0.00001516,0.00002779,0.00000649
 ,0.00001422,-0.00000170,-0.00002466,0.00006528,-0.00013127,0.00000490,
 -0.00000191,0.00000863,-0.00000677,-0.00000534,0.00000868,0.00005334,0
 .00038113,-0.00004275,-0.00002627,0.00001528,-0.00000251,0.00026557,0.
 00086748,-0.00108133,-0.00001713,-0.00008909,0.00016932,0.00006144,0.0
 0003819,-0.00003715,-0.00001183,0.00000062,-0.00000265,0.00000085,-0.0
 0000506,0.00000987,-0.00001086,-0.00000447,-0.00000421,-0.00003387,-0.
 00000525,0.00002068,-0.00001156,0.00000774,-0.00005436,0.00000073,0.00
 001130,0.00000027,0.00004149,0.00001828,-0.00004419,-0.01314259,-0.280
 21574,0.08479811,0.00018936,-0.00270348,0.00130332,-0.00053709,-0.0022
 2352,0.00101507,0.01447943,0.30542434,-0.00025834,-0.00157490,0.000899
 94,-0.00163448,-0.02477421,0.00921050,0.00082328,-0.00246903,-0.003963
 29,-0.00015673,-0.00104660,0.00083030,0.00002441,0.00015915,-0.0001091
 8,-0.00005398,-0.00015244,0.00018658,-0.00000274,0.00004865,-0.0000072
 1,0.00003690,-0.00036874,-0.00025988,-0.00002250,0.00010120,-0.0001588
 3,-0.00000028,0.00001258,0.00000325,-0.00000433,-0.00000143,0.00001036
 ,0.00000451,0.00001530,0.00001870,-0.00000897,0.00000826,0.00000869,0.
 00000267,-0.00000464,-0.00000454,-0.00000302,-0.00001983,0.00002758,0.
 00000615,-0.00001261,0.00000024,0.00000211,-0.00000634,-0.00000031,-0.
 00004342,-0.00021126,0.00002842,0.00000353,-0.00001061,-0.00001270,0.0
 0020667,0.00026806,-0.00079454,0.00000721,0.00001617,-0.00001143,-0.00
 000677,-0.00001736,0.00000748,-0.00000187,0.00000026,0.00000118,-0.000
 00149,0.00000070,-0.00000278,0.00000183,0.00000357,0.00000244,-0.00001
 241,0.00008501,0.00003693,-0.00000102,-0.00000423,-0.00000660,-0.00000
 756,0.00000466,0.00004840,0.00000921,0.00000018,-0.00001901,0.00531274
 ,0.08891840,-0.08191873,0.00291292,0.02036159,-0.00756602,-0.00062983,
 0.01337174,-0.00558710,-0.00650440,-0.09270124,0.08910116\\-0.00000422
 ,0.00000465,0.00001103,0.00000264,0.00000879,-0.00000463,-0.00000103,-
 0.00001030,-0.00000381,-0.00000251,0.00000965,0.00001158,0.00000014,0.
 00000433,-0.00000126,0.00000305,-0.00001538,-0.00000541,0.00000228,-0.
 00000135,0.00000011,-0.00000085,-0.00000321,-0.00000378,-0.00000558,-0
 .00000908,0.00000412,0.00000154,0.00000026,0.00000300,0.00000570,0.000
 01146,-0.00001029,0.00000152,0.00000664,-0.00000430,0.00000465,-0.0000
 0333,0.00000773,-0.00000025,-0.00000136,-0.00000033,-0.00000359,-0.000
 00132,-0.00000677,0.00000027,-0.00000063,0.00000126,-0.00000034,0.0000
 0140,-0.00000142,0.00000076,0.00000045,-0.00000125,-0.00000091,0.00000
 067,0.00000012,0.00000092,0.00000012,-0.00000089,0.00000082,-0.0000018
 9,0.00000026,0.00000043,0.00000360,0.00000472,-0.00000049,-0.00000100,
 -0.00000144,-0.00000056,-0.00000143,0.00000119,-0.00000053,-0.00000260
 ,-0.00000037,0.00000329,0.00000233,0.00000275,-0.00000320,0.00000006,-
 0.00000069,-0.00000064,0.00000005,-0.00000058,-0.00000076,-0.00000049,
 0.00000075,-0.00000012,-0.00000105,-0.00000055,-0.00000002,-0.00000059
 ,0.00000001,-0.00000166,-0.00000029,-0.00000015,-0.00000075,0.00000082
 ,-0.00000072\\\@


 PERICLES, SOPHOCLES,
 PELOPONESIAN WAR,
 FRENCH VERBS, LATIN VERBS
 H2SO4.
 Job cpu time:       0 days  3 hours 26 minutes 47.6 seconds.
 Elapsed time:       0 days  0 hours  6 minutes 53.7 seconds.
 File lengths (MBytes):  RWF=    443 Int=      0 D2E=      0 Chk=     14 Scr=      1
 Normal termination of Gaussian 16 at Fri Sep 15 09:12:52 2023.
