 Entering Gaussian System, Link 0=/home/ubuntu/g16/g16
 Input=/home/ubuntu/products/molecule_40.gjf
 Output=/home/ubuntu/products/molecule_40.log
 Initial command:
 /home/ubuntu/g16/l1.exe "/home/ubuntu/Scratch/Gau-38929.inp" -scrdir="/home/ubuntu/Scratch/"
 Entering Link 1 = /home/ubuntu/g16/l1.exe PID=     38931.
  
 Copyright (c) 1988-2017, Gaussian, Inc.  All Rights Reserved.
  
 This is part of the Gaussian(R) 16 program.  It is based on
 the Gaussian(R) 09 system (copyright 2009, Gaussian, Inc.),
 the Gaussian(R) 03 system (copyright 2003, Gaussian, Inc.),
 the Gaussian(R) 98 system (copyright 1998, Gaussian, Inc.),
 the Gaussian(R) 94 system (copyright 1995, Gaussian, Inc.),
 the Gaussian 92(TM) system (copyright 1992, Gaussian, Inc.),
 the Gaussian 90(TM) system (copyright 1990, Gaussian, Inc.),
 the Gaussian 88(TM) system (copyright 1988, Gaussian, Inc.),
 the Gaussian 86(TM) system (copyright 1986, Carnegie Mellon
 University), and the Gaussian 82(TM) system (copyright 1983,
 Carnegie Mellon University). Gaussian is a federally registered
 trademark of Gaussian, Inc.
  
 This software contains proprietary and confidential information,
 including trade secrets, belonging to Gaussian, Inc.
  
 This software is provided under written license and may be
 used, copied, transmitted, or stored only in accord with that
 written license.
  
 The following legend is applicable only to US Government
 contracts under FAR:
  
                    RESTRICTED RIGHTS LEGEND
  
 Use, reproduction and disclosure by the US Government is
 subject to restrictions as set forth in subparagraphs (a)
 and (c) of the Commercial Computer Software - Restricted
 Rights clause in FAR 52.227-19.
  
 Gaussian, Inc.
 340 Quinnipiac St., Bldg. 40, Wallingford CT 06492
  
  
 ---------------------------------------------------------------
 Warning -- This program may not be used in any manner that
 competes with the business of Gaussian, Inc. or will provide
 assistance to any competitor of Gaussian, Inc.  The licensee
 of this program is prohibited from giving any competitor of
 Gaussian, Inc. access to this program.  By using this program,
 the user acknowledges that Gaussian, Inc. is engaged in the
 business of creating and licensing software in the field of
 computational chemistry and represents and warrants to the
 licensee that it is not a competitor of Gaussian, Inc. and that
 it will not use this program in any manner prohibited above.
 ---------------------------------------------------------------
  

 Cite this work as:
 Gaussian 16, Revision B.01,
 M. J. Frisch, G. W. Trucks, H. B. Schlegel, G. E. Scuseria, 
 M. A. Robb, J. R. Cheeseman, G. Scalmani, V. Barone, 
 G. A. Petersson, H. Nakatsuji, X. Li, M. Caricato, A. V. Marenich, 
 J. Bloino, B. G. Janesko, R. Gomperts, B. Mennucci, H. P. Hratchian, 
 J. V. Ortiz, A. F. Izmaylov, J. L. Sonnenberg, D. Williams-Young, 
 F. Ding, F. Lipparini, F. Egidi, J. Goings, B. Peng, A. Petrone, 
 T. Henderson, D. Ranasinghe, V. G. Zakrzewski, J. Gao, N. Rega, 
 G. Zheng, W. Liang, M. Hada, M. Ehara, K. Toyota, R. Fukuda, 
 J. Hasegawa, M. Ishida, T. Nakajima, Y. Honda, O. Kitao, H. Nakai, 
 T. Vreven, K. Throssell, J. A. Montgomery, Jr., J. E. Peralta, 
 F. Ogliaro, M. J. Bearpark, J. J. Heyd, E. N. Brothers, K. N. Kudin, 
 V. N. Staroverov, T. A. Keith, R. Kobayashi, J. Normand, 
 K. Raghavachari, A. P. Rendell, J. C. Burant, S. S. Iyengar, 
 J. Tomasi, M. Cossi, J. M. Millam, M. Klene, C. Adamo, R. Cammi, 
 J. W. Ochterski, R. L. Martin, K. Morokuma, O. Farkas, 
 J. B. Foresman, and D. J. Fox, Gaussian, Inc., Wallingford CT, 2016.
 
 ******************************************
 Gaussian 16:  EM64L-G16RevB.01 20-Dec-2017
                18-Sep-2023 
 ******************************************
 %nprocshared=30
 Will use up to   30 processors via shared memory.
 %mem=30GB
 %chk=molecule_40.chk
 ----------------------------------------------------------------------
 # opt freq b3lyp/6-31+g(d) geom=connectivity empiricaldispersion=gd3 v
 olume
 ----------------------------------------------------------------------
 1/18=20,19=15,26=3,38=1,57=2/1,3;
 2/9=110,12=2,17=6,18=5,40=1/2;
 3/5=1,6=6,7=11,11=2,25=1,30=1,71=1,74=-5,124=31/1,2,3;
 4//1;
 5/5=2,38=5/2;
 6/7=2,8=2,9=2,10=2,28=1,44=1/1,4;
 7//1,2,3,16;
 1/18=20,19=15,26=3/3(2);
 2/9=110/2;
 99//99;
 2/9=110/2;
 3/5=1,6=6,7=11,11=2,25=1,30=1,71=1,74=-5,124=31/1,2,3;
 4/5=5,16=3,69=1/1;
 5/5=2,38=5/2;
 7//1,2,3,16;
 1/18=20,19=15,26=3/3(-5);
 2/9=110/2;
 6/7=2,8=2,9=2,10=2,19=2,28=1,44=1/1,4;
 99/9=1/99;
 -------------------
 Title Card Required
 -------------------
 Symbolic Z-matrix:
 Charge =  0 Multiplicity = 1
 C                     5.91523  -1.25898  -0.00292 
 C                     3.82452  -0.01442  -0.00585 
 C                     4.57086   1.183    -0.0135 
 C                     5.96269   1.14684  -0.01478 
 C                     6.66161  -0.07048  -0.00656 
 H                     6.43375  -2.21556  -0.00257 
 H                     4.04738   2.13466  -0.0218 
 H                     6.51868   2.08212  -0.02394 
 C                     2.40344   0.01419  -0.00599 
 C                     1.18096   0.04073  -0.00534 
 C                    -0.17914   0.06978  -0.00417 
 C                    -1.40182   0.09543  -0.00273 
 C                    -2.82154   0.13139  -0.00079 
 C                    -3.51594   1.36434   0.00643 
 C                    -4.9016    1.3991    0.00858 
 H                    -2.9505    2.29146   0.0104 
 C                    -4.97095  -1.02838  -0.00361 
 C                    -5.64082   0.20385   0.0036 
 H                    -5.44      2.34198   0.01418 
 H                    -5.51803  -1.96422  -0.0076 
 C                     4.52276  -1.24021  -0.00159 
 H                     3.96222  -2.17056  -0.00059 
 C                    -3.57609  -1.05686  -0.00576 
 H                    -3.06021  -2.01256  -0.01137 
 C                     8.17143  -0.09911   0.02905 
 H                     8.60212   0.76218  -0.49397 
 H                     8.53957  -0.07042   1.06389 
 H                     8.56721  -1.01017  -0.43337 
 O                    -6.99658   0.34864   0.00632 
 C                    -7.80952  -0.82012   0.00168 
 H                    -8.84059  -0.46281   0.005 
 H                    -7.63406  -1.42352  -0.89892 
 H                    -7.63138  -1.43248   0.89567 
 

 GradGradGradGradGradGradGradGradGradGradGradGradGradGradGradGradGradGrad
 Berny optimization.
 Initialization pass.
                           ----------------------------
                           !    Initial Parameters    !
                           ! (Angstroms and Degrees)  !
 --------------------------                            --------------------------
 ! Name  Definition              Value          Derivative Info.                !
 --------------------------------------------------------------------------------
 ! R1    R(1,5)                  1.4034         estimate D2E/DX2                !
 ! R2    R(1,6)                  1.0881         estimate D2E/DX2                !
 ! R3    R(1,21)                 1.3926         estimate D2E/DX2                !
 ! R4    R(2,3)                  1.411          estimate D2E/DX2                !
 ! R5    R(2,9)                  1.4214         estimate D2E/DX2                !
 ! R6    R(2,21)                 1.4107         estimate D2E/DX2                !
 ! R7    R(3,4)                  1.3923         estimate D2E/DX2                !
 ! R8    R(3,7)                  1.0862         estimate D2E/DX2                !
 ! R9    R(4,5)                  1.4037         estimate D2E/DX2                !
 ! R10   R(4,8)                  1.0881         estimate D2E/DX2                !
 ! R11   R(5,25)                 1.5105         estimate D2E/DX2                !
 ! R12   R(9,10)                 1.2228         estimate D2E/DX2                !
 ! R13   R(10,11)                1.3604         estimate D2E/DX2                !
 ! R14   R(11,12)                1.223          estimate D2E/DX2                !
 ! R15   R(12,13)                1.4202         estimate D2E/DX2                !
 ! R16   R(13,14)                1.4151         estimate D2E/DX2                !
 ! R17   R(13,23)                1.4076         estimate D2E/DX2                !
 ! R18   R(14,15)                1.3861         estimate D2E/DX2                !
 ! R19   R(14,16)                1.086          estimate D2E/DX2                !
 ! R20   R(15,18)                1.4054         estimate D2E/DX2                !
 ! R21   R(15,19)                1.0858         estimate D2E/DX2                !
 ! R22   R(17,18)                1.4026         estimate D2E/DX2                !
 ! R23   R(17,20)                1.084          estimate D2E/DX2                !
 ! R24   R(17,23)                1.3952         estimate D2E/DX2                !
 ! R25   R(18,29)                1.3635         estimate D2E/DX2                !
 ! R26   R(21,22)                1.0862         estimate D2E/DX2                !
 ! R27   R(23,24)                1.0861         estimate D2E/DX2                !
 ! R28   R(25,26)                1.0958         estimate D2E/DX2                !
 ! R29   R(25,27)                1.0987         estimate D2E/DX2                !
 ! R30   R(25,28)                1.0957         estimate D2E/DX2                !
 ! R31   R(29,30)                1.4237         estimate D2E/DX2                !
 ! R32   R(30,31)                1.0912         estimate D2E/DX2                !
 ! R33   R(30,32)                1.0982         estimate D2E/DX2                !
 ! R34   R(30,33)                1.0982         estimate D2E/DX2                !
 ! A1    A(5,1,6)              119.4106         estimate D2E/DX2                !
 ! A2    A(5,1,21)             121.3568         estimate D2E/DX2                !
 ! A3    A(6,1,21)             119.2325         estimate D2E/DX2                !
 ! A4    A(3,2,9)              120.7809         estimate D2E/DX2                !
 ! A5    A(3,2,21)             118.3985         estimate D2E/DX2                !
 ! A6    A(9,2,21)             120.8204         estimate D2E/DX2                !
 ! A7    A(2,3,4)              120.4461         estimate D2E/DX2                !
 ! A8    A(2,3,7)              119.2525         estimate D2E/DX2                !
 ! A9    A(4,3,7)              120.3011         estimate D2E/DX2                !
 ! A10   A(3,4,5)              121.3498         estimate D2E/DX2                !
 ! A11   A(3,4,8)              119.2405         estimate D2E/DX2                !
 ! A12   A(5,4,8)              119.4095         estimate D2E/DX2                !
 ! A13   A(1,5,4)              118.009          estimate D2E/DX2                !
 ! A14   A(1,5,25)             121.0292         estimate D2E/DX2                !
 ! A15   A(4,5,25)             120.9475         estimate D2E/DX2                !
 ! A16   A(12,13,14)           120.8394         estimate D2E/DX2                !
 ! A17   A(12,13,23)           120.9646         estimate D2E/DX2                !
 ! A18   A(14,13,23)           118.196          estimate D2E/DX2                !
 ! A19   A(13,14,15)           120.8256         estimate D2E/DX2                !
 ! A20   A(13,14,16)           119.2332         estimate D2E/DX2                !
 ! A21   A(15,14,16)           119.9412         estimate D2E/DX2                !
 ! A22   A(14,15,18)           120.2976         estimate D2E/DX2                !
 ! A23   A(14,15,19)           121.1641         estimate D2E/DX2                !
 ! A24   A(18,15,19)           118.5384         estimate D2E/DX2                !
 ! A25   A(18,17,20)           121.1613         estimate D2E/DX2                !
 ! A26   A(18,17,23)           119.6989         estimate D2E/DX2                !
 ! A27   A(20,17,23)           119.1398         estimate D2E/DX2                !
 ! A28   A(15,18,17)           119.736          estimate D2E/DX2                !
 ! A29   A(15,18,29)           115.6391         estimate D2E/DX2                !
 ! A30   A(17,18,29)           124.6249         estimate D2E/DX2                !
 ! A31   A(1,21,2)             120.4391         estimate D2E/DX2                !
 ! A32   A(1,21,22)            120.2968         estimate D2E/DX2                !
 ! A33   A(2,21,22)            119.2638         estimate D2E/DX2                !
 ! A34   A(13,23,17)           121.246          estimate D2E/DX2                !
 ! A35   A(13,23,24)           119.2247         estimate D2E/DX2                !
 ! A36   A(17,23,24)           119.5293         estimate D2E/DX2                !
 ! A37   A(5,25,26)            111.5119         estimate D2E/DX2                !
 ! A38   A(5,25,27)            110.892          estimate D2E/DX2                !
 ! A39   A(5,25,28)            111.522          estimate D2E/DX2                !
 ! A40   A(26,25,27)           107.2964         estimate D2E/DX2                !
 ! A41   A(26,25,28)           108.0677         estimate D2E/DX2                !
 ! A42   A(27,25,28)           107.3481         estimate D2E/DX2                !
 ! A43   A(18,29,30)           118.7246         estimate D2E/DX2                !
 ! A44   A(29,30,31)           105.7068         estimate D2E/DX2                !
 ! A45   A(29,30,32)           111.255          estimate D2E/DX2                !
 ! A46   A(29,30,33)           111.254          estimate D2E/DX2                !
 ! A47   A(31,30,32)           109.4737         estimate D2E/DX2                !
 ! A48   A(31,30,33)           109.4738         estimate D2E/DX2                !
 ! A49   A(32,30,33)           109.5917         estimate D2E/DX2                !
 ! A50   L(2,9,10,7,-1)        179.91           estimate D2E/DX2                !
 ! A51   L(9,10,11,7,-1)       180.0202         estimate D2E/DX2                !
 ! A52   L(10,11,12,16,-1)     180.0216         estimate D2E/DX2                !
 ! A53   L(11,12,13,16,-1)     179.7509         estimate D2E/DX2                !
 ! A54   L(2,9,10,7,-2)        180.0457         estimate D2E/DX2                !
 ! A55   L(9,10,11,7,-2)       180.03           estimate D2E/DX2                !
 ! A56   L(10,11,12,16,-2)     180.0306         estimate D2E/DX2                !
 ! A57   L(11,12,13,16,-2)     180.0122         estimate D2E/DX2                !
 ! D1    D(6,1,5,4)            179.6364         estimate D2E/DX2                !
 ! D2    D(6,1,5,25)            -1.7282         estimate D2E/DX2                !
 ! D3    D(21,1,5,4)            -0.275          estimate D2E/DX2                !
 ! D4    D(21,1,5,25)          178.3605         estimate D2E/DX2                !
 ! D5    D(5,1,21,2)             0.0925         estimate D2E/DX2                !
 ! D6    D(5,1,21,22)          179.8889         estimate D2E/DX2                !
 ! D7    D(6,1,21,2)          -179.819          estimate D2E/DX2                !
 ! D8    D(6,1,21,22)           -0.0226         estimate D2E/DX2                !
 ! D9    D(9,2,3,4)           -179.9297         estimate D2E/DX2                !
 ! D10   D(9,2,3,7)             -0.1373         estimate D2E/DX2                !
 ! D11   D(21,2,3,4)            -0.0919         estimate D2E/DX2                !
 ! D12   D(21,2,3,7)           179.7006         estimate D2E/DX2                !
 ! D13   D(3,2,13,14)           -0.6488         estimate D2E/DX2                !
 ! D14   D(3,2,13,23)          179.4025         estimate D2E/DX2                !
 ! D15   D(21,2,13,14)         179.4582         estimate D2E/DX2                !
 ! D16   D(21,2,13,23)          -0.4906         estimate D2E/DX2                !
 ! D17   D(3,2,21,1)             0.0939         estimate D2E/DX2                !
 ! D18   D(3,2,21,22)         -179.7046         estimate D2E/DX2                !
 ! D19   D(9,2,21,1)           179.9317         estimate D2E/DX2                !
 ! D20   D(9,2,21,22)            0.1332         estimate D2E/DX2                !
 ! D21   D(2,3,4,5)             -0.0966         estimate D2E/DX2                !
 ! D22   D(2,3,4,8)            179.8061         estimate D2E/DX2                !
 ! D23   D(7,3,4,5)           -179.8869         estimate D2E/DX2                !
 ! D24   D(7,3,4,8)              0.0158         estimate D2E/DX2                !
 ! D25   D(3,4,5,1)              0.277          estimate D2E/DX2                !
 ! D26   D(3,4,5,25)          -178.3596         estimate D2E/DX2                !
 ! D27   D(8,4,5,1)           -179.6255         estimate D2E/DX2                !
 ! D28   D(8,4,5,25)             1.7379         estimate D2E/DX2                !
 ! D29   D(1,5,25,26)          149.4892         estimate D2E/DX2                !
 ! D30   D(1,5,25,27)          -91.0048         estimate D2E/DX2                !
 ! D31   D(1,5,25,28)           28.5732         estimate D2E/DX2                !
 ! D32   D(4,5,25,26)          -31.9155         estimate D2E/DX2                !
 ! D33   D(4,5,25,27)           87.5905         estimate D2E/DX2                !
 ! D34   D(4,5,25,28)         -152.8316         estimate D2E/DX2                !
 ! D35   D(12,13,14,15)       -179.9879         estimate D2E/DX2                !
 ! D36   D(12,13,14,16)          0.0069         estimate D2E/DX2                !
 ! D37   D(23,13,14,15)          0.0017         estimate D2E/DX2                !
 ! D38   D(23,13,14,16)        179.9965         estimate D2E/DX2                !
 ! D39   D(12,13,23,17)        179.9873         estimate D2E/DX2                !
 ! D40   D(12,13,23,24)         -0.0132         estimate D2E/DX2                !
 ! D41   D(14,13,23,17)         -0.0023         estimate D2E/DX2                !
 ! D42   D(14,13,23,24)        179.9972         estimate D2E/DX2                !
 ! D43   D(13,14,15,18)          0.0001         estimate D2E/DX2                !
 ! D44   D(13,14,15,19)        179.9956         estimate D2E/DX2                !
 ! D45   D(16,14,15,18)       -179.9946         estimate D2E/DX2                !
 ! D46   D(16,14,15,19)          0.0008         estimate D2E/DX2                !
 ! D47   D(14,15,18,17)         -0.0014         estimate D2E/DX2                !
 ! D48   D(14,15,18,29)        179.9973         estimate D2E/DX2                !
 ! D49   D(19,15,18,17)       -179.997          estimate D2E/DX2                !
 ! D50   D(19,15,18,29)          0.0017         estimate D2E/DX2                !
 ! D51   D(20,17,18,15)       -179.9978         estimate D2E/DX2                !
 ! D52   D(20,17,18,29)          0.0036         estimate D2E/DX2                !
 ! D53   D(23,17,18,15)          0.0008         estimate D2E/DX2                !
 ! D54   D(23,17,18,29)       -179.9978         estimate D2E/DX2                !
 ! D55   D(18,17,23,13)          0.0011         estimate D2E/DX2                !
 ! D56   D(18,17,23,24)       -179.9984         estimate D2E/DX2                !
 ! D57   D(20,17,23,13)        179.9997         estimate D2E/DX2                !
 ! D58   D(20,17,23,24)          0.0002         estimate D2E/DX2                !
 ! D59   D(15,18,29,30)       -179.9953         estimate D2E/DX2                !
 ! D60   D(17,18,29,30)          0.0033         estimate D2E/DX2                !
 ! D61   D(18,29,30,31)        179.9991         estimate D2E/DX2                !
 ! D62   D(18,29,30,32)        -61.2522         estimate D2E/DX2                !
 ! D63   D(18,29,30,33)         61.2508         estimate D2E/DX2                !
 --------------------------------------------------------------------------------
 Trust Radius=3.00D-01 FncErr=1.00D-07 GrdErr=1.00D-06 EigMax=2.50D+02 EigMin=1.00D-04
 Number of steps in this run=    164 maximum allowed number of steps=    198.
 GradGradGradGradGradGradGradGradGradGradGradGradGradGradGradGradGradGrad

                          Input orientation:                          
 ---------------------------------------------------------------------
 Center     Atomic      Atomic             Coordinates (Angstroms)
 Number     Number       Type             X           Y           Z
 ---------------------------------------------------------------------
      1          6           0        5.915228   -1.258975   -0.002924
      2          6           0        3.824516   -0.014418   -0.005854
      3          6           0        4.570857    1.183004   -0.013495
      4          6           0        5.962688    1.146836   -0.014783
      5          6           0        6.661610   -0.070481   -0.006559
      6          1           0        6.433750   -2.215556   -0.002571
      7          1           0        4.047376    2.134662   -0.021801
      8          1           0        6.518678    2.082124   -0.023936
      9          6           0        2.403436    0.014193   -0.005989
     10          6           0        1.180962    0.040732   -0.005336
     11          6           0       -0.179136    0.069781   -0.004174
     12          6           0       -1.401819    0.095432   -0.002734
     13          6           0       -2.821538    0.131391   -0.000788
     14          6           0       -3.515944    1.364343    0.006432
     15          6           0       -4.901600    1.399104    0.008581
     16          1           0       -2.950498    2.291460    0.010398
     17          6           0       -4.970950   -1.028381   -0.003612
     18          6           0       -5.640817    0.203854    0.003596
     19          1           0       -5.439998    2.341984    0.014184
     20          1           0       -5.518029   -1.964224   -0.007596
     21          6           0        4.522761   -1.240205   -0.001593
     22          1           0        3.962217   -2.170565   -0.000589
     23          6           0       -3.576090   -1.056855   -0.005755
     24          1           0       -3.060208   -2.012561   -0.011366
     25          6           0        8.171434   -0.099105    0.029052
     26          1           0        8.602120    0.762183   -0.493967
     27          1           0        8.539570   -0.070417    1.063891
     28          1           0        8.567211   -1.010170   -0.433367
     29          8           0       -6.996584    0.348635    0.006316
     30          6           0       -7.809515   -0.820116    0.001676
     31          1           0       -8.840592   -0.462807    0.004996
     32          1           0       -7.634058   -1.423519   -0.898921
     33          1           0       -7.631384   -1.432481    0.895673
 ---------------------------------------------------------------------
                    Distance matrix (angstroms):
                    1          2          3          4          5
     1  C    0.000000
     2  C    2.433107   0.000000
     3  C    2.787599   1.410994   0.000000
     4  C    2.406308   2.433181   1.392301   0.000000
     5  C    1.403431   2.837648   2.437729   1.403717   0.000000
     6  H    1.088077   3.413667   3.875655   3.395251   2.157147
     7  H    3.873758   2.160663   1.086165   2.155057   3.420103
     8  H    3.395223   3.413843   2.145351   1.088105   2.157415
     9  C    3.735458   1.421368   2.462497   3.735135   4.259016
    10  C    4.909432   2.644129   3.577183   4.907999   5.481776
    11  C    6.237537   4.004538   4.878707   6.235556   6.842184
    12  C    7.441344   5.227490   6.070897   7.439191   8.065137
    13  C    8.846706   6.647655   7.466830   8.842734   9.485298
    14  C    9.789223   7.468834   8.088858   9.481151  10.278205
    15  C   11.138639   8.839873   9.474947  10.867242  11.656232
    16  H    9.550228   7.156686   7.602633   8.986417   9.898064
    17  C   10.888620   8.853719   9.794713  11.147921  11.671934
    18  C   11.648265   9.467854  10.258524  11.641773  12.305490
    19  H   11.912529   9.559511  10.077759  11.465185  12.339746
    20  H   11.454989   9.543841  10.568382  11.894772  12.325984
    21  C    1.392594   1.410715   2.423715   2.787746   2.437817
    22  H    2.155285   2.160546   3.408377   3.873917   3.420104
    23  C    9.493470   7.473663   8.449247   9.790027  10.285107
    24  H    9.007020   7.168824   8.273137   9.560045   9.913902
    25  C    2.537082   4.347883   3.822273   2.536306   1.510515
    26  H    3.397880   4.864860   4.081547   2.710014   2.167135
    27  H    3.072122   4.835207   4.299129   3.047222   2.161619
    28  H    2.698184   4.864920   4.577898   3.407554   2.167140
    29  O   13.011510  10.827195  11.597511  12.983848  13.664629
    30  C   13.731758  11.661899  12.541385  13.911964  14.490531
    31  H   14.777286  12.673047  13.512069  14.890549  15.507170
    32  H   13.579876  11.579380  12.511510  13.865783  14.387256
    33  H   13.577492  11.578484  12.512475  13.866528  14.386061
                    6          7          8          9         10
     6  H    0.000000
     7  H    4.961809   0.000000
     8  H    4.298572   2.471861   0.000000
     9  C    4.605999   2.683128   4.605635   0.000000
    10  C    5.716872   3.549809   5.714791   1.222762   0.000000
    11  C    6.996644   4.703982   6.993613   2.583171   1.360409
    12  C    8.169260   5.818294   8.165884   3.806123   2.583361
    13  C    9.548221   7.155104   9.541778   5.226291   4.003529
    14  C   10.574127   7.602499  10.060307   6.071418   4.879858
    15  C   11.897733   8.979206  11.440731   7.435169   6.232410
    16  H   10.410450   6.999704   9.471552   5.818146   4.704783
    17  C   11.466323   9.556954  11.903244   7.447720   6.244119
    18  C   12.314575   9.878752  12.303738   8.046494   6.823735
    19  H   12.718386   9.489707  11.961560   8.181594   7.009512
    20  H   11.954422  10.406634  12.698642   8.164787   6.992591
    21  C    2.145504   3.408244   3.875829   2.462737   3.578887
    22  H    2.471943   4.306121   4.961996   2.683840   3.553201
    23  C   10.076681   8.264579  10.571559   6.074691   4.882032
    24  H    9.496132   8.229053  10.417373   5.827449   4.712067
    25  C    2.738596   4.690432   2.737183   5.769217   6.991955
    26  H    3.716212   4.780411   2.510758   6.262691   7.472137
    27  H    3.189583   5.120635   3.146554   6.229281   7.436714
    28  H    2.488011   5.521618   3.731810   6.262914   7.472903
    29  O   13.672930  11.187481  13.626012   9.405976   8.183349
    30  C   14.311459  12.219539  14.619192  10.246975   9.031599
    31  H   15.374580  13.147140  15.568709  11.254147  10.034202
    32  H   14.118569  12.242789  14.606679  10.179176   8.980373
    33  H   14.115525  12.245803  14.608983  10.178579   8.979956
                   11         12         13         14         15
    11  C    0.000000
    12  C    1.222953   0.000000
    13  C    2.643122   1.420176   0.000000
    14  C    3.579147   2.465714   1.415070   0.000000
    15  C    4.906009   3.734723   2.435948   1.386094   0.000000
    16  H    3.551974   2.687214   2.163944   1.085952   2.145484
    17  C    4.916039   3.741878   2.442345   2.800406   2.428506
    18  C    5.463332   4.240389   2.820214   2.421121   1.405379
    19  H    5.730612   4.621057   3.426847   2.158200   1.085784
    20  H    5.713227   4.602759   3.415071   3.884315   3.419389
    21  C    4.880974   6.073267   7.471279   8.450119   9.786963
    22  H    4.708500   5.823026   7.163682   8.271549   9.555620
    23  C    3.578912   2.460737   1.407587   2.421976   2.790863
    24  H    3.554824   2.682156   2.157222   3.407564   3.876929
    25  C    8.352344   9.575282  10.995429  11.778667  13.158620
    26  H    8.822118  10.038160  11.451685  12.143330  13.528070
    27  H    8.785002   9.999820  11.412670  12.186557  13.562383
    28  H    8.823213  10.039390  11.453990  12.322109  13.689733
    29  O    6.823157   5.600499   4.180700   3.625813   2.343597
    30  C    7.682098   6.472775   5.077921   4.817327   3.657999
    31  H    8.677820   7.459694   6.048315   5.629419   4.356878
    32  H    7.655480   6.476972   5.136608   5.054770   4.032008
    33  H    7.655228   6.476815   5.136532   5.054683   4.031938
                   16         17         18         19         20
    16  H    0.000000
    17  C    3.886356   0.000000
    18  C    3.405284   1.402561   0.000000
    19  H    2.490016   3.402893   2.147566   0.000000
    20  H    4.970250   1.084026   2.171581   4.306970   0.000000
    21  C    8.265737   9.496074  10.265654  10.587204  10.066862
    22  H    8.227722   9.005891   9.892226  10.429044   9.482494
    23  C    3.406294   1.395152   2.419209   3.876423   2.143467
    24  H    4.305474   2.149327   3.401803   4.962471   2.458299
    25  C   11.375962  13.175237  13.815597  13.828601  13.815984
    26  H   11.664307  13.699445  14.262558  14.139840  14.389179
    27  H   11.777520  13.586442  14.222617  14.224974  14.225002
    28  H   11.989800  13.544993  14.266494  14.409689  14.123933
    29  O    4.488362   2.449380   1.363478   2.529123   2.745111
    30  C    5.769924   2.846200   2.398285   3.951410   2.561245
    31  H    6.502248   3.910764   3.268486   4.408058   3.646071
    32  H    6.046790   2.837227   2.726883   4.452715   2.358898
    33  H    6.046664   2.837238   2.726857   4.452615   2.359007
                   21         22         23         24         25
    21  C    0.000000
    22  H    1.086177   0.000000
    23  C    8.100927   7.620134   0.000000
    24  H    7.622208   7.024211   1.086066   0.000000
    25  C    3.823070   4.691411  11.786552  11.393539   0.000000
    26  H    4.570904   5.511182  12.322989  11.997583   1.095836
    27  H    4.317223   5.147417  12.202722  11.810290   1.098744
    28  H    4.073932   4.768625  12.150917  11.678174   1.095678
    29  O   11.628404  11.244631   3.698017   4.590274  15.174642
    30  C   12.339429  11.848941   4.240046   4.896735  15.997229
    31  H   13.385948  12.916206   5.297923   5.984550  17.015930
    32  H   12.191269  11.654985   4.171246   4.696257  15.888008
    33  H   12.188736  11.651594   4.171220   4.696260  15.882631
                   26         27         28         29         30
    26  H    0.000000
    27  H    1.767500   0.000000
    28  H    1.773732   1.767960   0.000000
    29  O   15.612203  15.577745  15.629184   0.000000
    30  C   16.495184  16.400699  16.383606   1.423677   0.000000
    31  H   17.492792  17.416810  17.421922   2.014648   1.091238
    32  H   16.387640  16.348387  16.213227   2.089583   1.098160
    33  H   16.440021  16.229087  16.258511   2.089570   1.098159
                   31         32         33
    31  H    0.000000
    32  H    1.787668   0.000000
    33  H    1.787668   1.794618   0.000000
 Stoichiometry    C18H14O
 Framework group  C1[X(C18H14O)]
 Deg. of freedom    93
 Full point group                 C1      NOp   1
 Largest Abelian subgroup         C1      NOp   1
 Largest concise Abelian subgroup C1      NOp   1
                         Standard orientation:                         
 ---------------------------------------------------------------------
 Center     Atomic      Atomic             Coordinates (Angstroms)
 Number     Number       Type             X           Y           Z
 ---------------------------------------------------------------------
      1          6           0        5.915228   -1.258975   -0.002924
      2          6           0        3.824516   -0.014418   -0.005854
      3          6           0        4.570857    1.183004   -0.013495
      4          6           0        5.962688    1.146836   -0.014783
      5          6           0        6.661610   -0.070481   -0.006559
      6          1           0        6.433750   -2.215556   -0.002571
      7          1           0        4.047376    2.134662   -0.021801
      8          1           0        6.518678    2.082124   -0.023936
      9          6           0        2.403436    0.014193   -0.005989
     10          6           0        1.180962    0.040732   -0.005336
     11          6           0       -0.179136    0.069781   -0.004174
     12          6           0       -1.401819    0.095432   -0.002734
     13          6           0       -2.821538    0.131391   -0.000788
     14          6           0       -3.515944    1.364343    0.006432
     15          6           0       -4.901600    1.399104    0.008581
     16          1           0       -2.950498    2.291460    0.010398
     17          6           0       -4.970950   -1.028381   -0.003612
     18          6           0       -5.640817    0.203854    0.003596
     19          1           0       -5.439998    2.341984    0.014184
     20          1           0       -5.518029   -1.964224   -0.007596
     21          6           0        4.522761   -1.240205   -0.001593
     22          1           0        3.962217   -2.170565   -0.000589
     23          6           0       -3.576090   -1.056855   -0.005755
     24          1           0       -3.060208   -2.012561   -0.011366
     25          6           0        8.171434   -0.099105    0.029052
     26          1           0        8.602120    0.762183   -0.493967
     27          1           0        8.539570   -0.070417    1.063891
     28          1           0        8.567211   -1.010170   -0.433367
     29          8           0       -6.996584    0.348635    0.006316
     30          6           0       -7.809515   -0.820116    0.001676
     31          1           0       -8.840592   -0.462807    0.004996
     32          1           0       -7.634058   -1.423519   -0.898921
     33          1           0       -7.631384   -1.432481    0.895673
 ---------------------------------------------------------------------
 Rotational constants (GHZ):           2.5322574           0.0782578           0.0759853
 Standard basis: 6-31+G(d) (6D, 7F)
 There are   389 symmetry adapted cartesian basis functions of A   symmetry.
 There are   389 symmetry adapted basis functions of A   symmetry.
   389 basis functions,   664 primitive gaussians,   389 cartesian basis functions
    65 alpha electrons       65 beta electrons
       nuclear repulsion energy      1083.0494835331 Hartrees.
 NAtoms=   33 NActive=   33 NUniq=   33 SFac= 1.00D+00 NAtFMM=   60 NAOKFM=F Big=F
 Integral buffers will be    131072 words long.
 Raffenetti 2 integral format.
 Two-electron integral symmetry is turned on.
 Nuclear repulsion after empirical dispersion term =     1083.0273011673 Hartrees.
 One-electron integrals computed using PRISM.
 NBasis=   389 RedAO= T EigKep=  1.01D-06  NBF=   389
 NBsUse=   383 1.00D-06 EigRej=  5.20D-07 NBFU=   383
 ExpMin= 4.38D-02 ExpMax= 5.48D+03 ExpMxC= 8.25D+02 IAcc=3 IRadAn=         5 AccDes= 0.00D+00
 Harris functional with IExCor=  402 and IRadAn=       5 diagonalized for initial guess.
 HarFok:  IExCor=  402 AccDes= 0.00D+00 IRadAn=         5 IDoV= 1 UseB2=F ITyADJ=14
 ICtDFT=  3500011 ScaDFX=  1.000000  1.000000  1.000000  1.000000
 FoFCou: FMM=F IPFlag=           0 FMFlag=      100000 FMFlg1=           0
         NFxFlg=           0 DoJE=T BraDBF=F KetDBF=T FulRan=T
         wScrn=  0.000000 ICntrl=       500 IOpCl=  0 I1Cent=   200000004 NGrid=           0
         NMat0=    1 NMatS0=      1 NMatT0=    0 NMatD0=    1 NMtDS0=    0 NMtDT0=    0
 Petite list used in FoFCou.
 Requested convergence on RMS density matrix=1.00D-08 within 128 cycles.
 Requested convergence on MAX density matrix=1.00D-06.
 Requested convergence on             energy=1.00D-06.
 No special actions if energy rises.
 SCF Done:  E(RB3LYP) =  -769.513126969     A.U. after   15 cycles
            NFock= 15  Conv=0.68D-08     -V/T= 2.0099

 **********************************************************************

            Population analysis using the SCF Density.

 **********************************************************************

 Orbital symmetries:
       Occupied  (A) (A) (A) (A) (A) (A) (A) (A) (A) (A) (A) (A)
                 (A) (A) (A) (A) (A) (A) (A) (A) (A) (A) (A) (A)
                 (A) (A) (A) (A) (A) (A) (A) (A) (A) (A) (A) (A)
                 (A) (A) (A) (A) (A) (A) (A) (A) (A) (A) (A) (A)
                 (A) (A) (A) (A) (A) (A) (A) (A) (A) (A) (A) (A)
                 (A) (A) (A) (A) (A)
       Virtual   (A) (A) (A) (A) (A) (A) (A) (A) (A) (A) (A) (A)
                 (A) (A) (A) (A) (A) (A) (A) (A) (A) (A) (A) (A)
                 (A) (A) (A) (A) (A) (A) (A) (A) (A) (A) (A) (A)
                 (A) (A) (A) (A) (A) (A) (A) (A) (A) (A) (A) (A)
                 (A) (A) (A) (A) (A) (A) (A) (A) (A) (A) (A) (A)
                 (A) (A) (A) (A) (A) (A) (A) (A) (A) (A) (A) (A)
                 (A) (A) (A) (A) (A) (A) (A) (A) (A) (A) (A) (A)
                 (A) (A) (A) (A) (A) (A) (A) (A) (A) (A) (A) (A)
                 (A) (A) (A) (A) (A) (A) (A) (A) (A) (A) (A) (A)
                 (A) (A) (A) (A) (A) (A) (A) (A) (A) (A) (A) (A)
                 (A) (A) (A) (A) (A) (A) (A) (A) (A) (A) (A) (A)
                 (A) (A) (A) (A) (A) (A) (A) (A) (A) (A) (A) (A)
                 (A) (A) (A) (A) (A) (A) (A) (A) (A) (A) (A) (A)
                 (A) (A) (A) (A) (A) (A) (A) (A) (A) (A) (A) (A)
                 (A) (A) (A) (A) (A) (A) (A) (A) (A) (A) (A) (A)
                 (A) (A) (A) (A) (A) (A) (A) (A) (A) (A) (A) (A)
                 (A) (A) (A) (A) (A) (A) (A) (A) (A) (A) (A) (A)
                 (A) (A) (A) (A) (A) (A) (A) (A) (A) (A) (A) (A)
                 (A) (A) (A) (A) (A) (A) (A) (A) (A) (A) (A) (A)
                 (A) (A) (A) (A) (A) (A) (A) (A) (A) (A) (A) (A)
                 (A) (A) (A) (A) (A) (A) (A) (A) (A) (A) (A) (A)
                 (A) (A) (A) (A) (A) (A) (A) (A) (A) (A) (A) (A)
                 (A) (A) (A) (A) (A) (A) (A) (A) (A) (A) (A) (A)
                 (A) (A) (A) (A) (A) (A) (A) (A) (A) (A) (A) (A)
                 (A) (A) (A) (A) (A) (A) (A) (A) (A) (A) (A) (A)
                 (A) (A) (A) (A) (A) (A) (A) (A) (A) (A) (A) (A)
                 (A) (A) (A) (A) (A) (A)
 The electronic state is 1-A.
 Alpha  occ. eigenvalues --  -19.19911 -10.26658 -10.25419 -10.22280 -10.22153
 Alpha  occ. eigenvalues --  -10.21172 -10.21097 -10.20913 -10.20735 -10.20648
 Alpha  occ. eigenvalues --  -10.20586 -10.20471 -10.20469 -10.20411 -10.20362
 Alpha  occ. eigenvalues --  -10.20110 -10.19991 -10.19986 -10.19375  -1.08199
 Alpha  occ. eigenvalues --   -0.87179  -0.87145  -0.80872  -0.79607  -0.77299
 Alpha  occ. eigenvalues --   -0.76435  -0.75609  -0.73828  -0.71441  -0.69394
 Alpha  occ. eigenvalues --   -0.63472  -0.62500  -0.61821  -0.60897  -0.58366
 Alpha  occ. eigenvalues --   -0.55186  -0.53636  -0.52004  -0.49839  -0.48276
 Alpha  occ. eigenvalues --   -0.47599  -0.47138  -0.46088  -0.43900  -0.43518
 Alpha  occ. eigenvalues --   -0.43133  -0.43003  -0.42872  -0.40326  -0.39780
 Alpha  occ. eigenvalues --   -0.39763  -0.38095  -0.37802  -0.36274  -0.35845
 Alpha  occ. eigenvalues --   -0.35384  -0.34382  -0.33548  -0.33107  -0.28838
 Alpha  occ. eigenvalues --   -0.26842  -0.26293  -0.24781  -0.24484  -0.20388
 Alpha virt. eigenvalues --   -0.06234  -0.02229  -0.01917  -0.01708  -0.01471
 Alpha virt. eigenvalues --   -0.00089   0.00553   0.01453   0.02040   0.02334
 Alpha virt. eigenvalues --    0.02396   0.03442   0.03548   0.03929   0.04412
 Alpha virt. eigenvalues --    0.04831   0.05434   0.05729   0.06039   0.06199
 Alpha virt. eigenvalues --    0.06530   0.07156   0.07590   0.08003   0.08456
 Alpha virt. eigenvalues --    0.08854   0.08920   0.09411   0.09917   0.10175
 Alpha virt. eigenvalues --    0.10455   0.11190   0.11412   0.12634   0.13306
 Alpha virt. eigenvalues --    0.13320   0.13468   0.14013   0.14199   0.14262
 Alpha virt. eigenvalues --    0.14664   0.14978   0.15141   0.15278   0.15318
 Alpha virt. eigenvalues --    0.15972   0.16108   0.16211   0.16711   0.17407
 Alpha virt. eigenvalues --    0.18360   0.18495   0.18591   0.19046   0.19708
 Alpha virt. eigenvalues --    0.20028   0.20056   0.20706   0.20767   0.21018
 Alpha virt. eigenvalues --    0.21142   0.21233   0.21671   0.22242   0.23117
 Alpha virt. eigenvalues --    0.23380   0.23821   0.23922   0.24184   0.24484
 Alpha virt. eigenvalues --    0.24792   0.25094   0.25777   0.25984   0.26228
 Alpha virt. eigenvalues --    0.26380   0.26966   0.27775   0.27904   0.28021
 Alpha virt. eigenvalues --    0.28403   0.28781   0.29197   0.29733   0.29790
 Alpha virt. eigenvalues --    0.31234   0.31667   0.31867   0.32245   0.32698
 Alpha virt. eigenvalues --    0.33181   0.34629   0.34866   0.34993   0.36166
 Alpha virt. eigenvalues --    0.36218   0.36913   0.37470   0.38390   0.38960
 Alpha virt. eigenvalues --    0.39913   0.43328   0.43985   0.45363   0.45780
 Alpha virt. eigenvalues --    0.46437   0.50936   0.54251   0.56359   0.56782
 Alpha virt. eigenvalues --    0.59526   0.60347   0.64107   0.64726   0.65707
 Alpha virt. eigenvalues --    0.66477   0.67452   0.67684   0.68283   0.68371
 Alpha virt. eigenvalues --    0.68512   0.69004   0.69518   0.70626   0.71232
 Alpha virt. eigenvalues --    0.71572   0.72420   0.73131   0.73208   0.73423
 Alpha virt. eigenvalues --    0.73996   0.74785   0.74947   0.75882   0.76354
 Alpha virt. eigenvalues --    0.76758   0.77140   0.77741   0.78490   0.78841
 Alpha virt. eigenvalues --    0.79378   0.79809   0.81726   0.82136   0.82372
 Alpha virt. eigenvalues --    0.83626   0.85054   0.85858   0.88039   0.88429
 Alpha virt. eigenvalues --    0.89280   0.90421   0.92158   0.92544   0.93257
 Alpha virt. eigenvalues --    0.94397   0.95154   0.96100   0.97486   0.97805
 Alpha virt. eigenvalues --    0.98255   0.99019   0.99303   1.00690   1.03261
 Alpha virt. eigenvalues --    1.03915   1.05877   1.06492   1.09750   1.10542
 Alpha virt. eigenvalues --    1.11030   1.11453   1.12541   1.14239   1.14678
 Alpha virt. eigenvalues --    1.16404   1.18862   1.19441   1.19775   1.20733
 Alpha virt. eigenvalues --    1.21514   1.21802   1.22420   1.22956   1.23402
 Alpha virt. eigenvalues --    1.24088   1.24971   1.25208   1.28175   1.28991
 Alpha virt. eigenvalues --    1.30343   1.31114   1.31463   1.33500   1.36475
 Alpha virt. eigenvalues --    1.38672   1.39724   1.41982   1.42236   1.43188
 Alpha virt. eigenvalues --    1.44821   1.45050   1.45622   1.45811   1.48336
 Alpha virt. eigenvalues --    1.48566   1.49807   1.50002   1.50304   1.50456
 Alpha virt. eigenvalues --    1.53262   1.54104   1.55497   1.59395   1.61574
 Alpha virt. eigenvalues --    1.62313   1.64789   1.67029   1.71622   1.79857
 Alpha virt. eigenvalues --    1.81280   1.83397   1.84104   1.85666   1.86202
 Alpha virt. eigenvalues --    1.86547   1.87710   1.87857   1.88468   1.90714
 Alpha virt. eigenvalues --    1.91903   1.92184   1.92703   1.94879   1.96885
 Alpha virt. eigenvalues --    1.97879   1.99102   1.99673   2.00692   2.01657
 Alpha virt. eigenvalues --    2.02896   2.06718   2.07613   2.09951   2.10712
 Alpha virt. eigenvalues --    2.11877   2.12043   2.13548   2.15193   2.16037
 Alpha virt. eigenvalues --    2.16533   2.18568   2.19806   2.20649   2.22879
 Alpha virt. eigenvalues --    2.25231   2.27306   2.28322   2.29812   2.30191
 Alpha virt. eigenvalues --    2.30884   2.34779   2.35682   2.36338   2.37191
 Alpha virt. eigenvalues --    2.38644   2.40476   2.41595   2.50482   2.52761
 Alpha virt. eigenvalues --    2.54136   2.57660   2.59407   2.60870   2.63271
 Alpha virt. eigenvalues --    2.64163   2.64583   2.65815   2.65952   2.69735
 Alpha virt. eigenvalues --    2.74091   2.75725   2.77394   2.80323   2.81118
 Alpha virt. eigenvalues --    2.82142   2.85654   2.92415   2.94494   3.02641
 Alpha virt. eigenvalues --    3.04288   3.08388   3.16717   3.18449   3.31422
 Alpha virt. eigenvalues --    3.34055   3.40023   3.49321   3.73251   4.19129
 Alpha virt. eigenvalues --    4.22000   4.24588   4.24710   4.25245   4.26983
 Alpha virt. eigenvalues --    4.28500   4.33806   4.35197   4.39219   4.40772
 Alpha virt. eigenvalues --    4.42918   4.44321   4.50754   4.60565   4.67362
 Alpha virt. eigenvalues --    4.80779   4.89184   5.59227
          Condensed to atoms (all electrons):
               1          2          3          4          5          6
     1  C    9.092859   0.580890   2.741789  -1.794547   0.092149   0.255896
     2  C    0.580890  10.516462  -1.315098   0.695841  -0.168324   0.019725
     3  C    2.741789  -1.315098  17.673497  -4.603119   0.303627  -0.008216
     4  C   -1.794547   0.695841  -4.603119   8.975082   0.211509   0.049071
     5  C    0.092149  -0.168324   0.303627   0.211509   7.364151   0.057855
     6  H    0.255896   0.019725  -0.008216   0.049071   0.057855   0.544601
     7  H   -0.009204  -0.018281   0.345876  -0.086018   0.001838   0.000018
     8  H    0.049784   0.022897  -0.070773   0.261369   0.056702  -0.000164
     9  C   -0.329527  -1.692682   0.087569  -0.136475  -0.097968  -0.006871
    10  C   -0.118393  -0.030881  -0.640071   0.227828  -0.274829   0.002157
    11  C    0.031312   0.638049  -0.108565   0.024308   0.097649  -0.000210
    12  C   -0.042184  -0.637285  -0.078389   0.017523  -0.034529   0.000024
    13  C   -0.001780   0.204768  -0.060703   0.009364   0.005040  -0.000001
    14  C    0.002731   0.025131   0.029347  -0.003529   0.000602   0.000000
    15  C   -0.000465  -0.003471  -0.005849   0.000736  -0.000059   0.000000
    16  H    0.000000  -0.000085   0.000022  -0.000001   0.000000   0.000000
    17  C    0.001120   0.031685   0.007833  -0.000825   0.000206   0.000000
    18  C   -0.000015   0.004648  -0.000333   0.000021   0.000047   0.000000
    19  H    0.000000   0.000000   0.000000   0.000000   0.000000   0.000000
    20  H    0.000000  -0.000001   0.000000   0.000000   0.000000   0.000000
    21  C   -4.638224  -2.000652  -8.575229   2.706768  -0.034841  -0.057624
    22  H   -0.091827  -0.030321   0.018609  -0.006832   0.000908  -0.004324
    23  C   -0.003924  -0.082399  -0.028157   0.003048  -0.000682   0.000000
    24  H   -0.000001  -0.000091  -0.000010   0.000000   0.000000   0.000000
    25  C    0.334986  -0.753830   0.522151  -0.394306  -1.596606  -0.032267
    26  H    0.039548  -0.005880   0.021337  -0.030618  -0.150667   0.000064
    27  H   -0.006506  -0.001048   0.000473  -0.017875  -0.049508   0.000302
    28  H   -0.029141  -0.004079  -0.015036   0.036962  -0.142649   0.003037
    29  O    0.000000  -0.000002   0.000000   0.000000   0.000000   0.000000
    30  C    0.000000   0.000054   0.000001   0.000000   0.000000   0.000000
    31  H    0.000000   0.000000   0.000000   0.000000   0.000000   0.000000
    32  H    0.000000   0.000000   0.000000   0.000000   0.000000   0.000000
    33  H    0.000000   0.000000   0.000000   0.000000   0.000000   0.000000
               7          8          9         10         11         12
     1  C   -0.009204   0.049784  -0.329527  -0.118393   0.031312  -0.042184
     2  C   -0.018281   0.022897  -1.692682  -0.030881   0.638049  -0.637285
     3  C    0.345876  -0.070773   0.087569  -0.640071  -0.108565  -0.078389
     4  C   -0.086018   0.261369  -0.136475   0.227828   0.024308   0.017523
     5  C    0.001838   0.056702  -0.097968  -0.274829   0.097649  -0.034529
     6  H    0.000018  -0.000164  -0.006871   0.002157  -0.000210   0.000024
     7  H    0.524610  -0.004312   0.027348  -0.003773  -0.000031   0.000384
     8  H   -0.004312   0.544298  -0.008201   0.002170  -0.000247   0.000019
     9  C    0.027348  -0.008201  10.870492  -0.897496  -1.834414   0.612365
    10  C   -0.003773   0.002170  -0.897496  10.272866  -2.474205  -1.592099
    11  C   -0.000031  -0.000247  -1.834414  -2.474205  10.316254  -1.446649
    12  C    0.000384   0.000019   0.612365  -1.592099  -1.446649  11.759732
    13  C   -0.000043  -0.000001  -0.463645   0.265341   0.299163  -2.085347
    14  C    0.000009   0.000000  -0.007144   0.434772  -0.502913   2.520855
    15  C    0.000000   0.000000   0.000267  -0.146097   0.291017  -1.192535
    16  H    0.000000   0.000000   0.000353   0.000271  -0.009773   0.036143
    17  C    0.000000   0.000000  -0.079655   0.407187  -0.451343   0.821641
    18  C    0.000000   0.000000  -0.023736   0.071902  -0.232416  -0.172717
    19  H    0.000000   0.000000   0.000010  -0.000134   0.001638  -0.006875
    20  H    0.000000   0.000000   0.000021  -0.000299   0.002344  -0.009963
    21  C    0.025574  -0.004667   0.905828   0.332556  -0.146766   0.219217
    22  H   -0.000153   0.000018   0.035215  -0.005492   0.000511   0.000456
    23  C   -0.000002   0.000000   0.155040  -0.836398   0.372334  -1.496729
    24  H    0.000000   0.000000   0.000396   0.000693  -0.009277   0.042713
    25  C    0.000982  -0.029368   0.151543  -0.125721   0.025575  -0.004909
    26  H   -0.000005   0.002762   0.000447  -0.000091   0.000002   0.000000
    27  H    0.000001   0.000342   0.000287  -0.000062   0.000004   0.000000
    28  H    0.000002   0.000064   0.000622  -0.000003   0.000003   0.000000
    29  O    0.000000   0.000000   0.000024  -0.000165   0.000520  -0.000020
    30  C    0.000000   0.000000  -0.000406   0.002866  -0.013045   0.023342
    31  H    0.000000   0.000000   0.000000   0.000000   0.000006   0.000020
    32  H    0.000000   0.000000   0.000000  -0.000001  -0.000019  -0.000053
    33  H    0.000000   0.000000   0.000000  -0.000002  -0.000014  -0.000083
              13         14         15         16         17         18
     1  C   -0.001780   0.002731  -0.000465   0.000000   0.001120  -0.000015
     2  C    0.204768   0.025131  -0.003471  -0.000085   0.031685   0.004648
     3  C   -0.060703   0.029347  -0.005849   0.000022   0.007833  -0.000333
     4  C    0.009364  -0.003529   0.000736  -0.000001  -0.000825   0.000021
     5  C    0.005040   0.000602  -0.000059   0.000000   0.000206   0.000047
     6  H   -0.000001   0.000000   0.000000   0.000000   0.000000   0.000000
     7  H   -0.000043   0.000009   0.000000   0.000000   0.000000   0.000000
     8  H   -0.000001   0.000000   0.000000   0.000000   0.000000   0.000000
     9  C   -0.463645  -0.007144   0.000267   0.000353  -0.079655  -0.023736
    10  C    0.265341   0.434772  -0.146097   0.000271   0.407187   0.071902
    11  C    0.299163  -0.502913   0.291017  -0.009773  -0.451343  -0.232416
    12  C   -2.085347   2.520855  -1.192535   0.036143   0.821641  -0.172717
    13  C   10.341149  -3.174597   1.941536  -0.054961  -0.444130  -0.637380
    14  C   -3.174597  18.499952  -4.488285   0.392909   4.619442  -1.044487
    15  C    1.941536  -4.488285  11.806089  -0.100257  -4.002847  -0.350286
    16  H   -0.054961   0.392909  -0.100257   0.520029  -0.014032   0.018168
    17  C   -0.444130   4.619442  -4.002847  -0.014032  14.234363   0.010957
    18  C   -0.637380  -1.044487  -0.350286   0.018168   0.010957   7.958636
    19  H    0.031282  -0.113709   0.361493  -0.004356   0.022643   0.004092
    20  H    0.036013   0.000487   0.015534   0.000016   0.232369  -0.006540
    21  C    0.012048  -0.024477   0.004350  -0.000008  -0.010787   0.000177
    22  H   -0.000055  -0.000007   0.000000   0.000000  -0.000001   0.000000
    23  C   -0.316937 -10.788700   2.569181   0.016880 -10.468600   0.309669
    24  H   -0.039239   0.010116  -0.008862  -0.000153  -0.081989   0.002117
    25  C    0.000483   0.000032  -0.000002   0.000000   0.000008   0.000002
    26  H    0.000000   0.000000   0.000000   0.000000   0.000000   0.000000
    27  H    0.000000   0.000000   0.000000   0.000000   0.000000   0.000000
    28  H    0.000000   0.000000   0.000000   0.000000   0.000000   0.000000
    29  O   -0.030898   0.018840  -0.597633  -0.000490   0.195318   0.433493
    30  C   -0.082876   0.015913  -0.008647   0.000262  -0.002796  -0.156506
    31  H    0.001026   0.004815   0.040687   0.000000  -0.064465   0.054811
    32  H   -0.003028  -0.003998  -0.019855   0.000000   0.041524  -0.080968
    33  H   -0.002919  -0.004106  -0.019449   0.000000   0.040635  -0.080618
              19         20         21         22         23         24
     1  C    0.000000   0.000000  -4.638224  -0.091827  -0.003924  -0.000001
     2  C    0.000000  -0.000001  -2.000652  -0.030321  -0.082399  -0.000091
     3  C    0.000000   0.000000  -8.575229   0.018609  -0.028157  -0.000010
     4  C    0.000000   0.000000   2.706768  -0.006832   0.003048   0.000000
     5  C    0.000000   0.000000  -0.034841   0.000908  -0.000682   0.000000
     6  H    0.000000   0.000000  -0.057624  -0.004324   0.000000   0.000000
     7  H    0.000000   0.000000   0.025574  -0.000153  -0.000002   0.000000
     8  H    0.000000   0.000000  -0.004667   0.000018   0.000000   0.000000
     9  C    0.000010   0.000021   0.905828   0.035215   0.155040   0.000396
    10  C   -0.000134  -0.000299   0.332556  -0.005492  -0.836398   0.000693
    11  C    0.001638   0.002344  -0.146766   0.000511   0.372334  -0.009277
    12  C   -0.006875  -0.009963   0.219217   0.000456  -1.496729   0.042713
    13  C    0.031282   0.036013   0.012048  -0.000055  -0.316937  -0.039239
    14  C   -0.113709   0.000487  -0.024477  -0.000007 -10.788700   0.010116
    15  C    0.361493   0.015534   0.004350   0.000000   2.569181  -0.008862
    16  H   -0.004356   0.000016  -0.000008   0.000000   0.016880  -0.000153
    17  C    0.022643   0.232369  -0.010787  -0.000001 -10.468600  -0.081989
    18  C    0.004092  -0.006540   0.000177   0.000000   0.309669   0.002117
    19  H    0.517369  -0.000147   0.000000   0.000000   0.000373   0.000014
    20  H   -0.000147   0.538779   0.000000   0.000000   0.034438  -0.004661
    21  C    0.000000   0.000000  17.663285   0.362444   0.035066   0.000028
    22  H    0.000000   0.000000   0.362444   0.524975   0.000017   0.000000
    23  C    0.000373   0.034438   0.035066   0.000017  27.318282   0.368898
    24  H    0.000014  -0.004661   0.000028   0.000000   0.368898   0.521357
    25  C    0.000000   0.000000  -0.444097   0.000907  -0.000033   0.000000
    26  H    0.000000   0.000000  -0.016166   0.000002   0.000000   0.000000
    27  H    0.000000   0.000000  -0.002951   0.000001   0.000000   0.000000
    28  H    0.000000   0.000000   0.019861  -0.000005   0.000000   0.000000
    29  O   -0.006643  -0.012942   0.000000   0.000000  -0.043125  -0.000590
    30  C   -0.002231  -0.004192  -0.000002   0.000000  -0.000929   0.000653
    31  H   -0.000013   0.000147   0.000000   0.000000  -0.023839   0.000000
    32  H    0.000004  -0.000751   0.000000   0.000000   0.052520   0.000003
    33  H    0.000004  -0.000750   0.000000   0.000000   0.053095   0.000003
              25         26         27         28         29         30
     1  C    0.334986   0.039548  -0.006506  -0.029141   0.000000   0.000000
     2  C   -0.753830  -0.005880  -0.001048  -0.004079  -0.000002   0.000054
     3  C    0.522151   0.021337   0.000473  -0.015036   0.000000   0.000001
     4  C   -0.394306  -0.030618  -0.017875   0.036962   0.000000   0.000000
     5  C   -1.596606  -0.150667  -0.049508  -0.142649   0.000000   0.000000
     6  H   -0.032267   0.000064   0.000302   0.003037   0.000000   0.000000
     7  H    0.000982  -0.000005   0.000001   0.000002   0.000000   0.000000
     8  H   -0.029368   0.002762   0.000342   0.000064   0.000000   0.000000
     9  C    0.151543   0.000447   0.000287   0.000622   0.000024  -0.000406
    10  C   -0.125721  -0.000091  -0.000062  -0.000003  -0.000165   0.002866
    11  C    0.025575   0.000002   0.000004   0.000003   0.000520  -0.013045
    12  C   -0.004909   0.000000   0.000000   0.000000  -0.000020   0.023342
    13  C    0.000483   0.000000   0.000000   0.000000  -0.030898  -0.082876
    14  C    0.000032   0.000000   0.000000   0.000000   0.018840   0.015913
    15  C   -0.000002   0.000000   0.000000   0.000000  -0.597633  -0.008647
    16  H    0.000000   0.000000   0.000000   0.000000  -0.000490   0.000262
    17  C    0.000008   0.000000   0.000000   0.000000   0.195318  -0.002796
    18  C    0.000002   0.000000   0.000000   0.000000   0.433493  -0.156506
    19  H    0.000000   0.000000   0.000000   0.000000  -0.006643  -0.002231
    20  H    0.000000   0.000000   0.000000   0.000000  -0.012942  -0.004192
    21  C   -0.444097  -0.016166  -0.002951   0.019861   0.000000  -0.000002
    22  H    0.000907   0.000002   0.000001  -0.000005   0.000000   0.000000
    23  C   -0.000033   0.000000   0.000000   0.000000  -0.043125  -0.000929
    24  H    0.000000   0.000000   0.000000   0.000000  -0.000590   0.000653
    25  C    7.713439   0.480020   0.407917   0.471825   0.000000   0.000000
    26  H    0.480020   0.503705  -0.029492  -0.025514   0.000000   0.000000
    27  H    0.407917  -0.029492   0.498166  -0.028955   0.000000   0.000000
    28  H    0.471825  -0.025514  -0.028955   0.503561   0.000000   0.000000
    29  O    0.000000   0.000000   0.000000   0.000000   8.461136   0.089324
    30  C    0.000000   0.000000   0.000000   0.000000   0.089324   5.293160
    31  H    0.000000   0.000000   0.000000   0.000000  -0.062520   0.397792
    32  H    0.000000   0.000000   0.000000   0.000000  -0.035512   0.386182
    33  H    0.000000   0.000000   0.000000   0.000000  -0.035525   0.385797
              31         32         33
     1  C    0.000000   0.000000   0.000000
     2  C    0.000000   0.000000   0.000000
     3  C    0.000000   0.000000   0.000000
     4  C    0.000000   0.000000   0.000000
     5  C    0.000000   0.000000   0.000000
     6  H    0.000000   0.000000   0.000000
     7  H    0.000000   0.000000   0.000000
     8  H    0.000000   0.000000   0.000000
     9  C    0.000000   0.000000   0.000000
    10  C    0.000000  -0.000001  -0.000002
    11  C    0.000006  -0.000019  -0.000014
    12  C    0.000020  -0.000053  -0.000083
    13  C    0.001026  -0.003028  -0.002919
    14  C    0.004815  -0.003998  -0.004106
    15  C    0.040687  -0.019855  -0.019449
    16  H    0.000000   0.000000   0.000000
    17  C   -0.064465   0.041524   0.040635
    18  C    0.054811  -0.080968  -0.080618
    19  H   -0.000013   0.000004   0.000004
    20  H    0.000147  -0.000751  -0.000750
    21  C    0.000000   0.000000   0.000000
    22  H    0.000000   0.000000   0.000000
    23  C   -0.023839   0.052520   0.053095
    24  H    0.000000   0.000003   0.000003
    25  C    0.000000   0.000000   0.000000
    26  H    0.000000   0.000000   0.000000
    27  H    0.000000   0.000000   0.000000
    28  H    0.000000   0.000000   0.000000
    29  O   -0.062520  -0.035512  -0.035525
    30  C    0.397792   0.386182   0.385797
    31  H    0.497012  -0.028425  -0.028423
    32  H   -0.028425   0.531845  -0.045396
    33  H   -0.028423  -0.045396   0.531831
 Mulliken charges:
               1
     1  C   -0.157326
     2  C    0.004258
     3  C   -0.242582
     4  C   -0.145285
     5  C    0.358380
     6  H    0.176927
     7  H    0.195181
     8  H    0.177311
     9  C   -1.269605
    10  C    1.125602
    11  C    1.129197
    12  C   -1.254067
    13  C    0.251330
    14  C   -0.419999
    15  C   -0.086291
    16  H    0.199064
    17  C    0.954541
    18  C   -0.082737
    19  H    0.195186
    20  H    0.180099
    21  C   -0.330710
    22  H    0.194953
    23  C   -1.198386
    24  H    0.197886
    25  C   -0.728730
    26  H    0.210546
    27  H    0.228903
    28  H    0.209443
    29  O   -0.372590
    30  C   -0.323716
    31  H    0.211369
    32  H    0.205927
    33  H    0.205921
 Sum of Mulliken charges =   0.00000
 Mulliken charges with hydrogens summed into heavy atoms:
               1
     1  C    0.019601
     2  C    0.004258
     3  C   -0.047401
     4  C    0.032025
     5  C    0.358380
     9  C   -1.269605
    10  C    1.125602
    11  C    1.129197
    12  C   -1.254067
    13  C    0.251330
    14  C   -0.220935
    15  C    0.108895
    17  C    1.134640
    18  C   -0.082737
    21  C   -0.135758
    23  C   -1.000500
    25  C   -0.079838
    29  O   -0.372590
    30  C    0.299501
 Electronic spatial extent (au):  <R**2>=          13255.1375
 Charge=              0.0000 electrons
 Dipole moment (field-independent basis, Debye):
    X=             -0.7113    Y=             -1.2923    Z=              0.0461  Tot=              1.4758
 Quadrupole moment (field-independent basis, Debye-Ang):
   XX=            -65.8857   YY=           -101.3347   ZZ=           -118.1301
   XY=             10.0153   XZ=              0.4030   YZ=             -0.0077
 Traceless Quadrupole moment (field-independent basis, Debye-Ang):
   XX=             29.2311   YY=             -6.2178   ZZ=            -23.0133
   XY=             10.0153   XZ=              0.4030   YZ=             -0.0077
 Octapole moment (field-independent basis, Debye-Ang**2):
  XXX=            -64.1012  YYY=              2.1809  ZZZ=              0.8521  XYY=            -11.4515
  XXY=            -80.4650  XXZ=              2.7016  XZZ=            -16.0652  YZZ=             -0.9315
  YYZ=             -0.5840  XYZ=             -0.3799
 Hexadecapole moment (field-independent basis, Debye-Ang**3):
 XXXX=         -14323.1485 YYYY=           -648.8414 ZZZZ=           -155.7404 XXXY=            604.5732
 XXXZ=             22.6895 YYYX=            -15.5477 YYYZ=              0.2198 ZZZX=              6.5239
 ZZZY=             -0.0628 XXYY=          -2803.5144 XXZZ=          -3098.3600 YYZZ=           -156.7178
 XXYZ=             -1.1534 YYXZ=             -5.4325 ZZXY=              7.1945
 N-N= 1.083027301167D+03 E-N=-3.948960103435D+03  KE= 7.620039225958D+02
 Evaluate density.
 Using the total density.
 Monte-Carlo method of calculating molar volume:
 based on  0.001 e/bohr**3 density envelope.
 Number of points per bohr**3 =   20 CutOff= 1.00D-04
 Using the SCF density.
 There are       434 points.  Will hold       434 in memory.
 LenV=  4026209568 MDV=  4026531840.
 Box volume =10226.479 fraction occupied=0.249
 Integrated density= 2.0621405894455052D+02 error= 7.6214058944550516D+01
 Molar volume = 2544.838 bohr**3/mol (227.099 cm**3/mol)
 Recommended a0 for SCRF calculation =  5.43 angstrom ( 10.27 bohr)
 Calling FoFJK, ICntrl=      2127 FMM=F ISym2X=0 I1Cent= 0 IOpClX= 0 NMat=1 NMatS=1 NMatT=0.
 ***** Axes restored to original set *****
 -------------------------------------------------------------------
 Center     Atomic                   Forces (Hartrees/Bohr)
 Number     Number              X              Y              Z
 -------------------------------------------------------------------
      1        6           0.000014353   -0.000035129   -0.000004351
      2        6           0.000021463   -0.000001754    0.000001900
      3        6          -0.000034636    0.000033794   -0.000004129
      4        6           0.000026879   -0.000008543   -0.000009413
      5        6           0.000045938    0.000012348    0.000017913
      6        1          -0.000017759   -0.000001465   -0.000000183
      7        1           0.000000461   -0.000001289    0.000001729
      8        1          -0.000012189    0.000001985    0.000005946
      9        6           0.000000761    0.000011134   -0.000000331
     10        6          -0.000004531   -0.000009538   -0.000000094
     11        6           0.000004615    0.000011506   -0.000000203
     12        6          -0.000001813   -0.000013482    0.000000321
     13        6          -0.000021672    0.000009090    0.000000130
     14        6           0.000024862   -0.000010998    0.000001675
     15        6          -0.000022600    0.000036973    0.000001997
     16        1          -0.000005431   -0.000005423   -0.000001891
     17        6          -0.000024962    0.000004861   -0.000002034
     18        6          -0.000063123   -0.000010923    0.000001135
     19        1           0.000004798   -0.000001526   -0.000002083
     20        1           0.000061879   -0.000008146    0.000000524
     21        6          -0.000024850    0.000002739    0.000002021
     22        1           0.000004824    0.000005127    0.000000627
     23        6           0.000036068   -0.000036897   -0.000002820
     24        1          -0.000000577    0.000002058    0.000001659
     25        6          -0.000032192   -0.000006862   -0.000011629
     26        1          -0.000011452   -0.000001883   -0.000002906
     27        1           0.000018304   -0.000004217    0.000004137
     28        1           0.000007521    0.000005943    0.000001342
     29        8           0.000019468   -0.000012909   -0.000001375
     30        6           0.000050722    0.000073810    0.000000106
     31        1           0.000002506   -0.000003019   -0.000000131
     32        1          -0.000033904   -0.000017818   -0.000009935
     33        1          -0.000033731   -0.000019547    0.000010348
 -------------------------------------------------------------------
 Cartesian Forces:  Max     0.000073810 RMS     0.000019518

 GradGradGradGradGradGradGradGradGradGradGradGradGradGradGradGradGradGrad
 Berny optimization.
 FormGI is forming the generalized inverse of G from B-inverse, IUseBI=4.
 Internal  Forces:  Max     0.000166876 RMS     0.000024757
 Search for a local minimum.
 Step number   1 out of a maximum of  164
 All quantities printed in internal units (Hartrees-Bohrs-Radians)
 Mixed Optimization -- En-DIIS/RFO-DIIS
 Second derivative matrix not updated -- first step.
 ITU=  0
     Eigenvalues ---    0.00230   0.00627   0.00940   0.01302   0.01379
     Eigenvalues ---    0.01478   0.01822   0.01896   0.01962   0.01971
     Eigenvalues ---    0.02047   0.02048   0.02056   0.02057   0.02072
     Eigenvalues ---    0.02088   0.02094   0.02099   0.02109   0.02127
     Eigenvalues ---    0.02127   0.02129   0.02173   0.02175   0.02428
     Eigenvalues ---    0.02612   0.03595   0.04275   0.04431   0.04433
     Eigenvalues ---    0.07034   0.07155   0.10058   0.10668   0.16000
     Eigenvalues ---    0.16000   0.16000   0.16000   0.16000   0.16000
     Eigenvalues ---    0.16000   0.16000   0.16000   0.16000   0.16000
     Eigenvalues ---    0.16000   0.16000   0.16000   0.22000   0.22000
     Eigenvalues ---    0.22955   0.22962   0.23998   0.24000   0.24992
     Eigenvalues ---    0.25000   0.25000   0.25000   0.25000   0.31299
     Eigenvalues ---    0.33821   0.33886   0.33887   0.34147   0.34165
     Eigenvalues ---    0.34670   0.35033   0.35036   0.35258   0.35260
     Eigenvalues ---    0.35271   0.35285   0.35304   0.35512   0.40678
     Eigenvalues ---    0.40880   0.41371   0.41475   0.41911   0.42255
     Eigenvalues ---    0.42434   0.44286   0.44391   0.44530   0.44567
     Eigenvalues ---    0.45655   0.45698   0.46896   0.47469   0.52251
     Eigenvalues ---    0.52865   0.94087   0.94170
 RFO step:  Lambda=-6.51355851D-07 EMin= 2.30000000D-03
 Linear search not attempted -- first point.
 Iteration  1 RMS(Cart)=  0.00314991 RMS(Int)=  0.00000143
 Iteration  2 RMS(Cart)=  0.00000550 RMS(Int)=  0.00000009
 Iteration  3 RMS(Cart)=  0.00000000 RMS(Int)=  0.00000009
 Variable       Old X    -DE/DX   Delta X   Delta X   Delta X     New X
                                 (Linear)    (Quad)   (Total)
    R1        2.65210   0.00003   0.00000   0.00006   0.00006   2.65216
    R2        2.05617  -0.00001   0.00000  -0.00002  -0.00002   2.05615
    R3        2.63162   0.00001   0.00000   0.00001   0.00001   2.63163
    R4        2.66639   0.00000   0.00000   0.00001   0.00001   2.66640
    R5        2.68600   0.00001   0.00000   0.00002   0.00002   2.68601
    R6        2.66587   0.00000   0.00000  -0.00001  -0.00001   2.66585
    R7        2.63107   0.00003   0.00000   0.00007   0.00007   2.63114
    R8        2.05255   0.00000   0.00000   0.00000   0.00000   2.05255
    R9        2.65264   0.00003   0.00000   0.00006   0.00006   2.65270
   R10        2.05622   0.00000   0.00000  -0.00001  -0.00001   2.05621
   R11        2.85446  -0.00002   0.00000  -0.00006  -0.00006   2.85440
   R12        2.31069   0.00001   0.00000   0.00001   0.00001   2.31069
   R13        2.57080   0.00000   0.00000   0.00001   0.00001   2.57081
   R14        2.31105   0.00001   0.00000   0.00001   0.00001   2.31105
   R15        2.68374   0.00001   0.00000   0.00001   0.00001   2.68376
   R16        2.67409  -0.00001   0.00000  -0.00004  -0.00004   2.67405
   R17        2.65995   0.00000   0.00000  -0.00001  -0.00001   2.65995
   R18        2.61934   0.00001   0.00000   0.00002   0.00002   2.61935
   R19        2.05215  -0.00001   0.00000  -0.00002  -0.00002   2.05213
   R20        2.65578   0.00002   0.00000   0.00005   0.00005   2.65583
   R21        2.05183   0.00000   0.00000  -0.00001  -0.00001   2.05182
   R22        2.65046   0.00007   0.00000   0.00015   0.00015   2.65061
   R23        2.04851  -0.00002   0.00000  -0.00007  -0.00007   2.04845
   R24        2.63646   0.00003   0.00000   0.00007   0.00007   2.63652
   R25        2.57660   0.00000   0.00000  -0.00001  -0.00001   2.57659
   R26        2.05258  -0.00001   0.00000  -0.00002  -0.00002   2.05256
   R27        2.05237   0.00000   0.00000  -0.00001  -0.00001   2.05236
   R28        2.07083   0.00000   0.00000  -0.00001  -0.00001   2.07082
   R29        2.07633   0.00001   0.00000   0.00003   0.00003   2.07636
   R30        2.07053   0.00000   0.00000  -0.00001  -0.00001   2.07052
   R31        2.69036  -0.00002   0.00000  -0.00004  -0.00004   2.69032
   R32        2.06214   0.00000   0.00000  -0.00001  -0.00001   2.06213
   R33        2.07522   0.00001   0.00000   0.00004   0.00004   2.07526
   R34        2.07522   0.00001   0.00000   0.00004   0.00004   2.07526
    A1        2.08411   0.00002   0.00000   0.00013   0.00013   2.08424
    A2        2.11808  -0.00001   0.00000  -0.00005  -0.00005   2.11802
    A3        2.08100  -0.00001   0.00000  -0.00008  -0.00008   2.08092
    A4        2.10803   0.00003   0.00000   0.00013   0.00013   2.10815
    A5        2.06644   0.00001   0.00000   0.00004   0.00004   2.06648
    A6        2.10871  -0.00004   0.00000  -0.00017  -0.00017   2.10854
    A7        2.10218  -0.00002   0.00000  -0.00010  -0.00010   2.10209
    A8        2.08135   0.00001   0.00000   0.00005   0.00005   2.08139
    A9        2.09965   0.00001   0.00000   0.00005   0.00005   2.09970
   A10        2.11795   0.00001   0.00000   0.00007   0.00007   2.11803
   A11        2.08114  -0.00002   0.00000  -0.00011  -0.00011   2.08103
   A12        2.08409   0.00001   0.00000   0.00004   0.00004   2.08413
   A13        2.05965  -0.00001   0.00000  -0.00003  -0.00003   2.05962
   A14        2.11236   0.00001   0.00000   0.00005   0.00005   2.11240
   A15        2.11093   0.00000   0.00000  -0.00001  -0.00001   2.11092
   A16        2.10904  -0.00002   0.00000  -0.00007  -0.00007   2.10898
   A17        2.11123   0.00001   0.00000   0.00005   0.00005   2.11128
   A18        2.06291   0.00001   0.00000   0.00002   0.00002   2.06293
   A19        2.10880   0.00002   0.00000   0.00005   0.00005   2.10885
   A20        2.08101  -0.00001   0.00000  -0.00001  -0.00001   2.08100
   A21        2.09337  -0.00001   0.00000  -0.00003  -0.00003   2.09333
   A22        2.09959   0.00001   0.00000   0.00002   0.00002   2.09961
   A23        2.11471  -0.00001   0.00000  -0.00003  -0.00003   2.11468
   A24        2.06888   0.00000   0.00000   0.00001   0.00001   2.06890
   A25        2.11466   0.00005   0.00000   0.00034   0.00034   2.11500
   A26        2.08914   0.00001   0.00000   0.00006   0.00006   2.08920
   A27        2.07938  -0.00006   0.00000  -0.00040  -0.00040   2.07898
   A28        2.08979  -0.00003   0.00000  -0.00010  -0.00010   2.08969
   A29        2.01828  -0.00009   0.00000  -0.00038  -0.00038   2.01790
   A30        2.17512   0.00012   0.00000   0.00049   0.00049   2.17560
   A31        2.10206   0.00002   0.00000   0.00006   0.00006   2.10212
   A32        2.09958  -0.00001   0.00000  -0.00004  -0.00004   2.09953
   A33        2.08155  -0.00001   0.00000  -0.00002  -0.00002   2.08152
   A34        2.11614  -0.00001   0.00000  -0.00005  -0.00005   2.11610
   A35        2.08086   0.00000   0.00000   0.00002   0.00002   2.08088
   A36        2.08618   0.00001   0.00000   0.00003   0.00003   2.08621
   A37        1.94625  -0.00002   0.00000  -0.00016  -0.00016   1.94609
   A38        1.93543   0.00003   0.00000   0.00019   0.00019   1.93562
   A39        1.94643   0.00001   0.00000   0.00007   0.00007   1.94649
   A40        1.87268   0.00000   0.00000   0.00000   0.00000   1.87268
   A41        1.88614   0.00000   0.00000  -0.00005  -0.00005   1.88608
   A42        1.87358  -0.00001   0.00000  -0.00004  -0.00004   1.87353
   A43        2.07214   0.00017   0.00000   0.00067   0.00067   2.07280
   A44        1.84493  -0.00002   0.00000  -0.00021  -0.00021   1.84472
   A45        1.94177   0.00005   0.00000   0.00032   0.00032   1.94208
   A46        1.94175   0.00005   0.00000   0.00033   0.00033   1.94208
   A47        1.91068  -0.00003   0.00000  -0.00024  -0.00024   1.91043
   A48        1.91068  -0.00003   0.00000  -0.00024  -0.00024   1.91044
   A49        1.91274  -0.00001   0.00000   0.00002   0.00002   1.91276
   A50        3.14002   0.00006   0.00000   0.00145   0.00145   3.14147
   A51        3.14195   0.00003   0.00000   0.00116   0.00116   3.14311
   A52        3.14197   0.00002   0.00000   0.00040   0.00040   3.14237
   A53        3.13725  -0.00002   0.00000  -0.00116  -0.00116   3.13609
   A54        3.14239  -0.00001   0.00000  -0.00061  -0.00061   3.14178
   A55        3.14212  -0.00001   0.00000  -0.00063  -0.00063   3.14148
   A56        3.14213  -0.00001   0.00000  -0.00028  -0.00028   3.14184
   A57        3.14180   0.00000   0.00000  -0.00068  -0.00068   3.14112
    D1        3.13525   0.00000   0.00000  -0.00012  -0.00012   3.13512
    D2       -0.03016   0.00001   0.00000   0.00045   0.00045  -0.02971
    D3       -0.00480   0.00000   0.00000   0.00007   0.00007  -0.00473
    D4        3.11298   0.00001   0.00000   0.00064   0.00064   3.11362
    D5        0.00161   0.00000   0.00000   0.00011   0.00011   0.00172
    D6        3.13965   0.00000   0.00000  -0.00018  -0.00018   3.13948
    D7       -3.13843   0.00001   0.00000   0.00030   0.00030  -3.13813
    D8       -0.00039   0.00000   0.00000   0.00002   0.00002  -0.00038
    D9       -3.14037   0.00001   0.00000   0.00052   0.00052  -3.13984
   D10       -0.00240   0.00000   0.00000   0.00039   0.00039  -0.00201
   D11       -0.00160   0.00001   0.00000   0.00014   0.00014  -0.00146
   D12        3.13637   0.00000   0.00000   0.00000   0.00000   3.13637
   D13       -0.01132   0.00000   0.00000   0.00062   0.00062  -0.01071
   D14        3.13116  -0.00001   0.00000  -0.00043  -0.00043   3.13073
   D15        3.13214   0.00002   0.00000   0.00196   0.00196   3.13410
   D16       -0.00856   0.00001   0.00000   0.00091   0.00091  -0.00765
   D17        0.00164  -0.00001   0.00000  -0.00021  -0.00021   0.00143
   D18       -3.13644   0.00000   0.00000   0.00007   0.00007  -3.13637
   D19        3.14040  -0.00001   0.00000  -0.00060  -0.00060   3.13980
   D20        0.00232   0.00000   0.00000  -0.00031  -0.00031   0.00201
   D21       -0.00169   0.00000   0.00000   0.00004   0.00004  -0.00165
   D22        3.13821   0.00000   0.00000  -0.00010  -0.00010   3.13811
   D23       -3.13962   0.00000   0.00000   0.00018   0.00018  -3.13944
   D24        0.00028   0.00000   0.00000   0.00004   0.00004   0.00031
   D25        0.00484   0.00000   0.00000  -0.00014  -0.00014   0.00469
   D26       -3.11296  -0.00001   0.00000  -0.00072  -0.00072  -3.11368
   D27       -3.13506   0.00000   0.00000   0.00000   0.00000  -3.13506
   D28        0.03033  -0.00001   0.00000  -0.00058  -0.00058   0.02975
   D29        2.60908  -0.00001   0.00000  -0.00023  -0.00023   2.60885
   D30       -1.58833  -0.00001   0.00000  -0.00021  -0.00021  -1.58854
   D31        0.49870   0.00000   0.00000  -0.00009  -0.00009   0.49860
   D32       -0.55703   0.00000   0.00000   0.00036   0.00036  -0.55667
   D33        1.52874   0.00000   0.00000   0.00039   0.00039   1.52913
   D34       -2.66741   0.00001   0.00000   0.00050   0.00050  -2.66691
   D35       -3.14138   0.00000   0.00000  -0.00012  -0.00012  -3.14150
   D36        0.00012   0.00000   0.00000  -0.00002  -0.00002   0.00010
   D37        0.00003   0.00000   0.00000  -0.00002  -0.00002   0.00001
   D38        3.14153   0.00000   0.00000   0.00008   0.00008  -3.14157
   D39        3.14137   0.00000   0.00000   0.00011   0.00011   3.14148
   D40       -0.00023   0.00000   0.00000   0.00012   0.00012  -0.00011
   D41       -0.00004   0.00000   0.00000   0.00000   0.00000  -0.00004
   D42        3.14154   0.00000   0.00000   0.00002   0.00002   3.14156
   D43        0.00000   0.00000   0.00000   0.00001   0.00001   0.00002
   D44        3.14152   0.00000   0.00000   0.00008   0.00008  -3.14158
   D45       -3.14150   0.00000   0.00000  -0.00009  -0.00009  -3.14158
   D46        0.00001   0.00000   0.00000  -0.00002  -0.00002   0.00000
   D47       -0.00002   0.00000   0.00000   0.00000   0.00000  -0.00003
   D48        3.14155   0.00000   0.00000   0.00003   0.00003   3.14157
   D49       -3.14154   0.00000   0.00000  -0.00007  -0.00007   3.14157
   D50        0.00003   0.00000   0.00000  -0.00004  -0.00004  -0.00001
   D51       -3.14155   0.00000   0.00000  -0.00001  -0.00001  -3.14157
   D52        0.00006   0.00000   0.00000  -0.00004  -0.00004   0.00002
   D53        0.00001   0.00000   0.00000  -0.00001  -0.00001   0.00000
   D54       -3.14155   0.00000   0.00000  -0.00004  -0.00004   3.14159
   D55        0.00002   0.00000   0.00000   0.00001   0.00001   0.00003
   D56       -3.14157   0.00000   0.00000  -0.00001  -0.00001  -3.14157
   D57        3.14159   0.00000   0.00000   0.00001   0.00001  -3.14159
   D58        0.00000   0.00000   0.00000   0.00000   0.00000   0.00000
   D59       -3.14151   0.00000   0.00000  -0.00004  -0.00004  -3.14155
   D60        0.00006   0.00000   0.00000  -0.00001  -0.00001   0.00005
   D61        3.14158   0.00000   0.00000  -0.00002  -0.00002   3.14156
   D62       -1.06905  -0.00002   0.00000  -0.00027  -0.00027  -1.06932
   D63        1.06903   0.00002   0.00000   0.00022   0.00022   1.06924
         Item               Value     Threshold  Converged?
 Maximum Force            0.000167     0.000450     YES
 RMS     Force            0.000025     0.000300     YES
 Maximum Displacement     0.009604     0.001800     NO 
 RMS     Displacement     0.003150     0.001200     NO 
 Predicted change in Energy=-3.256626D-07
 GradGradGradGradGradGradGradGradGradGradGradGradGradGradGradGradGradGrad

                          Input orientation:                          
 ---------------------------------------------------------------------
 Center     Atomic      Atomic             Coordinates (Angstroms)
 Number     Number       Type             X           Y           Z
 ---------------------------------------------------------------------
      1          6           0        5.913656   -1.258753   -0.002929
      2          6           0        3.824722   -0.011126   -0.003296
      3          6           0        4.572720    1.185264   -0.011505
      4          6           0        5.964532    1.147028   -0.014373
      5          6           0        6.661759   -0.071305   -0.007264
      6          1           0        6.430671   -2.216137   -0.003531
      7          1           0        4.050598    2.137672   -0.019129
      8          1           0        6.521792    2.081547   -0.024034
      9          6           0        2.403672    0.019275   -0.002459
     10          6           0        1.181189    0.045574   -0.001554
     11          6           0       -0.178951    0.072769   -0.000625
     12          6           0       -1.401681    0.096271    0.000394
     13          6           0       -2.821430    0.131382    0.001073
     14          6           0       -3.516482    1.363953    0.006813
     15          6           0       -4.902164    1.398049    0.007583
[...]
 2,0.00003405,-0.00001779,0.00001606,0.00000827,0.00002533,0.00000135,0
 .00000358,0.00000104,0.00000045,-0.08000270,0.07404988,0.04013933,0.00
 459618,-0.01030984,-0.00707013,0.00378309,-0.00948955,-0.00363651,0.08
 938824,-0.00206384,0.00039788,0.00036547,-0.00026529,0.00028648,0.0000
 5717,-0.00014127,-0.00011168,0.00000347,0.00048296,0.00050841,-0.00060
 836,0.00025760,0.00007664,0.00167807,-0.00006083,0.00029020,-0.0004867
 6,0.00006638,0.00000064,0.00000940,-0.00018553,0.00042958,-0.00005418,
 0.00011695,0.00005804,-0.00014910,-0.00005404,-0.00000553,0.00000295,0
 .00004486,-0.00000385,0.00001605,-0.00003335,0.00000175,-0.00000346,0.
 00000290,0.00000187,0.00000048,-0.00000337,0.00001298,0.00000004,0.000
 01530,0.00001242,0.00000094,-0.00000284,0.00000195,-0.00000104,0.00001
 770,-0.00001284,0.00000009,-0.00004621,0.00000632,0.00000012,0.0000019
 0,-0.00000159,-0.00000025,0.00000283,0.00000203,-0.00000055,0.00066234
 ,0.00013673,0.00057511,0.00006142,0.00000397,-0.00004075,-0.00000550,-
 0.00001538,0.00000084,-0.00000283,-0.00000130,-0.00000038,0.07620513,-
 0.23301204,-0.09385631,0.00884691,-0.01989903,-0.01186444,-0.00065039,
 0.00012736,0.00002780,-0.08331796,0.25071511,-0.00013282,-0.00028170,0
 .00035749,0.00016337,0.00047173,-0.00000557,-0.00087882,-0.00008684,0.
 00013676,-0.00001078,0.00008130,0.00060193,-0.00257621,0.00286482,0.00
 043252,0.00030951,0.00037068,0.00007540,-0.00004052,0.00001168,-0.0000
 8750,-0.00004013,-0.00014670,-0.00005238,-0.00011215,0.00000407,-0.000
 00223,0.00004856,-0.00000007,-0.00000078,-0.00000110,0.00000577,0.0000
 0776,-0.00000429,-0.00000527,-0.00000605,-0.00000734,0.00000351,0.0000
 0177,-0.00000313,0.00001110,0.00000016,0.00001605,0.00001651,-0.000000
 43,-0.00000229,0.00000121,0.00000032,0.00001861,-0.00001823,-0.0000003
 9,-0.00005072,0.00000850,-0.00000001,0.00000197,-0.00000181,0.00000016
 ,0.00000283,0.00000221,0.00000028,0.00021341,0.00001478,-0.00006536,0.
 00001724,-0.00000595,-0.00002775,-0.00000592,-0.00001224,-0.00000064,-
 0.00000235,-0.00000083,0.00000052,0.04177127,-0.09426434,-0.09580022,-
 0.00715486,0.01397571,0.00785853,0.01113679,-0.02733858,-0.01306816,-0
 .04273289,0.10432777,0.09964383,-0.00020626,-0.00041718,-0.00000469,0.
 00113864,-0.00001965,-0.00001825,-0.00036274,0.00030117,-0.00001346,-0
 .00018740,0.00042559,-0.00001176,0.00000760,0.00001113,0.00019315,-0.0
 0013107,0.00011964,0.00000515,0.00009673,0.00004051,0.00000927,-0.0001
 3169,-0.00011262,0.00000593,-0.00080922,0.00002418,0.00000223,0.000857
 77,-0.00001873,0.00000155,-0.00281062,-0.00003720,-0.00000047,0.004196
 35,0.00014691,0.00000047,-0.00707881,0.00293743,0.00001357,0.00827321,
 -0.00326602,-0.00001415,-0.05478446,-0.01434728,-0.00002184,-0.0009999
 0,-0.00013767,0.00000024,-0.03861585,0.01318027,0.00007176,-0.28476020
 ,0.04505372,0.00028184,0.00108534,0.00084179,0.00000104,0.00008815,-0.
 00049158,-0.00000280,-0.00037728,-0.00029434,-0.00001355,0.00009601,-0
 .00004155,0.00000867,0.00342605,0.00134782,0.00000533,-0.00120265,0.00
 000294,0.00000031,0.00002816,-0.00002175,-0.00026281,-0.00011158,-0.00
 004737,0.00007599,-0.00023632,0.00000556,-0.00004900,-0.00010257,0.000
 06210,0.00007261,0.52116702,-0.00001835,-0.00002369,-0.00000029,0.0000
 8091,-0.00000251,0.00000056,-0.00002446,0.00002102,-0.00000071,-0.0000
 1694,0.00003199,-0.00000126,0.00000666,0.00000068,0.00001494,-0.000014
 14,0.00001074,0.00000045,0.00000943,0.00000815,0.00000049,-0.00000798,
 -0.00000786,0.00000041,-0.00002536,0.00002389,-0.00000282,0.00003024,-
 0.00003576,0.00000157,-0.00010253,-0.00007477,-0.00000096,0.00015731,0
 .00055668,0.00000384,0.00030810,0.00444545,0.00002057,0.00271274,-0.00
 861463,-0.00004754,-0.04672427,0.00841211,0.00003084,-0.00172819,0.000
 10540,0.00000031,0.03955865,0.00259289,-0.00004085,0.00671058,-0.11193
 019,-0.00025476,0.00021100,0.00167736,0.00001730,-0.00195461,0.0015393
 5,0.00001620,-0.00003665,-0.00003941,-0.00000135,0.00000918,-0.0000018
 7,0.00000071,-0.00489444,-0.00818992,-0.00005099,0.00160522,0.00014424
 ,0.00000025,0.00000237,-0.00000299,-0.00001995,-0.00000753,-0.00000318
 ,0.00000489,-0.00001759,-0.00000089,-0.00000401,-0.00000851,0.00000632
 ,0.00000655,0.08590922,0.34966386,0.00000011,0.00000026,0.00000135,-0.
 00000028,-0.00000021,0.00000755,0.00000014,0.00000008,0.00000357,0.000
 00008,-0.00000010,0.00000143,-0.00000036,0.00000002,0.00001026,-0.0000
 0003,-0.00000001,-0.00000152,-0.00000002,-0.00000004,-0.00000324,0.000
 00006,0.00000003,-0.00000120,0.00000028,0.00000082,-0.00005079,-0.0000
 0035,-0.00000192,0.00014047,0.00000102,0.00000156,-0.00017368,-0.00000
 184,0.00000259,-0.00032061,0.00000385,0.00001970,-0.00132473,0.0000076
 6,-0.00004443,0.00423972,-0.00013743,0.00001485,0.00625662,-0.00000554
 ,-0.00000055,0.00026876,0.00016649,-0.00002899,0.00878441,0.00014639,-
 0.00027346,-0.04178777,-0.00000141,0.00001673,-0.00313510,-0.00000868,
 0.00001574,-0.00275645,-0.00000004,-0.00000004,-0.00000130,-0.00000004
 ,0.,-0.00000191,-0.00001647,-0.00005414,0.00654630,0.00000641,0.000001
 09,-0.00016879,0.00000021,-0.00000022,-0.00000470,-0.00000026,-0.00000
 049,-0.00000023,0.00000071,0.00000008,0.00000060,-0.00000015,0.0000005
 5,-0.00000030,0.00007872,0.00096267,0.06779106,0.00004780,0.00009613,0
 .00000137,-0.00028995,0.00000568,0.00000750,0.00009006,-0.00006369,0.0
 0000251,0.00004261,-0.00010033,0.00000345,-0.00000272,-0.00000386,-0.0
 0004916,0.00003229,-0.00002920,-0.00000124,-0.00002361,-0.00001169,-0.
 00000211,0.00003067,0.00002712,-0.00000145,0.00022798,0.00001007,-0.00
 000402,-0.00027872,-0.00004565,0.00000230,0.00075477,0.00005388,-0.000
 00036,-0.00119665,-0.00008135,-0.00000113,0.00155354,-0.00031862,-0.00
 000094,-0.00157158,-0.00142784,-0.00000367,-0.00066386,0.00513182,0.00
 002050,-0.00023466,0.00014629,0.00000047,0.00243911,-0.00047161,-0.000
 00393,-0.04409690,-0.03468659,-0.00010420,-0.00001075,-0.00042602,-0.0
 0000187,-0.00247023,-0.00085507,-0.00000228,0.00009481,0.00006580,0.00
 000300,-0.00002342,0.00001091,-0.00000202,-0.00070305,-0.00194711,-0.0
 0000588,0.00043185,-0.00006217,-0.00000038,-0.00000730,0.00000704,0.00
 006403,0.00002674,0.00001180,-0.00001810,0.00005680,-0.00000105,0.0000
 1229,0.00002497,-0.00001587,-0.00001782,-0.11816224,-0.04056047,-0.000
 11466,0.57739843,0.00006714,0.00013000,0.00000152,-0.00036314,0.000009
 43,0.00000320,0.00011368,-0.00009996,0.00000456,0.00006242,-0.00013695
 ,0.00000377,-0.00000513,-0.00000238,-0.00006273,0.00004512,-0.00003973
 ,-0.00000169,-0.00003136,-0.00001598,-0.00000286,0.00004056,0.00003508
 ,-0.00000183,0.00023862,-0.00004216,0.00000306,-0.00024767,0.00004737,
 -0.00000172,0.00081928,0.00003347,-0.00000047,-0.00125906,-0.00018483,
 0.00000041,0.00179160,0.00050652,0.00000067,-0.00042956,0.00000938,-0.
 00000528,0.00525283,0.00176197,-0.00000671,0.00035058,0.00010129,0.000
 00128,0.00966388,0.00203611,0.00000634,-0.01363967,0.00462606,0.000042
 48,-0.00005790,0.00007174,0.00000258,0.00147941,-0.00082846,-0.0000034
 2,0.00012762,0.00011112,0.00000468,-0.00003231,0.00001158,-0.00000288,
 -0.00143488,-0.00160799,-0.00000553,0.00046450,-0.00011038,-0.00000062
 ,-0.00000947,0.00000716,0.00008506,0.00003528,0.00001445,-0.00002350,0
 .00007605,-0.00000056,0.00001553,0.00003371,-0.00002099,-0.00002413,-0
 .07147282,-0.18589242,-0.00041162,-0.08046319,0.49893915,0.00000019,0.
 00000019,-0.00000760,-0.00000123,0.00000012,0.00001243,0.00000036,-0.0
 0000038,-0.00000322,0.00000011,-0.00000029,-0.00000277,0.00000035,0.00
 000001,-0.00000250,0.00000011,-0.00000011,0.00000253,-0.00000007,0.000
 00002,0.00000356,0.00000018,0.00000014,0.00000247,0.00000055,-0.000000
 37,-0.00005750,-0.00000062,-0.00000080,0.00011870,0.00000242,0.0000031
 1,-0.00008216,-0.00000409,-0.00000187,-0.00034033,0.00000590,0.0000008
 9,0.00033164,-0.00000032,-0.00000495,0.00162594,0.00002067,-0.00000695
 ,0.00300956,0.00000121,0.00000144,-0.00031673,0.00003251,0.00001252,-0
 .00134656,-0.00002927,0.00005390,-0.00561902,-0.00000046,0.00000284,-0
 .00065152,0.00000662,-0.00000195,-0.00012430,0.00000048,0.00000044,0.0
 0000106,-0.00000009,0.00000007,0.00000527,-0.00000445,-0.00000611,0.00
 036640,0.00000143,-0.00000045,0.00001787,-0.00000023,0.00000015,0.0000
 0226,0.00000042,0.00000093,0.00000036,-0.00000058,-0.00000012,-0.00000
 082,0.00000043,-0.00000099,0.00000046,-0.00022544,-0.00042749,-0.06009
 620,-0.00028950,-0.00023232,0.57566418,-0.00000987,-0.00001719,-0.0000
 0026,0.00005122,-0.00000147,-0.00000058,-0.00001731,0.00001465,-0.0000
 0063,-0.00000896,0.00001750,-0.00000053,0.00000218,0.00000059,0.000008
 53,-0.00000610,0.00000551,0.00000024,0.00000499,0.00000246,0.00000039,
 -0.00000629,-0.00000526,0.00000029,-0.00002977,0.00000487,-0.00000013,
 0.00003396,-0.00000628,0.00000008,-0.00009931,-0.00000392,0.00000015,0
 .00014265,0.00001723,-0.00000002,-0.00007623,0.00000043,0.,0.00003277,
 -0.00036901,-0.00000136,-0.00111421,0.00031469,0.00000179,-0.00010190,
 0.00000240,0.00000003,0.00011906,-0.00017682,-0.00000047,0.00193300,-0
 .00325284,-0.00001209,0.00001635,-0.00002855,-0.00000010,0.00009498,-0
 .00002642,-0.00000037,-0.00001781,-0.00001397,-0.00000059,0.00000490,-
 0.00000265,0.00000038,0.00004549,0.00010003,0.00000033,-0.00004061,0.0
 0001078,0.00000007,0.00000138,-0.00000108,-0.00001160,-0.00000501,-0.0
 0000241,0.00000349,-0.00001053,0.00000028,-0.00000241,-0.00000457,0.00
 000301,0.00000328,-0.02635836,-0.00215144,0.00000609,-0.28764104,0.091
 01935,0.00044892,0.31829945,-0.00000005,-0.00000096,0.00000014,0.00000
 267,0.00000013,0.00000062,-0.00000044,0.00000095,-0.00000003,0.0000003
 4,0.00000153,-0.00000005,-0.00000101,0.00000024,-0.00000027,-0.0000002
 5,0.00000005,0.,-0.00000007,-0.00000029,0.00000003,-0.00000003,-0.0000
 0009,0.,-0.00000548,0.00000069,-0.00000057,0.00000491,-0.00000132,0.00
 000034,-0.00001211,-0.00000432,0.,0.00004623,0.00005309,0.00000023,0.0
 0007359,0.00017121,0.00000090,0.00019279,-0.00051133,-0.00000200,-0.00
 161220,0.00043251,0.00000159,-0.00013299,0.00001496,0.00000028,0.00020
 697,-0.00129074,-0.00000596,-0.00192576,-0.00441099,-0.00001686,0.0000
 5236,-0.00001673,-0.00000013,0.00038687,0.00081599,0.00000443,-0.00000
 101,-0.00000178,-0.00000019,-0.00000018,0.00000054,0.00000002,-0.00019
 284,0.00047436,0.00000109,-0.00006169,-0.00000777,-0.00000012,0.000000
 12,-0.00000029,-0.00000017,-0.00000014,0.00000012,0.00000006,-0.000000
 40,0.00000002,0.00000006,-0.00000019,-0.00000010,0.00000007,-0.0407983
 2,0.00366961,0.00003233,0.10447893,-0.08485803,-0.00016774,-0.09104134
 ,0.09377890,-0.00000002,-0.00000001,-0.00000111,-0.00000003,0.00000005
 ,-0.00000050,0.00000001,-0.00000002,-0.00000164,-0.00000001,0.,0.00000
 068,0.00000004,0.00000003,0.00000225,0.,0.,0.00000022,0.,0.,0.00000038
 ,0.00000001,0.,0.00000035,0.,-0.00000015,-0.00000299,0.,0.00000021,0.0
 0001079,0.,-0.00000009,-0.00002528,0.00000009,0.00000021,-0.00000116,0
 .00000030,0.00000081,-0.00006427,0.00000062,-0.00000165,0.00000590,-0.
 00000504,0.00000059,0.00022460,-0.00000045,0.00000021,-0.00004392,0.00
 000085,-0.00000562,0.00032169,-0.00000777,-0.00001624,0.00058189,0.000
 00019,-0.00000011,0.00001889,0.00000105,0.00000460,-0.00046347,0.,0.,0
 .00000080,0.,0.,0.00000039,-0.00000057,0.00000097,0.00018820,-0.000000
 19,-0.00000015,0.00003106,0.00000003,-0.00000010,-0.00000085,0.,0.0000
 0014,0.00000005,-0.00000006,0.00000003,-0.00000012,0.00000004,-0.00000
 009,0.00000005,-0.00013179,0.00001221,0.00054705,0.00049715,-0.0001608
 0,-0.05318774,-0.00046764,0.00021097,0.04813324,0.00000253,0.00000349,
 -0.00000256,-0.00000668,0.00000031,-0.00000058,0.00000266,-0.00000414,
 -0.00000319,0.00000241,-0.00000335,0.00000267,-0.00000097,0.,-0.000000
 64,0.00000118,-0.00000106,0.00000005,-0.00000096,-0.00000048,-0.000000
 10,0.00000125,0.00000103,0.00000016,-0.00000264,-0.00000142,-0.0000024
 7,0.00000521,0.00000048,0.00001724,-0.00000393,-0.00000568,0.00000092,
 0.00000652,0.00002576,-0.00014894,0.00002212,0.00089423,0.00007573,0.0
 0089422,-0.00045887,0.00021086,-0.00126921,-0.00064064,0.00058848,-0.0
 0000150,-0.00000373,-0.00005023,0.00011590,0.00086596,-0.00016713,0.00
 461932,-0.00129751,-0.00215092,0.00004702,0.00011776,-0.00013191,-0.00
 182956,0.00015739,-0.00150566,0.00000244,0.00000365,0.00000292,-0.0000
 0104,0.00000064,0.00000044,-0.00083514,-0.00031746,0.00053269,-0.00000
 320,-0.00000612,-0.00004383,-0.00000012,0.00000009,0.00000195,0.000000
 97,0.00000056,-0.00000064,0.00000199,-0.00000004,0.00000036,0.00000087
 ,-0.00000064,-0.00000061,-0.00152863,-0.01944449,-0.01861108,-0.062894
 68,0.02867165,0.04325554,-0.00260368,0.01507882,0.02590960,0.06330280,
 -0.00001209,-0.00002385,-0.00000055,0.00007053,-0.00000121,-0.00000140
 ,-0.00002232,0.00001737,-0.00000235,-0.00001094,0.00002472,0.00000104,
 0.00000056,0.00000071,0.00001180,-0.00000800,0.00000722,0.,0.00000588,
 0.00000270,-0.00000004,-0.00000772,-0.00000667,0.00000004,-0.00005320,
 0.00000067,-0.00000008,0.00005979,0.00000479,0.00001101,-0.00018132,-0
 .00001730,-0.00001281,0.00026370,0.00003721,-0.00001582,-0.00042317,0.
 00026218,-0.00002479,0.00053553,-0.00009673,0.00023016,-0.00132263,-0.
 00063501,0.00043185,-0.00004983,-0.00001996,-0.00004647,-0.00068530,0.
 00062485,0.00038588,0.00633822,-0.00036035,-0.00061402,0.00008606,0.00
 015403,-0.00018521,0.00028915,0.00037776,0.00006325,-0.00002369,-0.000
 01793,0.00000102,0.00000583,-0.00000243,-0.00000020,-0.00001900,0.0000
 6563,-0.00003973,-0.00006478,0.00002214,0.00001427,0.00000187,-0.00000
 143,-0.00001608,-0.00000668,-0.00000296,0.00000439,-0.00001397,0.00000
 028,-0.00000277,-0.00000617,0.00000393,0.00000427,-0.00943358,-0.02895
 725,-0.02230103,0.02556551,-0.11653195,-0.10647523,0.00278804,-0.00412
 757,-0.00944635,-0.02132556,0.13736941,-0.00000294,-0.00000822,0.00000
 141,0.00002019,-0.00000016,-0.00000081,-0.00000487,0.00000371,0.000001
 21,-0.00000283,0.00000926,-0.00000055,-0.00000102,-0.00000007,0.000004
 27,-0.00000256,0.00000222,-0.00000041,0.00000116,0.00000073,-0.0000005
 0,-0.00000157,-0.00000170,-0.00000041,-0.00001655,0.00000603,0.0000023
 3,0.00001685,-0.00001734,-0.00000496,-0.00005109,0.00001842,0.00000575
 ,0.00011551,0.00005082,0.00001807,-0.00012586,0.00001470,-0.00004401,0
 .00021845,0.00004112,-0.00001761,-0.00057370,-0.00004958,-0.00021948,-
 0.00002085,0.00000422,0.00000843,-0.00044133,-0.00111211,-0.00003325,0
 .00195792,-0.00038375,0.00054362,0.00005780,0.00008587,-0.00000591,-0.
 00022005,0.00076299,-0.00015980,-0.00000658,-0.00000629,-0.00000046,0.
 00000133,0.00000017,-0.00000107,0.00014212,0.00049882,-0.00004972,-0.0
 0003841,-0.00000491,0.00000607,0.00000052,-0.00000031,-0.00000544,-0.0
 0000188,-0.00000072,0.00000110,-0.00000404,-0.00000011,-0.00000049,-0.
 00000206,0.00000129,0.00000134,-0.00587914,-0.00255433,0.00753949,0.03
 992720,-0.10895878,-0.23048049,0.00013869,0.00170159,0.00182109,-0.041
 46949,0.12384298,0.24193687,0.00000250,0.00000355,0.00000274,-0.000006
 72,0.00000022,0.00000093,0.00000269,-0.00000417,0.00000348,0.00000248,
 -0.00000340,-0.00000250,-0.00000102,-0.00000003,-0.00000318,0.00000119
 ,-0.00000108,-0.00000015,-0.00000096,-0.00000046,-0.00000005,0.0000012
 2,0.00000102,-0.00000027,-0.00000260,-0.00000051,0.00000281,0.00000523
 ,-0.00000063,-0.00001792,-0.00000395,-0.00000528,-0.00000028,0.0000066
 7,0.00002481,0.00014880,0.00002212,0.00089477,-0.00006936,0.00089381,-
 0.00045735,-0.00021489,-0.00126906,-0.00063640,-0.00059214,-0.00000143
 ,-0.00000411,0.00005020,0.00011768,0.00086573,0.00017198,0.00461779,-0
 .00131194,0.00213750,0.00004710,0.00011674,0.00013267,-0.00182839,0.00
 014335,0.00150922,0.00000241,0.00000357,-0.00000273,-0.00000104,0.0000
 0065,-0.00000058,-0.00083571,-0.00031426,-0.00053405,-0.00000311,-0.00
 000644,0.00004379,-0.00000019,0.00000029,0.00000286,0.00000101,0.00000
 036,-0.00000072,0.00000201,-0.00000007,0.00000057,0.00000089,-0.000000
 57,-0.00000070,-0.00150320,-0.01957366,0.01848041,-0.06298109,0.029092
 89,-0.04322207,-0.00263084,0.01526191,-0.02579643,0.00195256,-0.002340
 72,0.00626906,0.06338995,-0.00001212,-0.00002391,-0.00000014,0.0000706
 5,-0.00000152,-0.00000076,-0.00002227,0.00001741,0.00000083,-0.0000109
 9,0.00002488,-0.00000257,0.00000063,0.00000060,0.00001163,-0.00000802,
 0.00000725,0.00000062,0.00000589,0.00000271,0.00000111,-0.00000771,-0.
 00000667,0.00000066,-0.00005327,0.00000166,0.00000027,0.00005986,0.000
 00330,-0.00001118,-0.00018162,-0.00001652,0.00001318,0.00026452,0.0000
 3758,0.00001591,-0.00042403,0.00026202,0.00002717,0.00053695,-0.000094
 78,-0.00023132,-0.00132703,-0.00063226,-0.00043378,-0.00004993,-0.0000
 2027,0.00004633,-0.00068846,0.00061936,-0.00038047,0.00635258,-0.00036
 641,0.00060150,0.00008665,0.00015332,0.00018627,0.00028626,0.00038375,
 -0.00005917,-0.00002377,-0.00001796,-0.00000261,0.00000584,-0.00000242
 ,0.00000124,-0.00001795,0.00006893,0.00004011,-0.00006506,0.00002220,-
 0.00001410,0.00000181,-0.00000137,-0.00001521,-0.00000654,-0.00000270,
 0.00000448,-0.00001424,0.00000024,-0.00000310,-0.00000616,0.00000372,0
 .00000442,-0.00945231,-0.02913241,0.02204818,0.02596040,-0.11807915,0.
 10725136,0.00279882,-0.00418258,0.00940035,-0.00231062,0.01182700,-0.0
 1394658,-0.02174878,0.13914499,0.00000294,0.00000813,0.00000160,-0.000
 01967,0.00000003,-0.00000008,0.00000464,-0.00000349,0.00000158,0.00000
 278,-0.00000917,-0.00000004,0.00000079,0.00000001,-0.00000300,0.000002
 52,-0.00000217,-0.00000057,-0.00000112,-0.00000072,-0.00000083,0.00000
 147,0.00000164,-0.00000055,0.00001617,-0.00000590,0.00000218,-0.000016
 42,0.00001733,-0.00000460,0.00004978,-0.00001854,0.00000543,-0.0001135
 9,-0.00005069,0.00001776,0.00012280,-0.00001347,-0.00004401,-0.0002155
 6,-0.00004122,-0.00001902,0.00056539,0.00004731,-0.00022227,0.00002050
 ,-0.00000441,0.00000866,0.00043633,0.00111574,-0.00002873,-0.00191668,
 0.00037850,0.00055024,-0.00005725,-0.00008485,-0.00000530,0.00022341,-
 0.00075929,-0.00016757,0.00000642,0.00000613,0.,-0.00000130,-0.0000001
 9,-0.00000139,-0.00014148,-0.00049760,-0.00005222,0.00003796,0.0000050
 3,0.00000593,-0.00000044,0.00000047,0.00000437,0.00000178,0.00000027,-
 0.00000120,0.00000436,0.00000011,0.00000086,0.00000180,-0.00000094,-0.
 00000152,0.00582134,0.00231251,0.00768988,-0.03991704,0.10973174,-0.22
 884525,-0.00011400,-0.00176063,0.00190348,-0.00630961,0.01418297,-0.02
 086570,0.04150097,-0.12455463,0.24007188\\0.00000227,0.00000170,-0.000
 00083,0.00000087,-0.00000427,-0.00000218,0.00000207,0.00000226,-0.0000
 0087,-0.00000104,-0.00000026,0.00000051,0.00000015,-0.00000214,-0.0000
 0193,-0.00000061,0.00000036,0.00000078,-0.00000004,-0.00000043,0.00000
 043,0.00000007,0.00000026,0.00000064,-0.00000053,-0.00000213,0.0000035
 6,-0.00000033,-0.00000220,-0.00000737,0.00000063,0.00000528,-0.0000105
 7,0.00000048,0.00001009,0.00003205,-0.00000077,-0.00000863,-0.00001396
 ,0.00000448,-0.00000013,-0.00000235,0.00000005,-0.00000029,0.00000197,
 0.00000023,-0.00000002,-0.00000004,-0.00000466,0.00000279,0.00000213,-
 0.00000169,-0.00000215,-0.00000100,0.00000044,-0.00000065,0.00000040,-
 0.00000236,-0.00000152,0.00000051,-0.00000303,0.00000243,0.00000091,0.
 ,-0.00000012,0.00000098,-0.00000245,0.00000020,-0.00000450,-0.00000025
 ,0.00000021,-0.00000017,-0.00000097,0.00000057,0.00000111,0.00000004,0
 .00000038,-0.00000076,0.00000106,0.00000110,-0.00000020,-0.00000042,0.
 00000027,0.00000080,0.00000347,-0.00000318,-0.00000015,0.00000043,0.00
 000048,0.00000008,-0.00000195,-0.00000146,0.00000004,0.00000211,0.0000
 0053,0.00000011,0.00000226,0.00000065,-0.00000012\\\@


 WE HAVE LEFT UNDONE THOSE THINGS WHICH WE OUGHT TO HAVE DONE,
 AND WE HAVE DONE THOSE THINGS WHICH WE OUGHT NOT TO HAVE DONE.
                   BOOK OF COMMON PRAYER                      
 Job cpu time:       0 days  3 hours 12 minutes 51.6 seconds.
 Elapsed time:       0 days  0 hours  6 minutes 25.8 seconds.
 File lengths (MBytes):  RWF=    518 Int=      0 D2E=      0 Chk=     14 Scr=      1
 Normal termination of Gaussian 16 at Mon Sep 18 06:33:23 2023.
