 Entering Gaussian System, Link 0=/home/ubuntu/g16/g16
 Input=/home/ubuntu/ML products/molecule_89.gjf
 Output=/home/ubuntu/ML products/molecule_89.log
 Initial command:
 /home/ubuntu/g16/l1.exe "/home/ubuntu/Scratch/Gau-46801.inp" -scrdir="/home/ubuntu/Scratch/"
 Entering Link 1 = /home/ubuntu/g16/l1.exe PID=     46805.
  
 Copyright (c) 1988-2017, Gaussian, Inc.  All Rights Reserved.
  
 This is part of the Gaussian(R) 16 program.  It is based on
 the Gaussian(R) 09 system (copyright 2009, Gaussian, Inc.),
 the Gaussian(R) 03 system (copyright 2003, Gaussian, Inc.),
 the Gaussian(R) 98 system (copyright 1998, Gaussian, Inc.),
 the Gaussian(R) 94 system (copyright 1995, Gaussian, Inc.),
 the Gaussian 92(TM) system (copyright 1992, Gaussian, Inc.),
 the Gaussian 90(TM) system (copyright 1990, Gaussian, Inc.),
 the Gaussian 88(TM) system (copyright 1988, Gaussian, Inc.),
 the Gaussian 86(TM) system (copyright 1986, Carnegie Mellon
 University), and the Gaussian 82(TM) system (copyright 1983,
 Carnegie Mellon University). Gaussian is a federally registered
 trademark of Gaussian, Inc.
  
 This software contains proprietary and confidential information,
 including trade secrets, belonging to Gaussian, Inc.
  
 This software is provided under written license and may be
 used, copied, transmitted, or stored only in accord with that
 written license.
  
 The following legend is applicable only to US Government
 contracts under FAR:
  
                    RESTRICTED RIGHTS LEGEND
  
 Use, reproduction and disclosure by the US Government is
 subject to restrictions as set forth in subparagraphs (a)
 and (c) of the Commercial Computer Software - Restricted
 Rights clause in FAR 52.227-19.
  
 Gaussian, Inc.
 340 Quinnipiac St., Bldg. 40, Wallingford CT 06492
  
  
 ---------------------------------------------------------------
 Warning -- This program may not be used in any manner that
 competes with the business of Gaussian, Inc. or will provide
 assistance to any competitor of Gaussian, Inc.  The licensee
 of this program is prohibited from giving any competitor of
 Gaussian, Inc. access to this program.  By using this program,
 the user acknowledges that Gaussian, Inc. is engaged in the
 business of creating and licensing software in the field of
 computational chemistry and represents and warrants to the
 licensee that it is not a competitor of Gaussian, Inc. and that
 it will not use this program in any manner prohibited above.
 ---------------------------------------------------------------
  

 Cite this work as:
 Gaussian 16, Revision B.01,
 M. J. Frisch, G. W. Trucks, H. B. Schlegel, G. E. Scuseria, 
 M. A. Robb, J. R. Cheeseman, G. Scalmani, V. Barone, 
 G. A. Petersson, H. Nakatsuji, X. Li, M. Caricato, A. V. Marenich, 
 J. Bloino, B. G. Janesko, R. Gomperts, B. Mennucci, H. P. Hratchian, 
 J. V. Ortiz, A. F. Izmaylov, J. L. Sonnenberg, D. Williams-Young, 
 F. Ding, F. Lipparini, F. Egidi, J. Goings, B. Peng, A. Petrone, 
 T. Henderson, D. Ranasinghe, V. G. Zakrzewski, J. Gao, N. Rega, 
 G. Zheng, W. Liang, M. Hada, M. Ehara, K. Toyota, R. Fukuda, 
 J. Hasegawa, M. Ishida, T. Nakajima, Y. Honda, O. Kitao, H. Nakai, 
 T. Vreven, K. Throssell, J. A. Montgomery, Jr., J. E. Peralta, 
 F. Ogliaro, M. J. Bearpark, J. J. Heyd, E. N. Brothers, K. N. Kudin, 
 V. N. Staroverov, T. A. Keith, R. Kobayashi, J. Normand, 
 K. Raghavachari, A. P. Rendell, J. C. Burant, S. S. Iyengar, 
 J. Tomasi, M. Cossi, J. M. Millam, M. Klene, C. Adamo, R. Cammi, 
 J. W. Ochterski, R. L. Martin, K. Morokuma, O. Farkas, 
 J. B. Foresman, and D. J. Fox, Gaussian, Inc., Wallingford CT, 2016.
 
 ******************************************
 Gaussian 16:  EM64L-G16RevB.01 20-Dec-2017
                15-Sep-2023 
 ******************************************
 %nprocshared=30
 Will use up to   30 processors via shared memory.
 %mem=30GB
 %chk=molecule_89.chk
 ----------------------------------------------------------------------
 # opt freq b3lyp/6-31+g(d) geom=connectivity empiricaldispersion=gd3 v
 olume
 ----------------------------------------------------------------------
 1/18=20,19=15,26=3,38=1,57=2/1,3;
 2/9=110,12=2,17=6,18=5,40=1/2;
 3/5=1,6=6,7=11,11=2,25=1,30=1,71=1,74=-5,124=31/1,2,3;
 4//1;
 5/5=2,38=5/2;
 6/7=2,8=2,9=2,10=2,28=1,44=1/1,4;
 7//1,2,3,16;
 1/18=20,19=15,26=3/3(2);
 2/9=110/2;
 99//99;
 2/9=110/2;
 3/5=1,6=6,7=11,11=2,25=1,30=1,71=1,74=-5,124=31/1,2,3;
 4/5=5,16=3,69=1/1;
 5/5=2,38=5/2;
 7//1,2,3,16;
 1/18=20,19=15,26=3/3(-5);
 2/9=110/2;
 6/7=2,8=2,9=2,10=2,19=2,28=1,44=1/1,4;
 99/9=1/99;
 -------------
 ML molecule89
 -------------
 Symbolic Z-matrix:
 Charge =  0 Multiplicity = 1
 C                    -4.74942  -0.23058  -0.40002 
 C                    -4.8202    0.23854  -1.71867 
 C                    -4.55025   1.58484  -1.99888 
 C                    -4.20951   2.46203  -0.96044 
 C                    -4.13873   1.99291   0.35822 
 C                    -4.40868   0.64661   0.63842 
 H                    -5.08036  -0.43121  -2.51155 
 H                    -3.87857   2.66266   1.15109 
 H                    -4.35464   0.28843   1.64524 
 O                    -3.91049   3.9533   -1.27081 
 C                    -3.81752   4.69985  -2.77936 
 C                    -4.13168   3.88761  -3.87731 
 C                    -3.30395   5.98751  -2.98454 
 C                    -3.93225   4.36302  -5.18043 
 C                    -3.10452   6.46292  -4.28767 
 H                    -3.06408   6.60768  -2.14623 
 C                    -3.41867   5.65068  -5.38561 
 H                    -4.17211   3.74285  -6.01874 
 H                    -2.7124    7.44608  -4.44432 
 H                    -4.60429   1.94302  -3.0057 
 H                    -4.5238    2.90445  -3.72065 
 C                    -5.04607  -1.71003  -0.0921 
 O                    -5.96452  -2.01815   0.71107 
 C                    -4.21589  -2.81622  -0.76941 
 H                    -4.27753  -3.71372  -0.1901 
 H                    -4.59888  -2.99874  -1.75171 
 H                    -3.19445  -2.50479  -0.83702 
 C                    -3.19953   6.17311  -6.81762 
 H                    -2.29868   5.75502  -7.21585 
 H                    -4.02749   5.88728  -7.43217 
 H                    -3.12013   7.24001  -6.7998 
 

 GradGradGradGradGradGradGradGradGradGradGradGradGradGradGradGradGradGrad
 Berny optimization.
 Initialization pass.
                           ----------------------------
                           !    Initial Parameters    !
                           ! (Angstroms and Degrees)  !
 --------------------------                            --------------------------
 ! Name  Definition              Value          Derivative Info.                !
 --------------------------------------------------------------------------------
 ! R1    R(1,2)                  1.4014         estimate D2E/DX2                !
 ! R2    R(1,6)                  1.4014         estimate D2E/DX2                !
 ! R3    R(1,22)                 1.54           estimate D2E/DX2                !
 ! R4    R(2,3)                  1.4014         estimate D2E/DX2                !
 ! R5    R(2,7)                  1.07           estimate D2E/DX2                !
 ! R6    R(3,4)                  1.4014         estimate D2E/DX2                !
 ! R7    R(3,20)                 1.07           estimate D2E/DX2                !
 ! R8    R(4,5)                  1.4014         estimate D2E/DX2                !
 ! R9    R(4,10)                 1.5523         estimate D2E/DX2                !
 ! R10   R(5,6)                  1.4014         estimate D2E/DX2                !
 ! R11   R(5,8)                  1.07           estimate D2E/DX2                !
 ! R12   R(6,9)                  1.07           estimate D2E/DX2                !
 ! R13   R(10,11)                1.6857         estimate D2E/DX2                !
 ! R14   R(11,12)                1.4014         estimate D2E/DX2                !
 ! R15   R(11,13)                1.4014         estimate D2E/DX2                !
 ! R16   R(12,14)                1.4014         estimate D2E/DX2                !
 ! R17   R(12,21)                1.07           estimate D2E/DX2                !
 ! R18   R(13,15)                1.4014         estimate D2E/DX2                !
 ! R19   R(13,16)                1.07           estimate D2E/DX2                !
 ! R20   R(14,17)                1.4014         estimate D2E/DX2                !
 ! R21   R(14,18)                1.07           estimate D2E/DX2                !
 ! R22   R(15,17)                1.4014         estimate D2E/DX2                !
 ! R23   R(15,19)                1.07           estimate D2E/DX2                !
 ! R24   R(17,28)                1.54           estimate D2E/DX2                !
 ! R25   R(22,23)                1.2584         estimate D2E/DX2                !
 ! R26   R(22,24)                1.54           estimate D2E/DX2                !
 ! R27   R(24,25)                1.07           estimate D2E/DX2                !
 ! R28   R(24,26)                1.07           estimate D2E/DX2                !
 ! R29   R(24,27)                1.07           estimate D2E/DX2                !
 ! R30   R(28,29)                1.07           estimate D2E/DX2                !
 ! R31   R(28,30)                1.07           estimate D2E/DX2                !
 ! R32   R(28,31)                1.07           estimate D2E/DX2                !
 ! A1    A(2,1,6)              120.0            estimate D2E/DX2                !
 ! A2    A(2,1,22)             120.0            estimate D2E/DX2                !
 ! A3    A(6,1,22)             120.0            estimate D2E/DX2                !
 ! A4    A(1,2,3)              120.0            estimate D2E/DX2                !
 ! A5    A(1,2,7)              120.0            estimate D2E/DX2                !
 ! A6    A(3,2,7)              120.0            estimate D2E/DX2                !
 ! A7    A(2,3,4)              120.0            estimate D2E/DX2                !
 ! A8    A(2,3,20)             120.0            estimate D2E/DX2                !
 ! A9    A(4,3,20)             120.0            estimate D2E/DX2                !
 ! A10   A(3,4,5)              120.0            estimate D2E/DX2                !
 ! A11   A(3,4,10)             120.0            estimate D2E/DX2                !
 ! A12   A(5,4,10)             120.0            estimate D2E/DX2                !
 ! A13   A(4,5,6)              120.0            estimate D2E/DX2                !
 ! A14   A(4,5,8)              120.0            estimate D2E/DX2                !
 ! A15   A(6,5,8)              120.0            estimate D2E/DX2                !
 ! A16   A(1,6,5)              120.0            estimate D2E/DX2                !
 ! A17   A(1,6,9)              120.0            estimate D2E/DX2                !
 ! A18   A(5,6,9)              120.0            estimate D2E/DX2                !
 ! A19   A(4,10,11)            127.9526         estimate D2E/DX2                !
 ! A20   A(10,11,12)           115.5989         estimate D2E/DX2                !
 ! A21   A(10,11,13)           123.9281         estimate D2E/DX2                !
 ! A22   A(12,11,13)           120.0            estimate D2E/DX2                !
 ! A23   A(11,12,14)           120.0            estimate D2E/DX2                !
 ! A24   A(11,12,21)           120.0            estimate D2E/DX2                !
 ! A25   A(14,12,21)           120.0            estimate D2E/DX2                !
 ! A26   A(11,13,15)           120.0            estimate D2E/DX2                !
 ! A27   A(11,13,16)           120.0            estimate D2E/DX2                !
 ! A28   A(15,13,16)           120.0            estimate D2E/DX2                !
 ! A29   A(12,14,17)           120.0            estimate D2E/DX2                !
 ! A30   A(12,14,18)           120.0            estimate D2E/DX2                !
 ! A31   A(17,14,18)           120.0            estimate D2E/DX2                !
 ! A32   A(13,15,17)           120.0            estimate D2E/DX2                !
 ! A33   A(13,15,19)           120.0            estimate D2E/DX2                !
 ! A34   A(17,15,19)           120.0            estimate D2E/DX2                !
 ! A35   A(14,17,15)           120.0            estimate D2E/DX2                !
 ! A36   A(14,17,28)           120.0            estimate D2E/DX2                !
 ! A37   A(15,17,28)           120.0            estimate D2E/DX2                !
 ! A38   A(1,22,23)            120.2269         estimate D2E/DX2                !
 ! A39   A(1,22,24)            119.8865         estimate D2E/DX2                !
 ! A40   A(23,22,24)           119.8865         estimate D2E/DX2                !
 ! A41   A(22,24,25)           109.4712         estimate D2E/DX2                !
 ! A42   A(22,24,26)           109.4712         estimate D2E/DX2                !
 ! A43   A(22,24,27)           109.4712         estimate D2E/DX2                !
 ! A44   A(25,24,26)           109.4713         estimate D2E/DX2                !
 ! A45   A(25,24,27)           109.4712         estimate D2E/DX2                !
 ! A46   A(26,24,27)           109.4712         estimate D2E/DX2                !
 ! A47   A(17,28,29)           109.4712         estimate D2E/DX2                !
 ! A48   A(17,28,30)           109.4712         estimate D2E/DX2                !
 ! A49   A(17,28,31)           109.4712         estimate D2E/DX2                !
 ! A50   A(29,28,30)           109.4713         estimate D2E/DX2                !
 ! A51   A(29,28,31)           109.4712         estimate D2E/DX2                !
 ! A52   A(30,28,31)           109.4712         estimate D2E/DX2                !
 ! D1    D(6,1,2,3)              0.0001         estimate D2E/DX2                !
 ! D2    D(6,1,2,7)           -179.9998         estimate D2E/DX2                !
 ! D3    D(22,1,2,3)          -179.9999         estimate D2E/DX2                !
 ! D4    D(22,1,2,7)             0.0002         estimate D2E/DX2                !
 ! D5    D(2,1,6,5)             -0.0001         estimate D2E/DX2                !
 ! D6    D(2,1,6,9)            179.9998         estimate D2E/DX2                !
 ! D7    D(22,1,6,5)           179.9999         estimate D2E/DX2                !
 ! D8    D(22,1,6,9)            -0.0002         estimate D2E/DX2                !
 ! D9    D(2,1,22,23)         -121.7673         estimate D2E/DX2                !
 ! D10   D(2,1,22,24)           58.2327         estimate D2E/DX2                !
 ! D11   D(6,1,22,23)           58.2327         estimate D2E/DX2                !
 ! D12   D(6,1,22,24)         -121.7673         estimate D2E/DX2                !
 ! D13   D(1,2,3,4)              0.0001         estimate D2E/DX2                !
 ! D14   D(1,2,3,20)          -179.9999         estimate D2E/DX2                !
 ! D15   D(7,2,3,4)            179.9999         estimate D2E/DX2                !
 ! D16   D(7,2,3,20)            -0.0001         estimate D2E/DX2                !
 ! D17   D(2,3,4,5)             -0.0002         estimate D2E/DX2                !
 ! D18   D(2,3,4,10)           179.9998         estimate D2E/DX2                !
 ! D19   D(20,3,4,5)           179.9998         estimate D2E/DX2                !
 ! D20   D(20,3,4,10)           -0.0002         estimate D2E/DX2                !
 ! D21   D(3,4,5,6)              0.0001         estimate D2E/DX2                !
 ! D22   D(3,4,5,8)           -180.0            estimate D2E/DX2                !
 ! D23   D(10,4,5,6)          -179.9999         estimate D2E/DX2                !
 ! D24   D(10,4,5,8)             0.0            estimate D2E/DX2                !
 ! D25   D(3,4,10,11)           -5.2547         estimate D2E/DX2                !
 ! D26   D(5,4,10,11)          174.7453         estimate D2E/DX2                !
 ! D27   D(4,5,6,1)              0.0            estimate D2E/DX2                !
 ! D28   D(4,5,6,9)           -179.9999         estimate D2E/DX2                !
 ! D29   D(8,5,6,1)           -179.9999         estimate D2E/DX2                !
 ! D30   D(8,5,6,9)              0.0002         estimate D2E/DX2                !
 ! D31   D(4,10,11,12)           4.3564         estimate D2E/DX2                !
 ! D32   D(4,10,11,13)        -167.7268         estimate D2E/DX2                !
 ! D33   D(10,11,12,14)       -172.4167         estimate D2E/DX2                !
 ! D34   D(10,11,12,21)          7.5833         estimate D2E/DX2                !
 ! D35   D(13,11,12,14)          0.0002         estimate D2E/DX2                !
 ! D36   D(13,11,12,21)       -179.9998         estimate D2E/DX2                !
 ! D37   D(10,11,13,15)        171.7535         estimate D2E/DX2                !
 ! D38   D(10,11,13,16)         -8.2466         estimate D2E/DX2                !
 ! D39   D(12,11,13,15)          0.0            estimate D2E/DX2                !
 ! D40   D(12,11,13,16)        179.9999         estimate D2E/DX2                !
 ! D41   D(11,12,14,17)         -0.0002         estimate D2E/DX2                !
 ! D42   D(11,12,14,18)        179.9998         estimate D2E/DX2                !
 ! D43   D(21,12,14,17)        179.9998         estimate D2E/DX2                !
 ! D44   D(21,12,14,18)         -0.0002         estimate D2E/DX2                !
 ! D45   D(11,13,15,17)         -0.0001         estimate D2E/DX2                !
 ! D46   D(11,13,15,19)        179.9999         estimate D2E/DX2                !
 ! D47   D(16,13,15,17)        179.9999         estimate D2E/DX2                !
 ! D48   D(16,13,15,19)          0.0            estimate D2E/DX2                !
 ! D49   D(12,14,17,15)          0.0001         estimate D2E/DX2                !
 ! D50   D(12,14,17,28)       -179.9999         estimate D2E/DX2                !
 ! D51   D(18,14,17,15)       -179.9999         estimate D2E/DX2                !
 ! D52   D(18,14,17,28)          0.0001         estimate D2E/DX2                !
 ! D53   D(13,15,17,14)          0.0001         estimate D2E/DX2                !
 ! D54   D(13,15,17,28)       -179.9999         estimate D2E/DX2                !
 ! D55   D(19,15,17,14)       -180.0            estimate D2E/DX2                !
 ! D56   D(19,15,17,28)          0.0            estimate D2E/DX2                !
 ! D57   D(14,17,28,29)        -78.5086         estimate D2E/DX2                !
 ! D58   D(14,17,28,30)         41.4914         estimate D2E/DX2                !
 ! D59   D(14,17,28,31)        161.4914         estimate D2E/DX2                !
 ! D60   D(15,17,28,29)        101.4914         estimate D2E/DX2                !
 ! D61   D(15,17,28,30)       -138.5086         estimate D2E/DX2                !
 ! D62   D(15,17,28,31)        -18.5086         estimate D2E/DX2                !
 ! D63   D(1,22,24,25)         158.2172         estimate D2E/DX2                !
 ! D64   D(1,22,24,26)         -81.7828         estimate D2E/DX2                !
 ! D65   D(1,22,24,27)          38.2172         estimate D2E/DX2                !
 ! D66   D(23,22,24,25)        -21.7828         estimate D2E/DX2                !
 ! D67   D(23,22,24,26)         98.2172         estimate D2E/DX2                !
 ! D68   D(23,22,24,27)       -141.7828         estimate D2E/DX2                !
 --------------------------------------------------------------------------------
 Trust Radius=3.00D-01 FncErr=1.00D-07 GrdErr=1.00D-06 EigMax=2.50D+02 EigMin=1.00D-04
 Number of steps in this run=    162 maximum allowed number of steps=    186.
 GradGradGradGradGradGradGradGradGradGradGradGradGradGradGradGradGradGrad

                          Input orientation:                          
 ---------------------------------------------------------------------
 Center     Atomic      Atomic             Coordinates (Angstroms)
 Number     Number       Type             X           Y           Z
 ---------------------------------------------------------------------
      1          6           0       -4.749416   -0.230579   -0.400021
      2          6           0       -4.820199    0.238538   -1.718672
      3          6           0       -4.550247    1.584841   -1.998879
      4          6           0       -4.209510    2.462026   -0.960435
      5          6           0       -4.138728    1.992910    0.358216
      6          6           0       -4.408682    0.646607    0.638423
      7          1           0       -5.080361   -0.431212   -2.511547
      8          1           0       -3.878568    2.662660    1.151091
      9          1           0       -4.354640    0.288426    1.645243
     10          8           0       -3.910486    3.953296   -1.270814
     11          6           0       -3.817523    4.699853   -2.779363
     12          6           0       -4.131676    3.887607   -3.877310
     13          6           0       -3.303947    5.987511   -2.984541
     14          6           0       -3.932249    4.363019   -5.180435
     15          6           0       -3.104523    6.462923   -4.287666
     16          1           0       -3.064085    6.607679   -2.146234
     17          6           0       -3.418674    5.650677   -5.385613
     18          1           0       -4.172109    3.742850   -6.018741
     19          1           0       -2.712397    7.446079   -4.444324
     20          1           0       -4.604292    1.943023   -3.005698
     21          1           0       -4.523805    2.904453   -3.720651
     22          6           0       -5.046066   -1.710033   -0.092102
     23          8           0       -5.964517   -2.018145    0.711071
     24          6           0       -4.215889   -2.816224   -0.769411
     25          1           0       -4.277526   -3.713723   -0.190104
     26          1           0       -4.598882   -2.998742   -1.751706
     27          1           0       -3.194449   -2.504794   -0.837020
     28          6           0       -3.199525    6.173108   -6.817619
     29          1           0       -2.298685    5.755019   -7.215851
     30          1           0       -4.027494    5.887282   -7.432168
     31          1           0       -3.120131    7.240009   -6.799801
 ---------------------------------------------------------------------
                    Distance matrix (angstroms):
                    1          2          3          4          5
     1  C    0.000000
     2  C    1.401400   0.000000
     3  C    2.427296   1.401400   0.000000
     4  C    2.802800   2.427296   1.401400   0.000000
     5  C    2.427296   2.802800   2.427296   1.401400   0.000000
     6  C    1.401400   2.427296   2.802800   2.427296   1.401400
     7  H    2.146700   1.070000   2.146700   3.396345   3.872800
     8  H    3.396345   3.872800   3.396345   2.146700   1.070000
     9  H    2.146700   3.396345   3.872800   3.396345   2.146700
    10  O    4.355100   3.850660   2.559092   1.552300   2.559092
    11  C    5.553274   4.694012   3.293833   2.910330   4.156335
    12  C    5.425182   4.295286   3.001072   3.247537   4.640001
    13  C    6.887218   6.078827   4.680630   4.164864   5.275199
    14  C    6.679914   5.457435   4.268781   4.636706   6.027993
    15  C    7.913434   6.948831   5.578920   5.319647   6.529535
    16  H    7.256127   6.620627   5.240161   4.461452   5.359405
    17  C    7.824077   6.685954   5.411233   5.511362   6.847577
    18  H    6.905899   5.584874   4.578131   5.218081   6.612790
    19  H    8.912739   7.988783   6.611506   6.262556   7.405125
    20  H    3.396345   2.146700   1.070000   2.146700   3.396345
    21  H    4.572298   3.347069   2.169464   2.813062   4.197184
    22  C    1.540000   2.548270   3.838989   4.342800   3.838989
    23  O    2.430306   3.507953   4.724987   5.093714   4.421150
    24  C    2.665832   3.255436   4.581786   5.281710   4.940168
    25  H    3.521227   4.272164   5.605428   6.223979   5.734595
    26  H    3.084224   3.245005   4.590501   5.531520   5.438759
    27  H    2.789434   3.308511   4.462423   5.070984   4.748641
    28  C    9.197550   7.990304   6.789469   7.007053   8.357557
    29  H    9.396223   8.185876   7.048171   7.322928   8.654809
    30  H    9.348823   8.073458   6.950172   7.324536   8.710258
    31  H    9.971031   8.816388   7.554801   7.623258   8.933466
                    6          7          8          9         10
     6  C    0.000000
     7  H    3.396345   0.000000
     8  H    2.146700   4.942800   0.000000
     9  H    1.070000   4.280590   2.471400   0.000000
    10  O    3.850660   4.704459   2.744520   4.704459   0.000000
    11  C    5.334748   5.290965   4.427454   6.271070   1.685736
    12  C    5.565309   4.627906   5.181638   6.595635   2.616688
    13  C    6.547638   6.676779   5.337441   7.417441   2.728146
    14  C    6.920825   5.605869   6.556091   7.960565   3.931091
    15  C    7.732834   7.388345   6.679913   8.653706   4.006145
    16  H    6.715403   7.331085   5.205662   7.481563   2.920360
    17  C    7.893659   6.928985   7.201962   8.891721   4.478231
    18  H    7.345783   5.527036   7.256685   8.408509   4.759784
    19  H    8.657051   8.449532   7.453169   9.540010   4.868893
    20  H    3.872800   2.471400   4.280590   4.942800   2.744520
    21  H    4.910464   3.591427   4.920231   5.972021   2.734581
    22  C    2.548270   2.736837   4.693509   2.736837   5.895100
    23  O    3.086552   3.699373   5.143417   2.963891   6.618536
    24  C    3.743042   3.077439   5.815521   3.935563   6.794930
    25  H    4.440286   4.099820   6.528111   4.403595   7.751505
    26  H    4.363194   2.720550   6.402856   4.733328   7.002570
    27  H    3.685461   3.265034   5.578816   3.912768   6.512128
    28  C    9.359318   8.105358   8.734110  10.372261   6.016649
    29  H    9.604040   8.254554   9.058943  10.612708   6.417754
    30  H    9.630391   8.077401   9.170208  10.670220   6.458813
    31  H   10.022999   9.004402   9.205653  11.007602   6.480497
                   11         12         13         14         15
    11  C    0.000000
    12  C    1.401400   0.000000
    13  C    1.401400   2.427296   0.000000
    14  C    2.427296   1.401400   2.802800   0.000000
    15  C    2.427296   2.802800   1.401400   2.427296   0.000000
    16  H    2.146700   3.396345   1.070000   3.872800   2.146700
    17  C    2.802800   2.427296   2.427296   1.401400   1.401400
    18  H    3.396345   2.146700   3.872800   1.070000   3.396345
    19  H    3.396345   3.872800   2.146700   3.396345   1.070000
    20  H    2.875821   2.182769   4.248439   3.322273   4.931759
    21  H    2.146700   1.070000   3.396345   2.146700   3.872800
    22  C    7.058139   6.818907   8.405556   8.000855   9.389865
    23  O    7.869194   7.700030   9.210142   8.919597  10.251608
    24  C    7.790380   7.389688   9.123825   8.430843   9.985782
    25  H    8.814994   8.449673  10.142518   9.500335  11.033136
    26  H    7.806085   7.222069   9.162395   8.148380   9.908951
    27  H    7.487847   7.140346   8.760312   8.159439   9.609110
    28  C    4.342800   3.838989   3.838989   2.548270   2.548270
    29  H    4.806524   4.241809   4.355294   2.957891   3.118456
    30  H    4.806524   4.080021   4.507211   2.720800   3.327331
    31  H    4.806525   4.561006   4.019795   3.399847   2.629625
                   16         17         18         19         20
    16  H    0.000000
    17  C    3.396345   0.000000
    18  H    4.942800   2.146700   0.000000
    19  H    2.471400   2.146700   4.280590   0.000000
    20  H    4.986976   4.562498   3.536183   5.994376   0.000000
    21  H    4.280590   3.396345   2.471400   4.942800   1.200826
    22  C    8.793864   9.211391   8.100790  10.402992   4.693509
    23  O    9.538424  10.122337   9.038372  11.257261   5.599593
    24  C    9.593344   9.676430   8.401121  11.003652   5.272786
    25  H   10.574981  10.743506   9.464915  12.045298   6.327173
    26  H    9.736251   9.455719   7.989918  10.950037   5.098389
    27  H    9.206964   9.340861   8.175519  10.595513   5.145279
    28  C    4.693509   1.540000   2.736837   2.736837   5.864957
    29  H    5.197488   2.148263   2.998602   3.272950   6.129643
    30  H    5.421091   2.148263   2.572407   3.617532   5.956804
    31  H    4.696666   2.148263   3.734546   2.399372   6.682516
                   21         22         23         24         25
    21  H    0.000000
    22  C    5.893438   0.000000
    23  O    6.778480   1.258400   0.000000
    24  C    6.444438   1.540000   2.426202   0.000000
    25  H    7.505043   2.148263   2.555981   1.070000   0.000000
    26  H    6.223351   2.148263   2.981913   1.070000   1.747303
    27  H    6.272357   2.148263   3.210403   1.070000   1.747303
    28  C    4.693509  10.525502  11.463986  10.882183  11.951379
    29  H    5.029245  10.678151  11.691728  10.894883  11.955501
    30  H    4.787374  10.612882  11.513478  10.962611  12.028687
    31  H    5.499865  11.349261  12.256311  11.776847  12.845696
                   26         27         28         29         30
    26  H    0.000000
    27  H    1.747303   0.000000
    28  C   10.570927  10.539144   0.000000
    29  H   10.572423  10.474559   1.070000   0.000000
    30  H   10.561986  10.705927   1.070000   1.747303   0.000000
    31  H   11.510951  11.424599   1.070000   1.747303   1.747303
                   31
    31  H    0.000000
 Stoichiometry    C15H14O2
 Framework group  C1[X(C15H14O2)]
 Deg. of freedom    87
 Full point group                 C1      NOp   1
 Largest Abelian subgroup         C1      NOp   1
 Largest concise Abelian subgroup C1      NOp   1
                         Standard orientation:                         
 ---------------------------------------------------------------------
 Center     Atomic      Atomic             Coordinates (Angstroms)
 Number     Number       Type             X           Y           Z
 ---------------------------------------------------------------------
      1          6           0       -3.238159   -0.022880   -0.040376
      2          6           0       -2.125779   -0.849904   -0.246691
      3          6           0       -0.834907   -0.304598   -0.232156
      4          6           0       -0.656413    1.067731   -0.011305
      5          6           0       -1.768793    1.894755    0.195009
      6          6           0       -3.059666    1.349449    0.180473
      7          1           0       -2.262063   -1.897707   -0.415317
      8          1           0       -1.632510    2.942558    0.363633
      9          1           0       -3.908993    1.980900    0.337996
     10          8           0        0.773458    1.671754    0.004799
     11          6           0        2.244893    0.855598   -0.097556
     12          6           0        2.156968   -0.527387   -0.306228
     13          6           0        3.487248    1.446277    0.169977
     14          6           0        3.311397   -1.319693   -0.247363
     15          6           0        4.641678    0.653971    0.228839
     16          1           0        3.554381    2.502217    0.329302
     17          6           0        4.553753   -0.729014    0.020170
     18          1           0        3.244264   -2.375633   -0.406685
     19          1           0        5.590244    1.104968    0.433107
     20          1           0        0.014420   -0.936049   -0.389683
     21          1           0        1.208403   -0.978383   -0.510498
     22          6           0       -4.656700   -0.622118   -0.056347
     23          8           0       -5.515103   -0.196409   -0.872121
     24          6           0       -5.026016   -1.746186    0.929389
     25          1           0       -6.088495   -1.778325    1.051886
     26          1           0       -4.682695   -2.684146    0.545645
     27          1           0       -4.563461   -1.557094    1.875533
     28          6           0        5.822357   -1.599680    0.084855
     29          1           0        5.862608   -2.101753    1.028891
     30          1           0        5.798989   -2.323130   -0.703164
     31          1           0        6.686905   -0.979100   -0.026217
 ---------------------------------------------------------------------
 Rotational constants (GHZ):           1.3822490           0.1673560           0.1524843
 Standard basis: 6-31+G(d) (6D, 7F)
 There are   351 symmetry adapted cartesian basis functions of A   symmetry.
 There are   351 symmetry adapted basis functions of A   symmetry.
   351 basis functions,   600 primitive gaussians,   351 cartesian basis functions
    60 alpha electrons       60 beta electrons
       nuclear repulsion energy      1036.0806953138 Hartrees.
 NAtoms=   31 NActive=   31 NUniq=   31 SFac= 1.00D+00 NAtFMM=   60 NAOKFM=F Big=F
 Integral buffers will be    131072 words long.
 Raffenetti 2 integral format.
 Two-electron integral symmetry is turned on.
 Nuclear repulsion after empirical dispersion term =     1036.0564914929 Hartrees.
 One-electron integrals computed using PRISM.
 NBasis=   351 RedAO= T EigKep=  1.26D-06  NBF=   351
 NBsUse=   349 1.00D-06 EigRej=  9.74D-07 NBFU=   349
 ExpMin= 4.38D-02 ExpMax= 5.48D+03 ExpMxC= 8.25D+02 IAcc=3 IRadAn=         5 AccDes= 0.00D+00
 Harris functional with IExCor=  402 and IRadAn=       5 diagonalized for initial guess.
 HarFok:  IExCor=  402 AccDes= 0.00D+00 IRadAn=         5 IDoV= 1 UseB2=F ITyADJ=14
 ICtDFT=  3500011 ScaDFX=  1.000000  1.000000  1.000000  1.000000
 FoFCou: FMM=F IPFlag=           0 FMFlag=      100000 FMFlg1=           0
         NFxFlg=           0 DoJE=T BraDBF=F KetDBF=T FulRan=T
         wScrn=  0.000000 ICntrl=       500 IOpCl=  0 I1Cent=   200000004 NGrid=           0
         NMat0=    1 NMatS0=      1 NMatT0=    0 NMatD0=    1 NMtDS0=    0 NMtDT0=    0
 Petite list used in FoFCou.
 Requested convergence on RMS density matrix=1.00D-08 within 128 cycles.
 Requested convergence on MAX density matrix=1.00D-06.
 Requested convergence on             energy=1.00D-06.
 No special actions if energy rises.
 SCF Done:  E(RB3LYP) =  -730.423917287     A.U. after   17 cycles
            NFock= 17  Conv=0.26D-08     -V/T= 2.0104

 **********************************************************************

            Population analysis using the SCF Density.

 **********************************************************************

 Orbital symmetries:
       Occupied  (A) (A) (A) (A) (A) (A) (A) (A) (A) (A) (A) (A)
                 (A) (A) (A) (A) (A) (A) (A) (A) (A) (A) (A) (A)
                 (A) (A) (A) (A) (A) (A) (A) (A) (A) (A) (A) (A)
                 (A) (A) (A) (A) (A) (A) (A) (A) (A) (A) (A) (A)
                 (A) (A) (A) (A) (A) (A) (A) (A) (A) (A) (A) (A)
       Virtual   (A) (A) (A) (A) (A) (A) (A) (A) (A) (A) (A) (A)
                 (A) (A) (A) (A) (A) (A) (A) (A) (A) (A) (A) (A)
                 (A) (A) (A) (A) (A) (A) (A) (A) (A) (A) (A) (A)
                 (A) (A) (A) (A) (A) (A) (A) (A) (A) (A) (A) (A)
                 (A) (A) (A) (A) (A) (A) (A) (A) (A) (A) (A) (A)
                 (A) (A) (A) (A) (A) (A) (A) (A) (A) (A) (A) (A)
                 (A) (A) (A) (A) (A) (A) (A) (A) (A) (A) (A) (A)
                 (A) (A) (A) (A) (A) (A) (A) (A) (A) (A) (A) (A)
                 (A) (A) (A) (A) (A) (A) (A) (A) (A) (A) (A) (A)
                 (A) (A) (A) (A) (A) (A) (A) (A) (A) (A) (A) (A)
                 (A) (A) (A) (A) (A) (A) (A) (A) (A) (A) (A) (A)
                 (A) (A) (A) (A) (A) (A) (A) (A) (A) (A) (A) (A)
                 (A) (A) (A) (A) (A) (A) (A) (A) (A) (A) (A) (A)
                 (A) (A) (A) (A) (A) (A) (A) (A) (A) (A) (A) (A)
                 (A) (A) (A) (A) (A) (A) (A) (A) (A) (A) (A) (A)
                 (A) (A) (A) (A) (A) (A) (A) (A) (A) (A) (A) (A)
                 (A) (A) (A) (A) (A) (A) (A) (A) (A) (A) (A) (A)
                 (A) (A) (A) (A) (A) (A) (A) (A) (A) (A) (A) (A)
                 (A) (A) (A) (A) (A) (A) (A) (A) (A) (A) (A) (A)
                 (A) (A) (A) (A) (A) (A) (A) (A) (A) (A) (A) (A)
                 (A) (A) (A) (A) (A) (A) (A) (A) (A) (A) (A) (A)
                 (A) (A) (A) (A) (A) (A) (A) (A) (A) (A) (A) (A)
                 (A) (A) (A) (A) (A) (A) (A) (A) (A) (A) (A) (A)
                 (A) (A) (A) (A) (A) (A) (A) (A) (A) (A) (A) (A)
                 (A)
 The electronic state is 1-A.
 Alpha  occ. eigenvalues --  -19.18813 -19.15606 -10.29795 -10.28114 -10.27720
 Alpha  occ. eigenvalues --  -10.21960 -10.21843 -10.21793 -10.21665 -10.21575
 Alpha  occ. eigenvalues --  -10.21343 -10.21288 -10.21159 -10.21054 -10.20895
 Alpha  occ. eigenvalues --  -10.19682 -10.19283  -1.03027  -0.97382  -0.87835
 Alpha  occ. eigenvalues --   -0.86978  -0.78941  -0.77718  -0.77414  -0.76631
 Alpha  occ. eigenvalues --   -0.74259  -0.70064  -0.64768  -0.63026  -0.62574
 Alpha  occ. eigenvalues --   -0.60307  -0.57229  -0.52889  -0.51253  -0.48901
 Alpha  occ. eigenvalues --   -0.48550  -0.47880  -0.47310  -0.45776  -0.45289
 Alpha  occ. eigenvalues --   -0.44975  -0.44099  -0.43525  -0.42835  -0.41981
 Alpha  occ. eigenvalues --   -0.41051  -0.40102  -0.38965  -0.38550  -0.37942
 Alpha  occ. eigenvalues --   -0.36994  -0.35890  -0.34802  -0.32964  -0.32066
 Alpha  occ. eigenvalues --   -0.27561  -0.27195  -0.26952  -0.25818  -0.23506
 Alpha virt. eigenvalues --   -0.05357  -0.03715  -0.03591  -0.02508  -0.01809
 Alpha virt. eigenvalues --   -0.00612  -0.00067   0.00396   0.01527   0.01881
 Alpha virt. eigenvalues --    0.02342   0.03470   0.04242   0.04444   0.04783
 Alpha virt. eigenvalues --    0.04868   0.05522   0.05881   0.06190   0.06796
 Alpha virt. eigenvalues --    0.07346   0.07542   0.08211   0.08681   0.08815
 Alpha virt. eigenvalues --    0.08953   0.09816   0.10354   0.11183   0.11382
 Alpha virt. eigenvalues --    0.11884   0.12272   0.12401   0.12933   0.13300
 Alpha virt. eigenvalues --    0.13505   0.14003   0.14245   0.14406   0.15016
 Alpha virt. eigenvalues --    0.15485   0.15890   0.16520   0.16614   0.17192
 Alpha virt. eigenvalues --    0.17495   0.18176   0.18461   0.18626   0.19321
 Alpha virt. eigenvalues --    0.19647   0.20319   0.20635   0.21124   0.21511
 Alpha virt. eigenvalues --    0.21784   0.22045   0.22690   0.22924   0.23289
 Alpha virt. eigenvalues --    0.24094   0.24269   0.24572   0.24822   0.25590
 Alpha virt. eigenvalues --    0.25759   0.25995   0.26354   0.26495   0.26683
 Alpha virt. eigenvalues --    0.27346   0.28081   0.28821   0.29375   0.29800
 Alpha virt. eigenvalues --    0.29858   0.30252   0.31241   0.31625   0.32017
 Alpha virt. eigenvalues --    0.32151   0.32930   0.33393   0.33913   0.34748
 Alpha virt. eigenvalues --    0.34910   0.35456   0.35529   0.36801   0.37076
 Alpha virt. eigenvalues --    0.37634   0.38580   0.39282   0.39929   0.40807
 Alpha virt. eigenvalues --    0.41464   0.42806   0.43318   0.45329   0.46526
 Alpha virt. eigenvalues --    0.51124   0.55209   0.56717   0.59055   0.60743
 Alpha virt. eigenvalues --    0.62653   0.64797   0.65289   0.66027   0.67099
 Alpha virt. eigenvalues --    0.67222   0.68175   0.68822   0.69360   0.69854
 Alpha virt. eigenvalues --    0.70654   0.71703   0.72364   0.73034   0.73342
 Alpha virt. eigenvalues --    0.73727   0.75273   0.76356   0.76419   0.76666
 Alpha virt. eigenvalues --    0.77364   0.77565   0.77994   0.78834   0.79646
 Alpha virt. eigenvalues --    0.80699   0.82442   0.83064   0.83301   0.84271
 Alpha virt. eigenvalues --    0.85823   0.87230   0.88965   0.89668   0.90947
 Alpha virt. eigenvalues --    0.93567   0.94008   0.94365   0.98006   0.98250
 Alpha virt. eigenvalues --    0.98565   0.99242   0.99918   1.02896   1.03748
 Alpha virt. eigenvalues --    1.04054   1.08713   1.10469   1.10840   1.12002
 Alpha virt. eigenvalues --    1.13295   1.14204   1.14895   1.15158   1.15787
 Alpha virt. eigenvalues --    1.16417   1.17085   1.18692   1.20130   1.20988
 Alpha virt. eigenvalues --    1.21625   1.22589   1.23435   1.23721   1.25101
 Alpha virt. eigenvalues --    1.27003   1.28471   1.29314   1.30428   1.31233
 Alpha virt. eigenvalues --    1.33184   1.35075   1.37128   1.38179   1.38837
 Alpha virt. eigenvalues --    1.39811   1.41874   1.43239   1.44038   1.44728
 Alpha virt. eigenvalues --    1.45807   1.46039   1.46959   1.47714   1.48635
 Alpha virt. eigenvalues --    1.49534   1.50678   1.51784   1.55569   1.59104
 Alpha virt. eigenvalues --    1.62811   1.67117   1.68239   1.72889   1.75268
 Alpha virt. eigenvalues --    1.77316   1.79271   1.80952   1.82338   1.82974
 Alpha virt. eigenvalues --    1.83872   1.85140   1.85424   1.85932   1.87218
 Alpha virt. eigenvalues --    1.90897   1.91399   1.92740   1.95129   1.96912
 Alpha virt. eigenvalues --    1.97520   1.97643   1.99986   2.01866   2.02958
 Alpha virt. eigenvalues --    2.05926   2.07762   2.08850   2.11223   2.11921
 Alpha virt. eigenvalues --    2.13154   2.13338   2.15917   2.17621   2.19094
 Alpha virt. eigenvalues --    2.19878   2.23240   2.24651   2.25563   2.26776
 Alpha virt. eigenvalues --    2.28188   2.28388   2.28934   2.29473   2.32015
 Alpha virt. eigenvalues --    2.34032   2.36084   2.37448   2.38552   2.39523
 Alpha virt. eigenvalues --    2.43320   2.47545   2.47959   2.53558   2.58621
 Alpha virt. eigenvalues --    2.61951   2.62153   2.62625   2.62773   2.63951
 Alpha virt. eigenvalues --    2.67369   2.72925   2.74117   2.75820   2.77151
 Alpha virt. eigenvalues --    2.78864   2.80828   2.83565   2.88839   2.94457
 Alpha virt. eigenvalues --    2.97127   3.00794   3.06488   3.07658   3.10992
 Alpha virt. eigenvalues --    3.39006   3.40588   4.19138   4.21351   4.25060
 Alpha virt. eigenvalues --    4.26236   4.26687   4.27421   4.30784   4.34347
 Alpha virt. eigenvalues --    4.37342   4.38596   4.39011   4.41572   4.44828
 Alpha virt. eigenvalues --    4.47302   4.54793   4.71529   4.75290
          Condensed to atoms (all electrons):
               1          2          3          4          5          6
     1  C    9.021255  -0.114350  -0.945550  -1.607989   0.973436  -0.203947
     2  C   -0.114350   7.552347   0.560978   0.137472  -0.924151  -0.857209
     3  C   -0.945550   0.560978   8.516200   0.176093  -0.384313  -1.157834
     4  C   -1.607989   0.137472   0.176093  10.198668  -3.813004   0.799770
     5  C    0.973436  -0.924151  -0.384313  -3.813004  11.968080  -1.748157
     6  C   -0.203947  -0.857209  -1.157834   0.799770  -1.748157   9.345457
     7  H   -0.011059   0.297973  -0.037811   0.052218  -0.042174   0.037508
     8  H    0.032595  -0.011345   0.029696   0.001525   0.325957  -0.083173
     9  H    0.024806   0.009899   0.003894   0.022278  -0.102979   0.359875
    10  O   -0.022185  -0.006421  -0.059728   0.316845  -0.229221   0.033055
    11  C   -0.174937  -0.018946  -0.137980  -0.171449   0.618500  -0.074683
    12  C   -0.034875   0.063973   0.392030   0.059403  -0.813162   0.241641
    13  C   -0.070268  -0.294527  -0.854674   0.461801   0.529970  -0.029703
    14  C   -0.120621   0.164388  -0.138859   0.027830  -0.472426   0.080217
    15  C    0.027134   0.056512   0.229536  -0.056138  -0.052759  -0.022431
    16  H   -0.000017  -0.000224   0.002246  -0.004172  -0.002121  -0.000065
    17  C   -0.015383  -0.036703  -0.127155  -0.021597  -0.003981   0.025196
    18  H    0.000347   0.004081  -0.002203  -0.006097  -0.000913   0.000071
    19  H    0.000002   0.000054   0.000248   0.000250  -0.000102   0.000005
    20  H    0.017923  -0.042300   0.165952  -0.004185   0.032772   0.026274
    21  H   -0.001384   0.003143  -0.060758   0.063286   0.007381   0.009481
    22  C   -0.523144  -0.412504  -0.226595  -0.576688   0.534102  -0.438985
    23  O    0.002190  -0.079925  -0.014995  -0.024062   0.006137  -0.034499
    24  C   -0.443242  -0.052107  -0.000754  -0.003383   0.037070   0.028614
    25  H    0.014975  -0.014530  -0.003999  -0.000845   0.001245   0.004870
    26  H   -0.080573   0.064834   0.031576   0.006392  -0.006221  -0.011998
    27  H    0.075628  -0.012183  -0.009430   0.002298   0.004700   0.008953
    28  C   -0.006106  -0.007908  -0.046297  -0.009648  -0.002033   0.002829
    29  H   -0.000001  -0.000017  -0.000102   0.000038   0.000021   0.000000
    30  H   -0.000001   0.000012   0.000097  -0.000112  -0.000012   0.000000
    31  H    0.000000   0.000008   0.000051  -0.000055  -0.000003   0.000000
               7          8          9         10         11         12
     1  C   -0.011059   0.032595   0.024806  -0.022185  -0.174937  -0.034875
     2  C    0.297973  -0.011345   0.009899  -0.006421  -0.018946   0.063973
     3  C   -0.037811   0.029696   0.003894  -0.059728  -0.137980   0.392030
     4  C    0.052218   0.001525   0.022278   0.316845  -0.171449   0.059403
     5  C   -0.042174   0.325957  -0.102979  -0.229221   0.618500  -0.813162
     6  C    0.037508  -0.083173   0.359875   0.033055  -0.074683   0.241641
     7  H    0.542846   0.000017  -0.000165  -0.000271  -0.006342  -0.002734
     8  H    0.000017   0.509759  -0.004740  -0.004173  -0.004174   0.002672
     9  H   -0.000165  -0.004740   0.508117  -0.000125   0.000613   0.000526
    10  O   -0.000271  -0.004173  -0.000125   8.381739   0.283921   0.004173
    11  C   -0.006342  -0.004174   0.000613   0.283921  10.424390  -0.436831
    12  C   -0.002734   0.002672   0.000526   0.004173  -0.436831  11.731035
    13  C   -0.000999  -0.003080  -0.000048  -0.207988  -3.171882  -0.638308
    14  C    0.003683  -0.000308   0.000047  -0.046428  -0.104571  -5.211865
    15  C    0.000080  -0.000169   0.000000   0.047317   0.744547   0.092260
    16  H    0.000000   0.000000   0.000000  -0.002150   0.013636   0.051938
    17  C    0.000322  -0.000060   0.000004  -0.024295  -1.277846   0.811174
    18  H    0.000000   0.000000   0.000000  -0.000181   0.032219  -0.048901
    19  H    0.000000   0.000000   0.000000  -0.000127   0.035768  -0.023440
    20  H   -0.008386  -0.000195   0.000016  -0.010895   0.053273   0.004967
    21  H    0.000318   0.000005   0.000000  -0.011322   0.025103   0.087022
    22  C   -0.006928   0.005300  -0.029031  -0.001476  -0.034402  -0.023583
    23  O   -0.000088   0.000007   0.001455  -0.000009  -0.000086  -0.000306
    24  C    0.001172  -0.000210  -0.000015  -0.000283   0.001445  -0.001542
    25  H   -0.000026   0.000000  -0.000012   0.000000  -0.000006   0.000006
    26  H    0.000044   0.000000  -0.000006   0.000000   0.000099  -0.000096
    27  H   -0.000046   0.000000   0.000002   0.000000  -0.000045   0.000057
    28  C   -0.000011  -0.000003   0.000000  -0.005918  -0.413387  -0.965232
    29  H    0.000000   0.000000   0.000000  -0.000006  -0.003557   0.016692
    30  H    0.000000   0.000000   0.000000   0.000001   0.005659  -0.023259
    31  H    0.000000   0.000000   0.000000   0.000000  -0.000730  -0.018850
              13         14         15         16         17         18
     1  C   -0.070268  -0.120621   0.027134  -0.000017  -0.015383   0.000347
     2  C   -0.294527   0.164388   0.056512  -0.000224  -0.036703   0.004081
     3  C   -0.854674  -0.138859   0.229536   0.002246  -0.127155  -0.002203
     4  C    0.461801   0.027830  -0.056138  -0.004172  -0.021597  -0.006097
     5  C    0.529970  -0.472426  -0.052759  -0.002121  -0.003981  -0.000913
     6  C   -0.029703   0.080217  -0.022431  -0.000065   0.025196   0.000071
     7  H   -0.000999   0.003683   0.000080   0.000000   0.000322   0.000000
     8  H   -0.003080  -0.000308  -0.000169   0.000000  -0.000060   0.000000
     9  H   -0.000048   0.000047   0.000000   0.000000   0.000004   0.000000
    10  O   -0.207988  -0.046428   0.047317  -0.002150  -0.024295  -0.000181
    11  C   -3.171882  -0.104571   0.744547   0.013636  -1.277846   0.032219
    12  C   -0.638308  -5.211865   0.092260   0.051938   0.811174  -0.048901
    13  C   11.246988  -0.609053  -1.291904   0.323406   0.849625  -0.046724
    14  C   -0.609053  13.609032  -1.096957  -0.029500  -1.156884   0.282146
    15  C   -1.291904  -1.096957   7.924248  -0.081284   0.055287   0.063356
    16  H    0.323406  -0.029500  -0.081284   0.510920   0.013285   0.000018
    17  C    0.849625  -1.156884   0.055287   0.013285   7.800947   0.007208
    18  H   -0.046724   0.282146   0.063356   0.000018   0.007208   0.541874
    19  H   -0.051466   0.054297   0.283914  -0.004942   0.005078  -0.000169
    20  H    0.010848  -0.048837   0.004158   0.000004   0.005162   0.000307
    21  H    0.013546   0.084593   0.008937  -0.000206  -0.022500  -0.008415
    22  C   -0.001888  -0.001674   0.001767   0.000000  -0.001829  -0.000005
    23  O    0.000009  -0.000037   0.000001   0.000000  -0.000003   0.000000
    24  C    0.000465  -0.000557  -0.000055   0.000000   0.000015   0.000000
    25  H    0.000000   0.000001   0.000000   0.000000   0.000000   0.000000
    26  H    0.000006   0.000002   0.000000   0.000000   0.000001   0.000000
    27  H   -0.000005   0.000011   0.000000   0.000000   0.000001   0.000000
    28  C    0.431558   0.977606  -0.409222   0.003899  -1.168395  -0.002538
    29  H    0.009408  -0.051418   0.008208   0.000003  -0.071239   0.000615
    30  H   -0.008113   0.022362   0.026268   0.000002  -0.115609   0.001721
    31  H   -0.000843   0.040076  -0.018089  -0.000005  -0.142732   0.000065
              19         20         21         22         23         24
     1  C    0.000002   0.017923  -0.001384  -0.523144   0.002190  -0.443242
     2  C    0.000054  -0.042300   0.003143  -0.412504  -0.079925  -0.052107
     3  C    0.000248   0.165952  -0.060758  -0.226595  -0.014995  -0.000754
     4  C    0.000250  -0.004185   0.063286  -0.576688  -0.024062  -0.003383
     5  C   -0.000102   0.032772   0.007381   0.534102   0.006137   0.037070
     6  C    0.000005   0.026274   0.009481  -0.438985  -0.034499   0.028614
     7  H    0.000000  -0.008386   0.000318  -0.006928  -0.000088   0.001172
     8  H    0.000000  -0.000195   0.000005   0.005300   0.000007  -0.000210
     9  H    0.000000   0.000016   0.000000  -0.029031   0.001455  -0.000015
    10  O   -0.000127  -0.010895  -0.011322  -0.001476  -0.000009  -0.000283
    11  C    0.035768   0.053273   0.025103  -0.034402  -0.000086   0.001445
    12  C   -0.023440   0.004967   0.087022  -0.023583  -0.000306  -0.001542
    13  C   -0.051466   0.010848   0.013546  -0.001888   0.000009   0.000465
    14  C    0.054297  -0.048837   0.084593  -0.001674  -0.000037  -0.000557
    15  C    0.283914   0.004158   0.008937   0.001767   0.000001  -0.000055
    16  H   -0.004942   0.000004  -0.000206   0.000000   0.000000   0.000000
    17  C    0.005078   0.005162  -0.022500  -0.001829  -0.000003   0.000015
    18  H   -0.000169   0.000307  -0.008415  -0.000005   0.000000   0.000000
    19  H    0.529963   0.000000   0.000015   0.000000   0.000000   0.000000
    20  H    0.000000   0.662771  -0.004818  -0.002133   0.000012  -0.000031
    21  H    0.000015  -0.004818   0.654480  -0.000084  -0.000001  -0.000017
    22  C    0.000000  -0.002133  -0.000084   6.649643   0.562003   0.172589
    23  O    0.000000   0.000012  -0.000001   0.562003   8.090510  -0.124812
    24  C    0.000000  -0.000031  -0.000017   0.172589  -0.124812   6.107260
    25  H    0.000000   0.000000   0.000000  -0.042466  -0.002574   0.393593
    26  H    0.000000  -0.000002   0.000000  -0.056539   0.000892   0.388636
    27  H    0.000000  -0.000001   0.000000  -0.107867   0.006047   0.370049
    28  C   -0.020327  -0.000543   0.002408  -0.000258   0.000000   0.000015
    29  H    0.000305   0.000000   0.000001   0.000000   0.000000   0.000000
    30  H    0.000073   0.000000   0.000003   0.000000   0.000000   0.000000
    31  H    0.003712   0.000000   0.000003   0.000000   0.000000   0.000000
              25         26         27         28         29         30
     1  C    0.014975  -0.080573   0.075628  -0.006106  -0.000001  -0.000001
     2  C   -0.014530   0.064834  -0.012183  -0.007908  -0.000017   0.000012
     3  C   -0.003999   0.031576  -0.009430  -0.046297  -0.000102   0.000097
     4  C   -0.000845   0.006392   0.002298  -0.009648   0.000038  -0.000112
     5  C    0.001245  -0.006221   0.004700  -0.002033   0.000021  -0.000012
     6  C    0.004870  -0.011998   0.008953   0.002829   0.000000   0.000000
     7  H   -0.000026   0.000044  -0.000046  -0.000011   0.000000   0.000000
     8  H    0.000000   0.000000   0.000000  -0.000003   0.000000   0.000000
     9  H   -0.000012  -0.000006   0.000002   0.000000   0.000000   0.000000
    10  O    0.000000   0.000000   0.000000  -0.005918  -0.000006   0.000001
    11  C   -0.000006   0.000099  -0.000045  -0.413387  -0.003557   0.005659
    12  C    0.000006  -0.000096   0.000057  -0.965232   0.016692  -0.023259
    13  C    0.000000   0.000006  -0.000005   0.431558   0.009408  -0.008113
    14  C    0.000001   0.000002   0.000011   0.977606  -0.051418   0.022362
    15  C    0.000000   0.000000   0.000000  -0.409222   0.008208   0.026268
    16  H    0.000000   0.000000   0.000000   0.003899   0.000003   0.000002
    17  C    0.000000   0.000001   0.000001  -1.168395  -0.071239  -0.115609
    18  H    0.000000   0.000000   0.000000  -0.002538   0.000615   0.001721
    19  H    0.000000   0.000000   0.000000  -0.020327   0.000305   0.000073
    20  H    0.000000  -0.000002  -0.000001  -0.000543   0.000000   0.000000
    21  H    0.000000   0.000000   0.000000   0.002408   0.000001   0.000003
    22  C   -0.042466  -0.056539  -0.107867  -0.000258   0.000000   0.000000
    23  O   -0.002574   0.000892   0.006047   0.000000   0.000000   0.000000
    24  C    0.393593   0.388636   0.370049   0.000015   0.000000   0.000000
    25  H    0.451712  -0.020342  -0.026358   0.000000   0.000000   0.000000
    26  H   -0.020342   0.475170  -0.025324   0.000000   0.000000   0.000000
    27  H   -0.026358  -0.025324   0.482605   0.000000   0.000000   0.000000
    28  C    0.000000   0.000000   0.000000   7.120923   0.426046   0.433250
    29  H    0.000000   0.000000   0.000000   0.426046   0.489668  -0.030054
    30  H    0.000000   0.000000   0.000000   0.433250  -0.030054   0.496147
    31  H    0.000000   0.000000   0.000000   0.483428  -0.026659  -0.025690
              31
     1  C    0.000000
     2  C    0.000008
     3  C    0.000051
     4  C   -0.000055
     5  C   -0.000003
     6  C    0.000000
     7  H    0.000000
     8  H    0.000000
     9  H    0.000000
    10  O    0.000000
    11  C   -0.000730
    12  C   -0.018850
    13  C   -0.000843
    14  C    0.040076
    15  C   -0.018089
    16  H   -0.000005
    17  C   -0.142732
    18  H    0.000065
    19  H    0.003712
    20  H    0.000000
    21  H    0.000003
    22  C    0.000000
    23  O    0.000000
    24  C    0.000000
    25  H    0.000000
    26  H    0.000000
    27  H    0.000000
    28  C    0.483428
    29  H   -0.026659
    30  H   -0.025690
    31  H    0.498155
 Mulliken charges:
               1
     1  C    0.185340
     2  C   -0.030325
     3  C    0.100441
     4  C   -0.026742
     5  C   -0.441638
     6  C   -0.341131
     7  H    0.180857
     8  H    0.204099
     9  H    0.205590
    10  O   -0.433851
    11  C   -0.207318
    12  C    0.683413
    13  C   -0.596156
    14  C   -0.256296
    15  C   -0.544519
    16  H    0.205329
    17  C    0.612905
    18  H    0.182119
    19  H    0.186890
    20  H    0.137885
    21  H    0.149781
    22  C    0.562674
    23  O   -0.387867
    24  C   -0.873917
    25  H    0.244757
    26  H    0.233450
    27  H    0.230907
    28  C   -0.824136
    29  H    0.232046
    30  H    0.217255
    31  H    0.208158
 Sum of Mulliken charges =   0.00000
 Mulliken charges with hydrogens summed into heavy atoms:
               1
     1  C    0.185340
     2  C    0.150532
     3  C    0.238326
     4  C   -0.026742
     5  C   -0.237539
     6  C   -0.135541
    10  O   -0.433851
    11  C   -0.207318
    12  C    0.833194
    13  C   -0.390826
    14  C   -0.074177
    15  C   -0.357630
    17  C    0.612905
    22  C    0.562674
    23  O   -0.387867
    24  C   -0.164803
    28  C   -0.166677
 Electronic spatial extent (au):  <R**2>=           6797.3883
 Charge=              0.0000 electrons
 Dipole moment (field-independent basis, Debye):
    X=              3.9148    Y=             -2.7223    Z=              2.1290  Tot=              5.2220
 Quadrupole moment (field-independent basis, Debye-Ang):
   XX=           -101.4212   YY=            -91.4980   ZZ=           -106.8371
   XY=              1.8046   XZ=            -11.2355   YZ=              1.9389
 Traceless Quadrupole moment (field-independent basis, Debye-Ang):
   XX=             -1.5024   YY=              8.4208   ZZ=             -6.9184
   XY=              1.8046   XZ=            -11.2355   YZ=              1.9389
 Octapole moment (field-independent basis, Debye-Ang**2):
  XXX=            204.3523  YYY=             -2.4858  ZZZ=              1.8285  XYY=            -14.3622
  XXY=            -17.2630  XXZ=             78.6412  XZZ=             -3.0007  YZZ=             -3.1661
  YYZ=              1.3218  XYZ=              4.5442
 Hexadecapole moment (field-independent basis, Debye-Ang**3):
 XXXX=          -8433.9592 YYYY=           -975.7100 ZZZZ=           -226.3945 XXXY=            118.4666
 XXXZ=           -336.6440 YYYX=              5.3028 YYYZ=             19.7048 ZZZX=              1.0922
 ZZZY=             -3.7293 XXYY=          -1360.8931 XXZZ=          -1474.3304 YYZZ=           -218.0907
 XXYZ=              2.2678 YYXZ=             -0.6151 ZZXY=              1.6420
 N-N= 1.036056491493D+03 E-N=-3.767328573531D+03  KE= 7.229413793305D+02
 Evaluate density.
 Using the total density.
 Monte-Carlo method of calculating molar volume:
 based on  0.001 e/bohr**3 density envelope.
 Number of points per bohr**3 =   20 CutOff= 1.00D-04
 Using the SCF density.
 There are       434 points.  Will hold       434 in memory.
 LenV=  4026254218 MDV=  4026531840.
 Box volume =10251.031 fraction occupied=0.171
 Integrated density= 1.2299476434643141D+02 error= 2.9947643464314098D+00
 Molar volume = 1747.872 bohr**3/mol (155.978 cm**3/mol)
 Recommended a0 for SCRF calculation =  4.85 angstrom (  9.17 bohr)
 Calling FoFJK, ICntrl=      2127 FMM=F ISym2X=0 I1Cent= 0 IOpClX= 0 NMat=1 NMatS=1 NMatT=0.
 ***** Axes restored to original set *****
 -------------------------------------------------------------------
 Center     Atomic                   Forces (Hartrees/Bohr)
 Number     Number              X              Y              Z
 -------------------------------------------------------------------
      1        6          -0.002296583   -0.023671281    0.001130206
      2        6           0.008315251    0.011720816    0.013944801
      3        6          -0.002457024   -0.012719901    0.015050661
      4        6           0.007654865    0.050834949   -0.041261237
      5        6           0.000548057    0.006026839   -0.007684528
      6        6          -0.002936494    0.008771688   -0.017872727
      7        1          -0.002668106   -0.006705435   -0.009795749
      8        1           0.003186811    0.008196488    0.007559041
      9        1           0.000001073   -0.002997408    0.010808324
     10        8          -0.003243647   -0.008455493   -0.022896767
     11        6          -0.002932462   -0.057769083    0.028486091
     12        6           0.003095960    0.016767598   -0.005041875
     13        6          -0.003999863   -0.012587870    0.018646510
     14        6           0.003566919    0.014052785    0.019548663
     15        6          -0.011897024   -0.024286324    0.003078575
     16        1           0.003610808    0.005917171    0.010040868
     17        6           0.002518631    0.007296722   -0.017910704
     18        1          -0.003351610   -0.007559046   -0.009068747
     19        1           0.003849731    0.010984452    0.000387946
     20        1          -0.002735284   -0.021236386    0.012685873
     21        1           0.000602655    0.018308992   -0.016640775
     22        6          -0.034647346   -0.006508276    0.028437982
     23        8           0.040583808    0.015595744   -0.030788658
     24        6          -0.011418777    0.024880880    0.015465379
     25        1          -0.004129399   -0.013055583    0.008453377
     26        1          -0.005320187   -0.002944184   -0.018134162
     27        1           0.017060246    0.004585249   -0.004642811
     28        6          -0.005626609   -0.011098423    0.033676674
     29        1           0.014960415   -0.005762827   -0.009694958
     30        1          -0.011829705   -0.003445382   -0.012678248
     31        1           0.001934890    0.016862527   -0.003289025
 -------------------------------------------------------------------
 Cartesian Forces:  Max     0.057769083 RMS     0.016292742

 GradGradGradGradGradGradGradGradGradGradGradGradGradGradGradGradGradGrad
 Berny optimization.
 FormGI is forming the generalized inverse of G from B-inverse, IUseBI=4.
 Internal  Forces:  Max     0.167396201 RMS     0.023186817
 Search for a local minimum.
 Step number   1 out of a maximum of  162
 All quantities printed in internal units (Hartrees-Bohrs-Radians)
 Mixed Optimization -- RFO/linear search
 Second derivative matrix not updated -- first step.
 ITU=  0
     Eigenvalues ---    0.00230   0.00230   0.00237   0.00237   0.00237
     Eigenvalues ---    0.00237   0.01335   0.01500   0.01744   0.01791
     Eigenvalues ---    0.02070   0.02070   0.02070   0.02070   0.02070
     Eigenvalues ---    0.02070   0.02070   0.02070   0.02070   0.02070
     Eigenvalues ---    0.02070   0.02070   0.02070   0.02070   0.07243
     Eigenvalues ---    0.07243   0.07243   0.07243   0.16000   0.16000
     Eigenvalues ---    0.16000   0.16000   0.16000   0.16000   0.16000
     Eigenvalues ---    0.16000   0.16000   0.16000   0.16000   0.16000
     Eigenvalues ---    0.16000   0.16000   0.18708   0.22000   0.22000
     Eigenvalues ---    0.22966   0.22981   0.23969   0.24000   0.24759
     Eigenvalues ---    0.25000   0.25000   0.25000   0.25000   0.25000
     Eigenvalues ---    0.25000   0.27457   0.28519   0.28519   0.28519
     Eigenvalues ---    0.37230   0.37230   0.37230   0.37230   0.37230
     Eigenvalues ---    0.37230   0.37230   0.37230   0.37230   0.37230
     Eigenvalues ---    0.37230   0.37230   0.37230   0.37230   0.41268
     Eigenvalues ---    0.41268   0.41631   0.41640   0.45389   0.45389
     Eigenvalues ---    0.45389   0.45389   0.45389   0.45389   0.45389
     Eigenvalues ---    0.45389   0.80209
 RFO step:  Lambda=-1.84722780D-01 EMin= 2.30000000D-03
 Linear search not attempted -- first point.
 Maximum step size (   0.300) exceeded in Quadratic search.
    -- Step size scaled by   0.465
 Iteration  1 RMS(Cart)=  0.27206748 RMS(Int)=  0.01257327
 Iteration  2 RMS(Cart)=  0.16853961 RMS(Int)=  0.00340166
 Iteration  3 RMS(Cart)=  0.01001745 RMS(Int)=  0.00012170
 Iteration  4 RMS(Cart)=  0.00000889 RMS(Int)=  0.00012166
 Iteration  5 RMS(Cart)=  0.00000001 RMS(Int)=  0.00012166
 Variable       Old X    -DE/DX   Delta X   Delta X   Delta X     New X
                                 (Linear)    (Quad)   (Total)
    R1        2.64826  -0.00769   0.00000  -0.00566  -0.00566   2.64260
    R2        2.64826  -0.00904   0.00000  -0.00680  -0.00681   2.64145
    R3        2.91018  -0.02232   0.00000  -0.02207  -0.02207   2.88811
    R4        2.64826  -0.00293   0.00000  -0.00196  -0.00197   2.64629
    R5        2.02201   0.01210   0.00000   0.01010   0.01010   2.03210
    R6        2.64826   0.00421   0.00000   0.00329   0.00330   2.65156
    R7        2.02201  -0.01891   0.00000  -0.01577  -0.01577   2.00624
    R8        2.64826  -0.00544   0.00000  -0.00390  -0.00389   2.64437
    R9        2.93342  -0.04418   0.00000  -0.04470  -0.04470   2.88873
   R10        2.64826  -0.00745   0.00000  -0.00559  -0.00558   2.64268
   R11        2.02201   0.01151   0.00000   0.00960   0.00960   2.03160
   R12        2.02201   0.01117   0.00000   0.00932   0.00932   2.03133
   R13        3.18558  -0.05000   0.00000  -0.06248  -0.06248   3.12310
   R14        2.64826  -0.00364   0.00000  -0.00263  -0.00264   2.64563
   R15        2.64826  -0.01368   0.00000  -0.01006  -0.01006   2.63820
   R16        2.64826  -0.00172   0.00000  -0.00113  -0.00113   2.64713
   R17        2.02201  -0.01948   0.00000  -0.01625  -0.01625   2.00576
   R18        2.64826  -0.00388   0.00000  -0.00295  -0.00295   2.64531
   R19        2.02201   0.01211   0.00000   0.01010   0.01010   2.03210
   R20        2.64826  -0.00676   0.00000  -0.00481  -0.00481   2.64345
   R21        2.02201   0.01224   0.00000   0.01021   0.01021   2.03221
   R22        2.64826  -0.00747   0.00000  -0.00545  -0.00545   2.64281
   R23        2.02201   0.01145   0.00000   0.00955   0.00955   2.03156
   R24        2.91018  -0.00870   0.00000  -0.00860  -0.00860   2.90158
   R25        2.37803  -0.05309   0.00000  -0.02500  -0.02500   2.35303
   R26        2.91018  -0.01223   0.00000  -0.01209  -0.01209   2.89809
   R27        2.02201   0.01577   0.00000   0.01315   0.01315   2.03516
   R28        2.02201   0.01905   0.00000   0.01589   0.01589   2.03790
   R29        2.02201   0.01791   0.00000   0.01494   0.01494   2.03695
   R30        2.02201   0.01846   0.00000   0.01539   0.01539   2.03740
   R31        2.02201   0.01736   0.00000   0.01448   0.01448   2.03648
   R32        2.02201   0.01690   0.00000   0.01410   0.01410   2.03611
    A1        2.09440  -0.00641   0.00000  -0.00754  -0.00755   2.08684
    A2        2.09440   0.00527   0.00000   0.00598   0.00599   2.10038
    A3        2.09440   0.00113   0.00000   0.00156   0.00156   2.09596
    A4        2.09440   0.00525   0.00000   0.00592   0.00591   2.10030
    A5        2.09440  -0.00139   0.00000  -0.00130  -0.00129   2.09310
    A6        2.09440  -0.00386   0.00000  -0.00462  -0.00461   2.08978
    A7        2.09440   0.00274   0.00000   0.00351   0.00351   2.09790
    A8        2.09440  -0.01773   0.00000  -0.02380  -0.02380   2.07060
    A9        2.09440   0.01499   0.00000   0.02029   0.02029   2.11469
   A10        2.09440  -0.01394   0.00000  -0.01472  -0.01470   2.07969
   A11        2.09440   0.10268   0.00000   0.10966   0.10965   2.20405
   A12        2.09440  -0.08874   0.00000  -0.09494  -0.09495   1.99945
   A13        2.09440   0.00990   0.00000   0.01092   0.01093   2.10533
   A14        2.09440  -0.00638   0.00000  -0.00739  -0.00739   2.08700
   A15        2.09440  -0.00352   0.00000  -0.00354  -0.00354   2.09085
   A16        2.09440   0.00246   0.00000   0.00191   0.00191   2.09630
   A17        2.09440  -0.00059   0.00000  -0.00009  -0.00009   2.09430
   A18        2.09440  -0.00187   0.00000  -0.00181  -0.00181   2.09258
   A19        2.23319   0.16740   0.00000   0.17891   0.17891   2.41211
   A20        2.01758   0.10582   0.00000   0.11418   0.11426   2.13185
   A21        2.16295  -0.09704   0.00000  -0.10383  -0.10394   2.05902
   A22        2.09440  -0.00816   0.00000  -0.00880  -0.00880   2.08559
   A23        2.09440   0.00135   0.00000   0.00144   0.00142   2.09582
   A24        2.09440   0.01337   0.00000   0.01821   0.01821   2.11260
   A25        2.09440  -0.01472   0.00000  -0.01965  -0.01965   2.07474
   A26        2.09440   0.00568   0.00000   0.00581   0.00580   2.10020
   A27        2.09440  -0.00373   0.00000  -0.00410  -0.00410   2.09029
   A28        2.09440  -0.00195   0.00000  -0.00170  -0.00170   2.09269
   A29        2.09440   0.00731   0.00000   0.00843   0.00843   2.10282
   A30        2.09440  -0.00451   0.00000  -0.00536  -0.00536   2.08904
   A31        2.09440  -0.00281   0.00000  -0.00307  -0.00307   2.09133
   A32        2.09440   0.00627   0.00000   0.00662   0.00662   2.10102
   A33        2.09440  -0.00525   0.00000  -0.00616  -0.00616   2.08823
   A34        2.09440  -0.00102   0.00000  -0.00046  -0.00046   2.09393
   A35        2.09440  -0.01245   0.00000  -0.01349  -0.01349   2.08091
   A36        2.09440   0.00548   0.00000   0.00595   0.00594   2.10034
   A37        2.09440   0.00697   0.00000   0.00755   0.00754   2.10194
   A38        2.09836   0.00058   0.00000   0.00062   0.00062   2.09897
   A39        2.09241  -0.00729   0.00000  -0.00779  -0.00779   2.08462
   A40        2.09241   0.00671   0.00000   0.00717   0.00717   2.09959
   A41        1.91063  -0.00302   0.00000  -0.00392  -0.00392   1.90671
   A42        1.91063   0.00043   0.00000   0.00019   0.00019   1.91082
   A43        1.91063   0.00369   0.00000   0.00521   0.00521   1.91584
   A44        1.91063   0.00000   0.00000  -0.00048  -0.00049   1.91015
   A45        1.91063   0.00178   0.00000   0.00317   0.00318   1.91381
   A46        1.91063  -0.00287   0.00000  -0.00417  -0.00417   1.90646
   A47        1.91063   0.00301   0.00000   0.00400   0.00399   1.91462
   A48        1.91063   0.00334   0.00000   0.00450   0.00449   1.91512
   A49        1.91063   0.00395   0.00000   0.00539   0.00538   1.91601
   A50        1.91063  -0.00353   0.00000  -0.00489  -0.00490   1.90573
   A51        1.91063  -0.00347   0.00000  -0.00467  -0.00468   1.90595
   A52        1.91063  -0.00330   0.00000  -0.00432  -0.00434   1.90630
    D1        0.00000  -0.00047   0.00000  -0.00106  -0.00105  -0.00105
    D2       -3.14159  -0.00004   0.00000  -0.00009  -0.00008   3.14151
    D3       -3.14159  -0.00073   0.00000  -0.00166  -0.00166   3.13994
    D4        0.00000  -0.00030   0.00000  -0.00069  -0.00068  -0.00068
    D5        0.00000  -0.00013   0.00000  -0.00030  -0.00030  -0.00030
    D6        3.14159  -0.00028   0.00000  -0.00065  -0.00064   3.14094
    D7        3.14159   0.00013   0.00000   0.00030   0.00030  -3.14130
    D8        0.00000  -0.00002   0.00000  -0.00005  -0.00004  -0.00005
    D9       -2.12524  -0.00289   0.00000  -0.00720  -0.00720  -2.13244
   D10        1.01635  -0.00266   0.00000  -0.00661  -0.00661   1.00974
   D11        1.01635  -0.00315   0.00000  -0.00781  -0.00781   1.00855
   D12       -2.12524  -0.00291   0.00000  -0.00722  -0.00722  -2.13246
   D13        0.00000   0.00067   0.00000   0.00152   0.00152   0.00152
   D14       -3.14159   0.00016   0.00000   0.00035   0.00037  -3.14122
   D15        3.14159   0.00024   0.00000   0.00055   0.00055  -3.14104
   D16        0.00000  -0.00027   0.00000  -0.00061  -0.00060  -0.00060
   D17        0.00000  -0.00027   0.00000  -0.00062  -0.00062  -0.00062
   D18        3.14159  -0.00018   0.00000  -0.00041  -0.00040   3.14119
   D19        3.14159   0.00024   0.00000   0.00055   0.00056  -3.14104
   D20        0.00000   0.00033   0.00000   0.00075   0.00077   0.00077
   D21        0.00000  -0.00033   0.00000  -0.00074  -0.00074  -0.00074
   D22       -3.14159   0.00004   0.00000   0.00009   0.00009  -3.14151
   D23       -3.14159  -0.00042   0.00000  -0.00095  -0.00093   3.14066
   D24        0.00000  -0.00005   0.00000  -0.00012  -0.00011  -0.00011
   D25       -0.09171   0.00123   0.00000   0.00306   0.00306  -0.08865
   D26        3.04988   0.00132   0.00000   0.00327   0.00327   3.05315
   D27        0.00000   0.00053   0.00000   0.00120   0.00121   0.00121
   D28       -3.14159   0.00068   0.00000   0.00155   0.00155  -3.14004
   D29       -3.14159   0.00016   0.00000   0.00037   0.00038  -3.14121
   D30        0.00000   0.00032   0.00000   0.00072   0.00072   0.00072
   D31        0.07603   0.01130   0.00000   0.02774   0.02743   0.10347
   D32       -2.92738   0.00554   0.00000   0.01410   0.01440  -2.91298
   D33       -3.00924   0.00352   0.00000  -0.00114  -0.00195  -3.01119
   D34        0.13235   0.00557   0.00000   0.00506   0.00445   0.13681
   D35        0.00000   0.00097   0.00000   0.00330   0.00341   0.00341
   D36       -3.14159   0.00303   0.00000   0.00950   0.00981  -3.13178
   D37        2.99766   0.01151   0.00000   0.01766   0.01701   3.01467
   D38       -0.14393   0.01042   0.00000   0.01682   0.01631  -0.12762
   D39        0.00000  -0.00252   0.00000  -0.00523  -0.00520  -0.00520
   D40        3.14159  -0.00361   0.00000  -0.00606  -0.00590   3.13569
   D41        0.00000   0.00115   0.00000   0.00090   0.00074   0.00073
   D42        3.14159   0.00049   0.00000   0.00102   0.00099  -3.14061
   D43        3.14159  -0.00091   0.00000  -0.00531  -0.00553   3.13606
   D44        0.00000  -0.00157   0.00000  -0.00519  -0.00527  -0.00528
   D45        0.00000   0.00196   0.00000   0.00296   0.00285   0.00285
   D46        3.14159   0.00049   0.00000   0.00120   0.00122  -3.14038
   D47        3.14159   0.00305   0.00000   0.00380   0.00356  -3.13804
   D48        0.00000   0.00158   0.00000   0.00204   0.00192   0.00192
   D49        0.00000  -0.00172   0.00000  -0.00316  -0.00309  -0.00309
   D50       -3.14159  -0.00138   0.00000  -0.00230  -0.00223   3.13936
   D51       -3.14159  -0.00105   0.00000  -0.00328  -0.00334   3.13825
   D52        0.00000  -0.00071   0.00000  -0.00243  -0.00248  -0.00248
   D53        0.00000   0.00017   0.00000   0.00123   0.00130   0.00131
   D54       -3.14159  -0.00018   0.00000   0.00037   0.00045  -3.14114
   D55       -3.14159   0.00163   0.00000   0.00299   0.00295  -3.13865
   D56        0.00000   0.00129   0.00000   0.00214   0.00209   0.00209
   D57       -1.37023  -0.00001   0.00000  -0.00012  -0.00012  -1.37036
   D58        0.72416  -0.00044   0.00000  -0.00091  -0.00092   0.72324
   D59        2.81856  -0.00002   0.00000  -0.00015  -0.00015   2.81841
   D60        1.77136   0.00034   0.00000   0.00074   0.00074   1.77210
   D61       -2.41743  -0.00010   0.00000  -0.00005  -0.00005  -2.41748
   D62       -0.32304   0.00032   0.00000   0.00071   0.00072  -0.32232
   D63        2.76141   0.00162   0.00000   0.00307   0.00307   2.76448
   D64       -1.42738   0.00003   0.00000   0.00020   0.00020  -1.42718
   D65        0.66702  -0.00097   0.00000  -0.00161  -0.00160   0.66541
   D66       -0.38018   0.00185   0.00000   0.00366   0.00366  -0.37652
   D67        1.71421   0.00026   0.00000   0.00079   0.00079   1.71500
   D68       -2.47458  -0.00074   0.00000  -0.00102  -0.00102  -2.47559
         Item               Value     Threshold  Converged?
 Maximum Force            0.167396     0.000450     NO 
 RMS     Force            0.023187     0.000300     NO 
 Maximum Displacement     1.478694     0.001800     NO 
 RMS     Displacement     0.432099     0.001200     NO 
 Predicted change in Energy=-7.439090D-02
 GradGradGradGradGradGradGradGradGradGradGradGradGradGradGradGradGradGrad

                          Input orientation:                          
 ---------------------------------------------------------------------
 Center     Atomic      Atomic             Coordinates (Angstroms)
 Number     Number       Type             X           Y           Z
 ---------------------------------------------------------------------
      1          6           0       -4.756711   -0.382681   -0.260045
      2          6           0       -4.915283   -0.135787   -1.627315
      3          6           0       -4.674078    1.141569   -2.148069
      4          6           0       -4.269151    2.184263   -1.300932
      5          6           0       -4.111415    1.929883    0.066025
      6          6           0       -4.353947    0.654552    0.585985
      7          1           0       -5.224836   -0.929547   -2.283428
      8          1           0       -3.801501    2.723890    0.721236
      9          1           0       -4.230496    0.472563    1.638182
     10          8           0       -3.969010    3.623938   -1.718083
     11          6           0       -3.868415    4.507585   -3.111055
     12          6           0       -4.209151    3.972303   -4.359008
     13          6           0       -3.284914    5.774015   -3.042462
     14          6           0       -3.961107    4.703269   -5.527943
     15          6           0       -3.035934    6.501953   -4.211934
     16          1           0       -3.026466    6.191619   -2.085814
     17          6           0       -3.371937    5.970232   -5.461023
     18          1           0       -4.226190    4.286477   -6.483194
     19          1           0       -2.585113    7.475709   -4.146374
     20          1           0       -4.803132    1.298942   -3.190033
     21          1           0       -4.661933    3.015669   -4.439095
     22          6           0       -5.022020   -1.776187    0.308745
     23          8           0       -5.868489   -1.936280    1.207809
     24          6           0       -4.236431   -2.975079   -0.236638
     25          1           0       -4.251830   -3.769829    0.489981
     26          1           0       -4.691913   -3.317040   -1.152372
     27          1           0       -3.217506   -2.684010   -0.434006
     28          6           0       -3.098840    6.767386   -6.744597
     29          1           0       -2.210493    6.389770   -7.224852
     30          1           0       -3.934389    6.669773   -7.418156
     31          1           0       -2.956648    7.808022   -6.504221
 ---------------------------------------------------------------------
                    Distance matrix (angstroms):
                    1          2          3          4          5
     1  C    0.000000
     2  C    1.398403   0.000000
     3  C    2.427921   1.400358   0.000000
     4  C    2.812537   2.430359   1.403145   0.000000
     5  C    2.422949   2.789372   2.416659   1.399343   0.000000
     6  C    1.397798   2.416284   2.795482   2.430568   1.398445
     7  H    2.147623   1.075343   2.147366   3.402124   3.864709
     8  H    3.395015   3.864448   3.390876   2.144541   1.075079
     9  H    2.147466   3.391533   3.870404   3.401441   2.147007
    10  O    4.335821   3.878041   2.616135   1.528648   2.464375
    11  C    5.729924   4.985812   3.592561   2.972366   4.098467
    12  C    6.005597   4.983690   3.621803   3.542953   4.874622
    13  C    6.914690   6.291781   4.918259   4.109498   5.012299
    14  C    7.365502   6.288228   4.961611   4.930305   6.245538
    15  C    8.122604   7.366940   5.973004   5.351375   6.353064
    16  H    7.039077   6.619208   5.312391   4.268396   4.895908
    17  C    8.326300   7.373106   5.998934   5.696043   6.886182
    18  H    7.798081   6.603849   5.374417   5.592583   6.961248
    19  H    9.031815   8.349265   6.962638   6.239545   7.129522
    20  H    3.378585   2.124408   1.061654   2.153516   3.387989
    21  H    5.387228   4.231071   2.959932   3.270104   4.666702
    22  C    1.528322   2.539810   3.830183   4.340856   3.824012
    23  O    2.409215   3.491175   4.707621   5.082375   4.397522
    24  C    2.644194   3.233636   4.559813   5.268074   4.915881
    25  H    3.505740   4.257860   5.591013   6.217626   5.717182
    26  H    3.067720   3.224258   4.568471   5.519523   5.417718
    27  H    2.774082   3.286317   4.437868   5.055453   4.726216
    28  C    9.793948   8.782929   7.433657   7.211667   8.414946
    29  H   10.042801   9.012835   7.706269   7.550973   8.755626
    30  H   10.082255   8.989529   7.673460   7.592911   8.860635
    31  H   10.455504   9.524944   8.146607   7.773258   8.891239
                    6          7          8          9         10
     6  C    0.000000
     7  H    3.391364   0.000000
     8  H    2.146078   4.939787   0.000000
     9  H    1.074932   4.281781   2.468461   0.000000
    10  O    3.778116   4.757199   2.605461   4.611297   0.000000
    11  C    5.361875   5.664561   4.227588   6.242416   1.652671
    12  C    5.956625   5.419204   5.247246   6.943696   2.674604
    13  C    6.365325   7.019770   4.871914   7.134980   2.616256
    14  C    7.343469   6.622122   6.557107   8.326151   3.959804
    15  C    7.677844   7.983585   6.260673   8.485540   3.920828
    16  H    6.289660   7.455393   4.528284   6.930038   2.759819
    17  C    8.110924   7.819034   6.995969   9.019988   4.457711
[...]
 .00003986,0.00002145,-0.00000141,-0.00001331,0.00001985,0.00000018,0.0
 0000905,-0.00000032,-0.00000280,0.00000599,-0.00000222,0.00000289,0.00
 000101,0.00000339,-0.00000368,0.00000093,-0.00000007,-0.00000080,-0.00
 000398,-0.00000137,-0.00000157,0.00000083,0.00000513,-0.00000047,-0.00
 000135,-0.00000144,0.00000173,-0.00000047,-0.00000070,0.00000230,-0.00
 002964,0.00000580,0.00000363,-0.00000432,-0.00000022,-0.00104730,-0.02
 193383,0.00930646,-0.00097661,0.00045116,0.00128560,0.00704952,0.11713
 629,-0.10806078,-0.00982958,-0.12190562,0.11455947,-0.00063638,-0.0002
 0353,-0.00075735,0.00063969,0.00004611,-0.00088821,0.00003118,0.000219
 32,0.00037074,0.00000305,0.00000853,-0.00007388,0.00004803,0.00003422,
 0.00001210,-0.00019031,-0.00017151,0.00010853,-0.00046472,-0.00021160,
 0.00033484,0.00002342,-0.00000650,0.00002279,-0.00000403,0.00002042,0.
 00002750,-0.00005093,0.00006798,0.00000615,-0.00000442,-0.00001398,0.0
 0002904,0.00000960,0.00000941,-0.00000258,-0.00000654,0.00000592,-0.00
 000920,0.00000017,0.00000370,0.00000453,-0.00000430,0.00000284,0.00000
 236,-0.00000083,-0.00000374,-0.00000090,-0.00000050,-0.00000064,0.0000
 0241,0.00000121,-0.00000199,-0.00000239,0.00000158,-0.00000114,-0.0000
 0236,0.00000622,-0.00002990,-0.00000227,0.00000314,-0.00000330,-0.0000
 0038,0.00813390,-0.00076175,0.01152799,-0.00319207,0.00111416,0.001487
 51,-0.11920176,-0.00310930,-0.12011886,0.00120797,0.00078395,0.0033990
 3,0.13026751,0.00188299,-0.00132664,0.00111075,0.00018973,-0.00082028,
 -0.00027284,-0.00031446,-0.00012852,0.00004131,0.00009996,0.00009816,-
 0.00020590,-0.00031997,-0.00019396,0.00029504,0.00033955,0.00061454,0.
 00032645,-0.00060813,-0.00160817,0.00048168,-0.00006309,-0.00000230,-0
 .00002487,-0.00000775,0.00012357,0.00004500,0.00002910,-0.00011604,0.0
 0010314,0.00001105,0.00000611,-0.00004455,-0.00000557,0.00000612,0.000
 00908,-0.00000613,0.00000603,0.00000787,0.00000441,0.00000690,0.000008
 52,-0.00000561,-0.00000096,0.00000073,0.00000081,-0.00000443,-0.000002
 58,-0.00000289,0.00000070,0.00000548,-0.00000036,-0.00000324,0.0000003
 3,0.00000139,-0.00000166,-0.00000006,0.00000189,-0.00000834,0.00000606
 ,0.00000543,-0.00000761,-0.00000231,-0.01733437,0.00389927,-0.01756946
 ,0.00368493,-0.00152337,-0.00176042,-0.00423443,-0.04993830,-0.0068383
 7,0.01702852,0.00337482,0.02346723,0.00294891,0.04830443,0.00106538,0.
 00006620,0.00044243,0.00043602,0.00066139,-0.00006689,0.00008457,-0.00
 033409,0.00018832,-0.00008233,0.00012753,0.00032628,-0.00007345,0.0002
 3889,-0.00017767,0.00039072,-0.00045230,0.00002448,-0.00020720,0.00058
 086,0.00030491,-0.00003630,-0.00002408,-0.00002054,-0.00000750,0.00015
 058,0.00002820,-0.00004198,-0.00000467,-0.00002935,0.00000201,0.000002
 62,0.00000564,-0.00000311,-0.00000025,-0.00000118,-0.00000044,-0.00000
 386,-0.00000088,-0.00000007,0.00000097,0.00000234,-0.00000001,0.000002
 76,-0.00000093,0.00000043,0.00000015,0.00000056,0.00000175,-0.00000253
 ,-0.00000004,-0.00000007,-0.00000136,0.00000078,0.00000099,0.00000067,
 -0.00000059,-0.00000560,-0.00001682,-0.00000080,0.00000135,-0.00000180
 ,-0.00000025,-0.01108604,0.00338082,-0.01696417,0.00384377,-0.00371159
 ,-0.00167167,-0.12400267,-0.00540734,-0.23244138,-0.00752178,-0.001551
 36,-0.01081666,0.13239476,0.00555351,0.25238322,0.00042049,0.00055672,
 0.00041969,0.00012924,-0.00016181,0.00109095,0.00024776,0.00013786,-0.
 00029569,0.00008594,-0.00010871,-0.00009736,-0.00006082,-0.00016064,-0
 .00001674,0.00019479,0.00033647,-0.00001012,-0.00008910,0.00004167,-0.
 00083104,-0.00002309,0.00001494,-0.00001457,0.00005929,-0.00013753,-0.
 00002914,-0.00003016,-0.00003015,-0.00004356,0.00000813,0.00000943,-0.
 00001195,-0.00000757,-0.00000403,0.00000062,0.00000458,-0.00000690,0.0
 0000384,-0.00000107,-0.00000596,-0.00000374,0.00000621,-0.00000325,-0.
 00000405,0.00000078,0.00000600,0.00000261,0.00000105,0.00000277,-0.000
 00237,-0.00000016,0.00000122,0.00000280,-0.00000120,0.00000274,0.00000
 108,-0.00000753,0.00003299,-0.00000170,-0.00000220,0.00000330,-0.00000
 013,-0.00837104,-0.00456248,0.00179832,0.00003388,0.00222770,0.0009650
 0,-0.28489568,-0.04441308,0.06370718,0.00030200,-0.00028607,-0.0005674
 5,-0.01661994,-0.00332695,0.00484669,0.30861569,-0.00183062,-0.0017550
 9,-0.00025156,0.00023998,-0.00083298,0.00004081,0.00029691,-0.00005905
 ,0.00018045,0.00005505,0.00006947,-0.00023193,0.00007557,-0.00016144,0
 .00045047,-0.00058913,0.00054718,-0.00007595,0.00044410,-0.00143412,0.
 00071902,0.00006264,0.00001875,0.00002222,-0.00004255,0.00009681,0.000
 01995,-0.00007631,-0.00013880,0.00005520,0.00002409,0.00001053,-0.0000
 4436,-0.00000489,0.00000391,0.00000966,-0.00000255,0.00000302,0.000010
 57,0.00000383,0.00000139,0.00000373,-0.00000855,0.00000338,0.00000217,
 0.00000044,-0.00000622,-0.00000330,-0.00000101,0.00000036,0.00000500,-
 0.00000049,-0.00000184,0.00000024,0.00000084,-0.00000202,0.00000109,-0
 .00000511,-0.00000051,0.00000447,0.00000227,-0.00000373,-0.00000186,0.
 02375544,0.00930561,-0.00182399,-0.00118921,-0.00209663,-0.00392832,-0
 .04227244,-0.05768761,0.01219319,-0.02802628,-0.00290462,0.00522836,-0
 .00074456,-0.00075508,0.00074443,0.04983253,0.05778051,-0.00129277,-0.
 00000872,-0.00018357,-0.00041852,0.00049320,0.00045687,0.00011761,-0.0
 0037717,-0.00009592,-0.00017807,0.00006499,0.00026801,0.00011263,0.000
 19486,-0.00010035,-0.00015107,-0.00034801,-0.00029506,-0.00028749,0.00
 064122,-0.00023034,0.00004760,-0.00000156,0.00000509,-0.00001689,0.000
 08420,-0.00000784,0.00003504,-0.00003293,-0.00002136,0.00000017,0.0000
 0931,-0.00001130,-0.00000344,-0.00001037,0.00000173,0.00000800,-0.0000
 0303,0.00000549,-0.00000060,-0.00000037,-0.00000461,0.00000249,-0.0000
 0166,0.00000010,0.00000011,0.00000152,0.00000086,-0.00000064,-0.000002
 01,-0.00000301,-0.00000086,0.00000144,0.00000091,-0.00000101,0.0000004
 7,0.00000200,0.00000385,0.00001030,0.00000510,-0.00000256,0.00000265,0
 .00000019,0.02033352,0.00705694,-0.00585104,-0.00109622,-0.00412045,-0
 .00432319,0.06723392,0.01335215,-0.05900776,0.01433725,0.00105891,-0.0
 0362879,-0.02787093,-0.00473952,0.00848616,-0.07091064,-0.01332832,0.0
 6453137,-0.00001902,0.00004619,-0.00001876,0.00001227,-0.00001874,0.00
 001399,-0.00001035,0.00004762,0.00000548,0.00005217,-0.00011259,0.0000
 3908,-0.00001524,0.00004573,-0.00002365,0.00001199,-0.00001504,-0.0000
 1175,-0.00000289,0.00000522,0.00000045,-0.00000264,-0.00000398,0.00000
 076,-0.00000012,0.00000274,-0.00000094,0.00028855,0.00044874,-0.000059
 32,-0.00057634,-0.00005862,-0.00000159,-0.00465751,-0.00176766,-0.0012
 4410,-0.00225331,-0.00281261,-0.00370090,-0.00731206,-0.01179187,0.030
 82418,0.00971545,0.00638065,-0.01819628,0.00036249,0.00046109,-0.00104
 413,-0.09684756,-0.01642039,0.02968203,0.00073541,0.00011688,0.0009603
 7,-0.00005508,0.00227036,-0.00092374,-0.00002588,-0.00003101,-0.000009
 15,-0.00019934,-0.00052230,0.00119908,0.00000396,-0.00006271,0.0000219
 9,0.00000660,0.00002764,-0.00002413,-0.00000331,0.00000794,0.00000314,
 0.00000003,0.00000275,-0.00000056,-0.00000062,0.00000027,0.00000004,0.
 00000080,-0.00000074,0.00000005,0.57626900,-0.00000879,0.00012282,-0.0
 0003858,-0.00000149,-0.00005600,0.00002108,-0.00004658,0.00011907,0.00
 006218,-0.00006364,-0.00051634,0.00021398,0.00000532,0.00005842,-0.000
 05203,0.00001101,-0.00003617,-0.00000185,-0.00000257,0.00000436,0.0000
 0555,-0.00000269,-0.00000338,0.00000642,-0.00000009,0.00000368,-0.0000
 0213,0.00047662,-0.00016225,-0.00075034,0.00021445,-0.00052930,0.00011
 422,-0.00297468,0.00436341,0.00066594,-0.00181513,0.00588080,0.0016770
 5,-0.00559258,-0.00204725,0.01283601,-0.00033293,0.00306626,0.00458727
 ,-0.00009857,0.00022537,-0.00006302,-0.01650983,-0.08913219,0.04573529
 ,0.00174929,-0.00197584,-0.00066565,0.00031106,-0.00297634,-0.00205590
 ,0.00001726,0.00000242,-0.00003217,-0.00004840,0.00006721,0.00039908,-
 0.00000317,-0.00015600,0.00007090,0.00002085,0.00007136,-0.00007916,-0
 .00000316,0.00001849,0.00000371,0.00000035,0.00000609,-0.00000312,-0.0
 0000412,-0.00000321,0.00000034,0.00000303,-0.00000212,0.00000336,0.004
 72771,0.54105867,-0.00001637,0.00000732,0.00000156,0.00000462,0.000012
 73,0.00000109,0.00000351,0.00001715,0.00000976,0.00001550,-0.00005982,
 0.00005085,-0.00000304,0.00001671,-0.00001682,0.00000424,-0.00001288,0
 .00000089,0.00000018,0.00000131,0.00000048,-0.00000165,-0.00000304,0.0
 0000133,-0.00000075,0.00000138,-0.00000151,0.00033698,-0.00026928,-0.0
 0022999,-0.00092000,0.00032255,-0.00154604,-0.00216048,0.00049410,0.00
 410652,-0.00256977,0.00110368,0.00105648,0.00762211,0.00545447,-0.0065
 7125,0.00506504,0.01043686,-0.02600396,0.00029725,0.00018081,-0.000349
 66,0.02678180,0.04186043,-0.18523449,-0.00062637,-0.00174745,0.0002598
 6,0.00160320,-0.00101042,0.00059663,-0.00001124,0.00000623,-0.00001887
 ,-0.00020223,-0.00024561,0.00039645,-0.00000086,0.00000036,0.00000915,
 0.00000304,0.00000057,-0.00000587,0.00000045,-0.00000037,-0.00000151,0
 .00000023,-0.00000016,-0.00000038,-0.00000135,-0.00000022,0.00000047,0
 .00000080,-0.00000034,0.00000106,0.02561963,0.01347575,0.49530376,0.00
 000642,-0.00004954,0.00001174,-0.00000272,0.00001927,-0.00001175,-0.00
 000773,-0.00005375,-0.00001557,-0.00001835,0.00018803,-0.00006069,0.00
 000105,-0.00004292,0.00002197,-0.00000884,0.00001900,0.00000723,0.0000
 0475,-0.00000523,0.00000064,0.00000256,0.00000326,-0.00000266,0.000001
 07,-0.00000230,0.00000115,-0.00010812,-0.00021767,0.00023276,0.0010462
 0,0.00032412,0.00032961,0.00001254,-0.00023279,-0.00115482,-0.00082522
 ,-0.00035642,0.00070080,-0.00004000,-0.00108126,0.00134584,-0.00060454
 ,0.00069016,-0.00129238,0.00000927,-0.00008004,-0.00000485,-0.00107236
 ,0.00586854,0.00606678,-0.00040933,0.00022930,0.00000785,0.00014705,-0
 .00016363,-0.00008829,0.00001363,0.00001815,0.00001504,-0.00003575,0.0
 0000920,0.00001515,0.00000127,0.00006164,-0.00002179,-0.00000841,-0.00
 002685,0.00002421,0.00000465,-0.00000762,-0.00000175,0.00000002,-0.000
 00249,0.00000061,0.00000036,0.00000028,-0.00000061,-0.00000127,0.00000
 029,-0.00000013,-0.05326748,0.02962679,0.02492194,0.05283903,0.0000015
 0,-0.00000954,-0.00000046,0.00000053,0.00000207,-0.00000097,-0.0000051
 1,-0.00002284,0.00000624,0.00000822,0.00006386,-0.00000245,-0.00000144
 ,-0.00002172,0.00000242,-0.00000203,0.00000749,0.00000276,0.00000015,-
 0.00000514,0.00000145,0.00000076,0.00000213,-0.00000149,0.00000034,-0.
 00000211,0.00000015,-0.00004974,-0.00010563,0.00009064,0.00027680,0.00
 004321,0.00031034,0.00027765,-0.00006581,-0.00060168,0.00003489,-0.000
 57520,-0.00007567,-0.00039362,0.00023758,0.00048969,-0.00016238,-0.000
 14339,0.00034763,0.00000155,-0.00001014,0.00003706,-0.00215020,0.01234
 377,0.00931679,-0.00005219,-0.00008563,-0.00020935,0.00017906,0.000090
 07,0.00008073,-0.00000129,0.00000048,0.00001307,-0.00001503,0.00001683
 ,-0.00002326,-0.00000004,0.00000105,-0.00000130,0.00000002,0.00000054,
 0.00000037,-0.00000010,0.00000025,0.00000038,0.00000019,0.00000005,-0.
 00000068,-0.00000036,-0.00000076,0.00000004,0.00000043,-0.00000056,0.0
 0000024,0.02861208,-0.19570493,-0.12327548,-0.03189623,0.21226326,-0.0
 0000685,0.00015886,-0.00003071,-0.00000319,-0.00007147,0.00002931,-0.0
 0003721,0.00018110,0.00002283,-0.00002407,-0.00066282,0.00020469,0.000
 00967,0.00012428,-0.00006652,0.00001332,-0.00006079,-0.00001533,-0.000
 00376,0.00002292,-0.00000037,-0.00000491,-0.00000783,0.00001416,0.0000
 0008,0.00000582,-0.00000096,0.00030250,0.00047003,-0.00079718,0.000161
 86,-0.00024099,0.00064322,-0.00048866,0.00130240,-0.00074872,-0.000434
 12,0.00154834,0.00000822,-0.00176799,-0.00010758,0.00075580,0.00173870
 ,0.00092949,-0.00078582,0.00001328,0.00007467,-0.00017054,0.00499985,-
 0.01938295,-0.02231638,0.00054564,-0.00060565,-0.00001554,0.00007250,-
 0.00076194,-0.00028962,0.00002517,-0.00004294,-0.00003757,0.00005177,0
 .00002278,-0.00004864,0.00000460,-0.00018954,0.00005592,0.00001415,0.0
 0007881,-0.00006440,-0.00000762,0.00002659,0.00001052,-0.00000058,0.00
 000732,-0.00000111,0.00000109,-0.00000020,-0.00000067,-0.00000039,-0.0
 0000042,-0.00000113,0.02477639,-0.12642996,-0.14863846,-0.02851741,0.1
 3518862,0.16454786,0.00000679,0.00001386,-0.00000552,-0.00000255,-0.00
 001181,0.00000522,-0.00000174,0.00000200,0.00000143,-0.00000683,-0.000
 01990,-0.00004292,-0.00000049,0.00000970,-0.00000262,0.00000209,-0.000
 00132,-0.00000361,-0.00000215,-0.00000402,0.00000136,-0.00000006,0.,-0
 .00000108,0.00000007,0.00000019,-0.00000031,-0.00005146,0.00018954,0.0
 0009097,0.00052040,-0.00018943,0.00037959,0.00038742,-0.00002593,-0.00
 091215,-0.00008903,0.00010389,0.00043058,0.00009045,-0.00086452,0.0014
 8458,-0.00042370,-0.00009169,0.00053256,-0.00003871,0.00002447,0.00006
 686,0.00814877,-0.00722191,0.00357183,-0.00019045,0.00036691,0.0000670
 1,0.00030761,0.00007219,0.00027165,0.00000173,0.00000485,0.00000188,-0
 .00000465,0.00006023,-0.00004933,-0.00000392,-0.00002695,0.00001623,0.
 00000554,0.00001328,-0.00001805,-0.00000113,0.00000194,0.00000086,0.00
 000011,0.00000128,-0.00000097,-0.00000127,-0.00000108,0.00000012,0.000
 00142,-0.00000064,0.00000090,-0.18404413,0.10918883,-0.07187410,-0.003
 36327,0.00209920,-0.00119333,0.19728196,0.00000213,-0.00007426,0.00001
 947,-0.00000060,0.00003287,-0.00001403,0.00001289,-0.00007144,-0.00002
 271,0.00001985,0.00022533,-0.00008026,-0.00000208,-0.00005209,0.000028
 92,-0.00001017,0.00002296,0.00000998,0.00000490,-0.00000467,-0.0000016
 7,0.00000221,0.00000417,-0.00000257,0.00000028,-0.00000257,0.00000152,
 -0.00015349,-0.00023316,0.00031818,-0.00022362,-0.00010418,-0.00033854
 ,-0.00005020,0.00009708,0.00028643,0.00038180,0.00046772,-0.00019617,0
 .00075930,0.00103050,0.00032175,-0.00118767,-0.00079026,0.00086294,-0.
 00003847,-0.00002154,0.00008856,0.00660123,-0.00513000,0.00311470,-0.0
 0071783,-0.00045902,-0.00005386,0.00016707,0.00002504,0.00001271,-0.00
 000318,0.00002357,0.00001179,-0.00000659,-0.00001640,0.00000150,0.0000
 0211,0.00009796,-0.00003683,-0.00001229,-0.00004363,0.00004247,0.00000
 447,-0.00001206,-0.00000367,0.00000002,-0.00000403,0.00000159,0.000001
 53,0.00000129,-0.00000039,-0.00000188,0.00000078,-0.00000096,0.1090306
 9,-0.13831144,0.06010582,0.01914064,-0.01513902,0.00982778,-0.12084261
 ,0.14614174,-0.00000126,0.00008257,-0.00002030,0.00000255,-0.00004010,
 0.00001654,-0.00001833,0.00007983,0.00001740,0.00000774,-0.00026801,0.
 00007244,-0.00000078,0.00006781,-0.00003127,0.00000922,-0.00002753,-0.
 00001286,-0.00000239,0.00000714,0.00000133,-0.00000206,-0.00000396,0.0
 0000275,-0.00000008,0.00000393,-0.00000130,0.00017069,0.00042169,-0.00
 030662,-0.00017565,-0.00008430,0.00039747,0.00011272,-0.00054015,-0.00
 058022,-0.00038621,-0.00099941,-0.00113644,-0.00141633,-0.00118198,0.0
 0097328,0.00252219,0.00257330,-0.00306965,0.00012408,0.00007532,-0.000
 35389,-0.02194495,0.01731044,-0.01460324,0.00059984,0.00066774,0.00050
 511,-0.00003673,0.00042351,0.00022172,0.00000439,-0.00003249,-0.000012
 31,0.00001594,0.00001540,0.00002319,-0.00000230,-0.00010468,0.00003855
 ,0.00001186,0.00004552,-0.00004485,-0.00000383,0.00001275,0.00000471,-
 0.00000008,0.00000418,-0.00000126,-0.00000096,-0.00000092,-0.00000012,
 0.00000110,-0.00000082,0.00000046,-0.07098220,0.05930330,-0.08352336,0
 .01597840,-0.01184244,0.00889434,0.07672842,-0.06656054,0.09388265,0.0
 0000281,-0.00006770,0.00002103,0.00000198,0.00003742,-0.00001440,0.000
 01985,-0.00005744,-0.00001333,-0.00001863,0.00019806,-0.00003977,-0.00
 000309,-0.00005069,0.00002321,-0.00000681,0.00001959,0.00001033,-0.000
 00062,-0.00000292,-0.00000353,-0.00000134,0.00000236,-0.00000307,-0.00
 000073,-0.00000254,0.00000083,0.00006806,-0.00028940,0.00020732,0.0001
 6852,0.00021571,-0.00025529,-0.00035990,-0.00010222,-0.00018394,-0.000
 01552,0.00032428,0.00056472,0.00062512,-0.00118397,0.00178541,0.000471
 16,0.00103044,-0.00186592,-0.00000215,-0.00003023,0.00003841,-0.007756
 46,-0.00320589,-0.00028192,0.00039734,0.00016095,-0.00004939,0.0007586
 8,-0.00029066,0.00008611,-0.00001096,0.00001861,0.00000514,-0.00005568
 ,-0.00001608,0.00017281,0.00000126,0.00009438,-0.00003934,-0.00001025,
 -0.00004223,0.00004472,0.00000225,-0.00001111,-0.00000467,-0.00000021,
 -0.00000397,0.00000159,0.00000159,0.00000159,0.00000058,-0.00000123,0.
 00000109,-0.00000129,-0.23816585,-0.11884413,-0.01389227,0.00568354,0.
 00323638,-0.00024048,-0.01852880,-0.01288041,-0.00131501,0.25673605,0.
 00000351,-0.00005993,0.00001510,0.00000342,0.00002848,-0.00001000,0.00
 001908,-0.00005580,-0.00001238,-0.00000321,0.00018630,-0.00006092,-0.0
 0000443,-0.00004378,0.00002193,-0.00000507,0.00002041,0.00000901,-0.00
 000252,-0.00000572,-0.00000348,-0.00000054,0.00000275,-0.00000375,-0.0
 0000014,-0.00000187,0.00000081,-0.00001186,-0.00018628,0.00024652,0.00
 049670,0.00011596,-0.00001972,-0.00059490,0.00053858,-0.00060819,-0.00
 008592,-0.00010619,0.00027003,-0.00003161,-0.00009654,0.00252252,-0.00
 057844,0.00046256,-0.00111607,0.00001061,-0.00003743,-0.00000355,-0.00
 814803,-0.00563594,-0.00180824,0.00002286,-0.00019321,-0.00015467,0.00
 064298,0.00007935,0.00061436,-0.00001536,0.00001967,0.00000298,-0.0000
 0546,-0.00013813,0.00011013,-0.00000162,0.00007978,-0.00002755,-0.0000
 0615,-0.00003473,0.00003205,0.00000127,-0.00001104,-0.00000462,0.00000
 005,-0.00000327,0.00000114,0.00000091,0.00000095,0.00000066,-0.0000003
 2,0.00000074,-0.00000066,-0.11861604,-0.12345569,-0.00687314,-0.021979
 93,-0.01318020,-0.00140473,0.01714944,0.01229876,0.00059289,0.13174073
 ,0.12941144,-0.00000123,0.00002341,-0.00000424,-0.00000209,-0.00001086
 ,0.00000205,-0.00000376,0.00002547,0.00000613,-0.00000898,-0.00009202,
 0.00003943,0.00000147,0.00001825,-0.00000850,0.00000324,-0.00000920,-0
 .00000196,-0.00000063,0.00000407,-0.00000035,0.00000065,-0.00000082,0.
 00000172,-0.00000034,0.00000119,-0.00000040,-0.00005839,0.00005040,-0.
 00016860,-0.00007453,0.00004494,0.00020181,0.00153421,-0.00002915,0.00
 014344,0.00009778,-0.00007957,0.00009621,0.00004992,0.00225126,-0.0054
 2684,0.00166222,-0.00002251,0.00104799,-0.00001850,-0.00004360,0.00003
 920,0.02727724,0.01649088,0.00162276,0.00007730,0.00012511,0.00003646,
 -0.00093860,0.00012040,-0.00064738,0.00000725,-0.00001349,-0.00000318,
 0.00011491,0.00008950,-0.00040988,0.00000100,-0.00002520,0.00000740,0.
 00000207,0.00001025,-0.00000865,-0.00000108,0.00000345,0.00000092,-0.0
 0000019,0.00000091,0.,0.00000023,0.00000004,0.,-0.00000003,0.00000017,
 -0.00000012,-0.01690546,-0.00900751,-0.04965418,-0.01850901,-0.0098533
 8,-0.00115720,-0.00954805,-0.00774392,-0.00135425,0.01524138,0.0076715
 2,0.05560024\\0.00000086,0.00000236,-0.00000231,0.00000022,-0.00000212
 ,0.00000048,-0.00000024,0.00000166,-0.00000006,-0.00000102,-0.00000133
 ,-0.00000041,-0.00000042,0.00000004,0.00000052,-0.00000004,-0.00000030
 ,0.00000026,0.00000075,0.00000018,0.00000023,-0.00000039,-0.00000007,-
 0.00000021,-0.00000018,-0.00000026,-0.00000039,-0.00000186,0.00000178,
 0.00000003,0.00000607,-0.00000058,0.00000082,-0.00000124,0.00000079,-0
 .00000553,-0.00000312,-0.00000150,0.00000426,-0.00000326,-0.00000281,0
 .00000229,-0.00000222,0.00000239,-0.00000306,-0.00000010,0.00000027,-0
 .00000055,0.00000543,0.00000040,0.00000181,0.00000005,-0.00000053,-0.0
 0000064,-0.00000008,0.00000003,0.00000020,-0.00000026,0.00000094,-0.00
 000065,-0.00000026,-0.00000115,0.00000125,0.00000096,-0.00000185,0.000
 00142,0.00000013,-0.00000005,-0.00000021,-0.00000060,0.00000086,-0.000
 00145,0.00000033,-0.00000013,-0.00000011,0.00000101,-0.00000071,0.0000
 0090,0.00000096,0.00000107,0.00000091,0.00000075,-0.00000092,-0.000000
 30,-0.00000148,0.00000070,-0.00000006,-0.00000038,0.00000115,0.0000001
 0,-0.00000035,-0.00000031,0.00000043\\\@


 REALITY IS FOR PEOPLE WHO CAN'T FACE SCIENCE FICTION.
 Job cpu time:       0 days  3 hours 12 minutes  6.1 seconds.
 Elapsed time:       0 days  0 hours  6 minutes 24.3 seconds.
 File lengths (MBytes):  RWF=    393 Int=      0 D2E=      0 Chk=     14 Scr=      1
 Normal termination of Gaussian 16 at Fri Sep 15 06:04:09 2023.
