 Entering Gaussian System, Link 0=/home/ubuntu/g16/g16
 Input=/home/ubuntu/products/molecule_31.gjf
 Output=/home/ubuntu/products/molecule_31.log
 Initial command:
 /home/ubuntu/g16/l1.exe "/home/ubuntu/Scratch/Gau-24421.inp" -scrdir="/home/ubuntu/Scratch/"
 Entering Link 1 = /home/ubuntu/g16/l1.exe PID=     24423.
  
 Copyright (c) 1988-2017, Gaussian, Inc.  All Rights Reserved.
  
 This is part of the Gaussian(R) 16 program.  It is based on
 the Gaussian(R) 09 system (copyright 2009, Gaussian, Inc.),
 the Gaussian(R) 03 system (copyright 2003, Gaussian, Inc.),
 the Gaussian(R) 98 system (copyright 1998, Gaussian, Inc.),
 the Gaussian(R) 94 system (copyright 1995, Gaussian, Inc.),
 the Gaussian 92(TM) system (copyright 1992, Gaussian, Inc.),
 the Gaussian 90(TM) system (copyright 1990, Gaussian, Inc.),
 the Gaussian 88(TM) system (copyright 1988, Gaussian, Inc.),
 the Gaussian 86(TM) system (copyright 1986, Carnegie Mellon
 University), and the Gaussian 82(TM) system (copyright 1983,
 Carnegie Mellon University). Gaussian is a federally registered
 trademark of Gaussian, Inc.
  
 This software contains proprietary and confidential information,
 including trade secrets, belonging to Gaussian, Inc.
  
 This software is provided under written license and may be
 used, copied, transmitted, or stored only in accord with that
 written license.
  
 The following legend is applicable only to US Government
 contracts under FAR:
  
                    RESTRICTED RIGHTS LEGEND
  
 Use, reproduction and disclosure by the US Government is
 subject to restrictions as set forth in subparagraphs (a)
 and (c) of the Commercial Computer Software - Restricted
 Rights clause in FAR 52.227-19.
  
 Gaussian, Inc.
 340 Quinnipiac St., Bldg. 40, Wallingford CT 06492
  
  
 ---------------------------------------------------------------
 Warning -- This program may not be used in any manner that
 competes with the business of Gaussian, Inc. or will provide
 assistance to any competitor of Gaussian, Inc.  The licensee
 of this program is prohibited from giving any competitor of
 Gaussian, Inc. access to this program.  By using this program,
 the user acknowledges that Gaussian, Inc. is engaged in the
 business of creating and licensing software in the field of
 computational chemistry and represents and warrants to the
 licensee that it is not a competitor of Gaussian, Inc. and that
 it will not use this program in any manner prohibited above.
 ---------------------------------------------------------------
  

 Cite this work as:
 Gaussian 16, Revision B.01,
 M. J. Frisch, G. W. Trucks, H. B. Schlegel, G. E. Scuseria, 
 M. A. Robb, J. R. Cheeseman, G. Scalmani, V. Barone, 
 G. A. Petersson, H. Nakatsuji, X. Li, M. Caricato, A. V. Marenich, 
 J. Bloino, B. G. Janesko, R. Gomperts, B. Mennucci, H. P. Hratchian, 
 J. V. Ortiz, A. F. Izmaylov, J. L. Sonnenberg, D. Williams-Young, 
 F. Ding, F. Lipparini, F. Egidi, J. Goings, B. Peng, A. Petrone, 
 T. Henderson, D. Ranasinghe, V. G. Zakrzewski, J. Gao, N. Rega, 
 G. Zheng, W. Liang, M. Hada, M. Ehara, K. Toyota, R. Fukuda, 
 J. Hasegawa, M. Ishida, T. Nakajima, Y. Honda, O. Kitao, H. Nakai, 
 T. Vreven, K. Throssell, J. A. Montgomery, Jr., J. E. Peralta, 
 F. Ogliaro, M. J. Bearpark, J. J. Heyd, E. N. Brothers, K. N. Kudin, 
 V. N. Staroverov, T. A. Keith, R. Kobayashi, J. Normand, 
 K. Raghavachari, A. P. Rendell, J. C. Burant, S. S. Iyengar, 
 J. Tomasi, M. Cossi, J. M. Millam, M. Klene, C. Adamo, R. Cammi, 
 J. W. Ochterski, R. L. Martin, K. Morokuma, O. Farkas, 
 J. B. Foresman, and D. J. Fox, Gaussian, Inc., Wallingford CT, 2016.
 
 ******************************************
 Gaussian 16:  EM64L-G16RevB.01 20-Dec-2017
                18-Sep-2023 
 ******************************************
 %nprocshared=30
 Will use up to   30 processors via shared memory.
 %mem=30GB
 %chk=molecule_31.chk
 ---------------------------------------------------------
 # opt freq b3lyp/6-31+g(d) empiricaldispersion=gd3 volume
 ---------------------------------------------------------
 1/18=20,19=15,26=3,38=1/1,3;
 2/9=110,12=2,17=6,18=5,40=1/2;
 3/5=1,6=6,7=11,11=2,25=1,30=1,71=1,74=-5,124=31/1,2,3;
 4//1;
 5/5=2,38=5/2;
 6/7=2,8=2,9=2,10=2,28=1,44=1/1,4;
 7//1,2,3,16;
 1/18=20,19=15,26=3/3(2);
 2/9=110/2;
 99//99;
 2/9=110/2;
 3/5=1,6=6,7=11,11=2,25=1,30=1,71=1,74=-5,124=31/1,2,3;
 4/5=5,16=3,69=1/1;
 5/5=2,38=5/2;
 7//1,2,3,16;
 1/18=20,19=15,26=3/3(-5);
 2/9=110/2;
 6/7=2,8=2,9=2,10=2,19=2,28=1,44=1/1,4;
 99/9=1/99;
 -------------------
 Title Card Required
 -------------------
 Symbolic Z-matrix:
 Charge =  0 Multiplicity = 1
 C                     4.16503   1.15617   0.00044 
 C                     2.77132   1.20731   0.00034 
 C                     2.03833  -0.00013   0.00004 
 C                     2.77155  -1.20741  -0.00027 
 C                     4.16525  -1.15596  -0.00032 
 H                     4.75093   2.06927   0.00053 
 H                     2.25292   2.15912   0.00048 
 H                     2.25336  -2.15933  -0.00054 
 H                     4.75133  -2.06895  -0.00064 
 C                     0.6155   -0.00029  -0.00016 
 C                    -0.60427  -0.00004  -0.00023 
 C                    -2.02962  -0.00002  -0.00014 
 C                    -2.74735   1.21729  -0.00035 
 C                    -2.74738  -1.21727   0.00026 
 C                    -4.14289   1.21241  -0.00027 
 H                    -2.20016   2.15378  -0.00061 
 C                    -4.14296  -1.21233   0.00041 
 H                    -2.20027  -2.1538    0.00048 
 C                    -4.84512   0.00003   0.00012 
 H                    -4.68364   2.1533   -0.00043 
 H                    -4.68364  -2.15327   0.00074 
 H                    -5.9303    0.00013   0.00025 
 N                     4.8693    0.00017   0.00007 
 

 GradGradGradGradGradGradGradGradGradGradGradGradGradGradGradGradGradGrad
 Berny optimization.
 Initialization pass.
                           ----------------------------
                           !    Initial Parameters    !
                           ! (Angstroms and Degrees)  !
 --------------------------                            --------------------------
 ! Name  Definition              Value          Derivative Info.                !
 --------------------------------------------------------------------------------
 ! R1    R(1,2)                  1.3947         estimate D2E/DX2                !
 ! R2    R(1,6)                  1.0849         estimate D2E/DX2                !
 ! R3    R(1,23)                 1.3536         estimate D2E/DX2                !
 ! R4    R(2,3)                  1.4125         estimate D2E/DX2                !
 ! R5    R(2,7)                  1.0838         estimate D2E/DX2                !
 ! R6    R(3,4)                  1.4125         estimate D2E/DX2                !
 ! R7    R(3,10)                 1.4228         estimate D2E/DX2                !
 ! R8    R(4,5)                  1.3946         estimate D2E/DX2                !
 ! R9    R(4,8)                  1.0838         estimate D2E/DX2                !
 ! R10   R(5,9)                  1.0849         estimate D2E/DX2                !
 ! R11   R(5,23)                 1.3536         estimate D2E/DX2                !
 ! R12   R(10,11)                1.2198         estimate D2E/DX2                !
 ! R13   R(11,12)                1.4254         estimate D2E/DX2                !
 ! R14   R(12,13)                1.4132         estimate D2E/DX2                !
 ! R15   R(12,14)                1.4131         estimate D2E/DX2                !
 ! R16   R(13,15)                1.3955         estimate D2E/DX2                !
 ! R17   R(13,16)                1.0846         estimate D2E/DX2                !
 ! R18   R(14,17)                1.3956         estimate D2E/DX2                !
 ! R19   R(14,18)                1.0846         estimate D2E/DX2                !
 ! R20   R(15,19)                1.4011         estimate D2E/DX2                !
 ! R21   R(15,20)                1.0852         estimate D2E/DX2                !
 ! R22   R(17,19)                1.401          estimate D2E/DX2                !
 ! R23   R(17,21)                1.0852         estimate D2E/DX2                !
 ! R24   R(19,22)                1.0852         estimate D2E/DX2                !
 ! A1    A(2,1,6)              120.585          estimate D2E/DX2                !
 ! A2    A(2,1,23)             123.4528         estimate D2E/DX2                !
 ! A3    A(6,1,23)             115.9622         estimate D2E/DX2                !
 ! A4    A(1,2,3)              119.1586         estimate D2E/DX2                !
 ! A5    A(1,2,7)              120.6762         estimate D2E/DX2                !
 ! A6    A(3,2,7)              120.1651         estimate D2E/DX2                !
 ! A7    A(2,3,4)              117.4682         estimate D2E/DX2                !
 ! A8    A(2,3,10)             121.2666         estimate D2E/DX2                !
 ! A9    A(4,3,10)             121.2653         estimate D2E/DX2                !
 ! A10   A(3,4,5)              119.1575         estimate D2E/DX2                !
 ! A11   A(3,4,8)              120.1658         estimate D2E/DX2                !
 ! A12   A(5,4,8)              120.6767         estimate D2E/DX2                !
 ! A13   A(4,5,9)              120.584          estimate D2E/DX2                !
 ! A14   A(4,5,23)             123.4543         estimate D2E/DX2                !
 ! A15   A(9,5,23)             115.9617         estimate D2E/DX2                !
 ! A16   A(11,12,13)           120.5244         estimate D2E/DX2                !
 ! A17   A(11,12,14)           120.5253         estimate D2E/DX2                !
 ! A18   A(13,12,14)           118.9503         estimate D2E/DX2                !
 ! A19   A(12,13,15)           120.3232         estimate D2E/DX2                !
 ! A20   A(12,13,16)           119.1782         estimate D2E/DX2                !
 ! A21   A(15,13,16)           120.4987         estimate D2E/DX2                !
 ! A22   A(12,14,17)           120.323          estimate D2E/DX2                !
 ! A23   A(12,14,18)           119.1811         estimate D2E/DX2                !
 ! A24   A(17,14,18)           120.4958         estimate D2E/DX2                !
 ! A25   A(13,15,19)           120.2808         estimate D2E/DX2                !
 ! A26   A(13,15,20)           119.6864         estimate D2E/DX2                !
 ! A27   A(19,15,20)           120.0328         estimate D2E/DX2                !
 ! A28   A(14,17,19)           120.2808         estimate D2E/DX2                !
 ! A29   A(14,17,21)           119.6798         estimate D2E/DX2                !
 ! A30   A(19,17,21)           120.0394         estimate D2E/DX2                !
 ! A31   A(15,19,17)           119.8418         estimate D2E/DX2                !
 ! A32   A(15,19,22)           120.0751         estimate D2E/DX2                !
 ! A33   A(17,19,22)           120.0831         estimate D2E/DX2                !
 ! A34   A(1,23,5)             117.3086         estimate D2E/DX2                !
 ! A35   L(3,10,11,7,-1)       179.9821         estimate D2E/DX2                !
 ! A36   L(10,11,12,18,-1)     179.9891         estimate D2E/DX2                !
 ! A37   L(3,10,11,7,-2)       180.0058         estimate D2E/DX2                !
 ! A38   L(10,11,12,18,-2)     179.9912         estimate D2E/DX2                !
 ! D1    D(6,1,2,3)            179.9913         estimate D2E/DX2                !
 ! D2    D(6,1,2,7)             -0.0076         estimate D2E/DX2                !
 ! D3    D(23,1,2,3)             0.0098         estimate D2E/DX2                !
 ! D4    D(23,1,2,7)          -179.989          estimate D2E/DX2                !
 ! D5    D(2,1,23,5)            -0.005          estimate D2E/DX2                !
 ! D6    D(6,1,23,5)          -179.9872         estimate D2E/DX2                !
 ! D7    D(1,2,3,4)             -0.0058         estimate D2E/DX2                !
 ! D8    D(1,2,3,10)          -179.9957         estimate D2E/DX2                !
 ! D9    D(7,2,3,4)            179.993          estimate D2E/DX2                !
 ! D10   D(7,2,3,10)             0.0031         estimate D2E/DX2                !
 ! D11   D(2,3,4,5)             -0.0022         estimate D2E/DX2                !
 ! D12   D(2,3,4,8)           -179.9983         estimate D2E/DX2                !
 ! D13   D(10,3,4,5)           179.9877         estimate D2E/DX2                !
 ! D14   D(10,3,4,8)            -0.0084         estimate D2E/DX2                !
 ! D15   D(2,3,12,13)            0.021          estimate D2E/DX2                !
 ! D16   D(2,3,12,14)         -179.9667         estimate D2E/DX2                !
 ! D17   D(4,3,12,13)         -179.9752         estimate D2E/DX2                !
 ! D18   D(4,3,12,14)            0.0372         estimate D2E/DX2                !
 ! D19   D(3,4,5,9)           -179.9952         estimate D2E/DX2                !
 ! D20   D(3,4,5,23)             0.0073         estimate D2E/DX2                !
 ! D21   D(8,4,5,9)              0.0009         estimate D2E/DX2                !
 ! D22   D(8,4,5,23)          -179.9966         estimate D2E/DX2                !
 ! D23   D(4,5,23,1)            -0.0038         estimate D2E/DX2                !
 ! D24   D(9,5,23,1)           179.9986         estimate D2E/DX2                !
 ! D25   D(11,12,13,15)       -180.0            estimate D2E/DX2                !
 ! D26   D(11,12,13,16)          0.0016         estimate D2E/DX2                !
 ! D27   D(14,12,13,15)         -0.0049         estimate D2E/DX2                !
 ! D28   D(14,12,13,16)        179.9966         estimate D2E/DX2                !
 ! D29   D(11,12,14,17)        179.997          estimate D2E/DX2                !
 ! D30   D(11,12,14,18)         -0.0018         estimate D2E/DX2                !
 ! D31   D(13,12,14,17)          0.002          estimate D2E/DX2                !
 ! D32   D(13,12,14,18)       -179.9968         estimate D2E/DX2                !
 ! D33   D(12,13,15,19)          0.0042         estimate D2E/DX2                !
 ! D34   D(12,13,15,20)        179.9999         estimate D2E/DX2                !
 ! D35   D(16,13,15,19)       -179.9974         estimate D2E/DX2                !
 ! D36   D(16,13,15,20)         -0.0017         estimate D2E/DX2                !
 ! D37   D(12,14,17,19)          0.0017         estimate D2E/DX2                !
 ! D38   D(12,14,17,21)       -179.999          estimate D2E/DX2                !
 ! D39   D(18,14,17,19)       -179.9995         estimate D2E/DX2                !
 ! D40   D(18,14,17,21)         -0.0003         estimate D2E/DX2                !
 ! D41   D(13,15,19,17)         -0.0005         estimate D2E/DX2                !
 ! D42   D(13,15,19,22)        179.9965         estimate D2E/DX2                !
 ! D43   D(20,15,19,17)       -179.9962         estimate D2E/DX2                !
 ! D44   D(20,15,19,22)          0.0009         estimate D2E/DX2                !
 ! D45   D(14,17,19,15)         -0.0025         estimate D2E/DX2                !
 ! D46   D(14,17,19,22)       -179.9995         estimate D2E/DX2                !
 ! D47   D(21,17,19,15)        179.9983         estimate D2E/DX2                !
 ! D48   D(21,17,19,22)          0.0012         estimate D2E/DX2                !
 --------------------------------------------------------------------------------
 Trust Radius=3.00D-01 FncErr=1.00D-07 GrdErr=1.00D-06 EigMax=2.50D+02 EigMin=1.00D-04
 Number of steps in this run=    120 maximum allowed number of steps=    138.
 GradGradGradGradGradGradGradGradGradGradGradGradGradGradGradGradGradGrad

                          Input orientation:                          
 ---------------------------------------------------------------------
 Center     Atomic      Atomic             Coordinates (Angstroms)
 Number     Number       Type             X           Y           Z
 ---------------------------------------------------------------------
      1          6           0        4.165028    1.156166    0.000440
      2          6           0        2.771316    1.207310    0.000342
      3          6           0        2.038331   -0.000127    0.000042
      4          6           0        2.771553   -1.207411   -0.000272
      5          6           0        4.165247   -1.155963   -0.000318
      6          1           0        4.750931    2.069273    0.000527
      7          1           0        2.252919    2.159119    0.000475
      8          1           0        2.253359   -2.159326   -0.000537
      9          1           0        4.751331   -2.068948   -0.000635
     10          6           0        0.615497   -0.000285   -0.000159
     11          6           0       -0.604265   -0.000040   -0.000233
     12          6           0       -2.029618   -0.000024   -0.000144
     13          6           0       -2.747352    1.217294   -0.000354
     14          6           0       -2.747375   -1.217273    0.000263
     15          6           0       -4.142887    1.212409   -0.000265
     16          1           0       -2.200157    2.153777   -0.000611
     17          6           0       -4.142961   -1.212331    0.000412
     18          1           0       -2.200267   -2.153801    0.000478
     19          6           0       -4.845119    0.000031    0.000123
     20          1           0       -4.683640    2.153304   -0.000427
     21          1           0       -4.683643   -2.153265    0.000741
     22          1           0       -5.930295    0.000129    0.000248
     23          7           0        4.869299    0.000172    0.000068
 ---------------------------------------------------------------------
                    Distance matrix (angstroms):
                    1          2          3          4          5
     1  C    0.000000
     2  C    1.394650   0.000000
     3  C    2.420713   1.412505   0.000000
     4  C    2.743769   2.414721   1.412498   0.000000
     5  C    2.312129   2.743739   2.420688   1.394643   0.000000
     6  H    1.084918   2.159133   3.411835   3.828132   3.277983
     7  H    2.159184   1.083825   2.169883   3.406245   3.827110
     8  H    3.827136   3.406247   2.169880   1.083821   2.159179
     9  H    3.277974   3.828097   3.411802   2.159113   1.084913
    10  C    3.733169   2.471000   1.422834   2.470978   3.733138
    11  C    4.907440   3.585002   2.642596   3.585232   4.907586
    12  C    6.301620   4.950416   4.067949   4.950659   6.301789
    13  C    6.912650   5.518677   4.938104   6.028060   7.308651
    14  C    7.308524   6.027815   4.938059   5.518937   6.912894
    15  C    8.308105   6.914205   6.299024   7.325641   8.639113
    16  H    6.442888   5.060765   4.754375   6.001290   7.174451
    17  C    8.639008   7.325428   6.299032   6.914516   8.308399
    18  H    7.174459   6.001142   4.754369   5.061092   6.443248
    19  C    9.084019   7.711524   6.883450   7.711784   9.084218
    20  H    8.904674   7.514737   7.058481   8.177671   9.447436
    21  H    9.447291   8.177400   7.058395   7.514958   8.904913
    22  H   10.161298   8.784948   7.968626   8.785233  10.161521
    23  N    1.353632   2.420478   2.830968   2.420495   1.353639
                    6          7          8          9         10
     6  H    0.000000
     7  H    2.499627   0.000000
     8  H    4.911101   4.318445   0.000000
     9  H    4.138221   4.911071   2.499606   0.000000
    10  C    4.624379   2.710014   2.709991   4.624337   0.000000
    11  C    5.741096   3.581266   3.581694   5.741323   1.219762
    12  C    7.089276   4.796042   4.796507   7.089550   2.645115
    13  C    7.546530   5.088197   6.033960   8.187163   3.576486
    14  C    8.186939   6.033487   5.088694   7.546916   3.576306
    15  C    8.934999   6.465493   7.230530   9.480212   4.910483
    16  H    6.951602   4.453079   6.199731   8.133547   3.545122
    17  C    9.479992   7.230073   6.466043   8.935448   4.910395
    18  H    8.133481   6.199366   4.453630   6.952116   3.544878
    19  C    9.816615   7.419151   7.419650   9.816951   5.460616
    20  H    9.434945   6.936561   8.168276  10.336638   5.720035
    21  H   10.336393   8.167775   6.937005   9.435351   5.719808
    22  H   10.879795   8.463228   8.463772  10.880175   6.545792
    23  N    2.072484   3.392123   3.392134   2.072480   4.253802
                   11         12         13         14         15
    11  C    0.000000
    12  C    1.425353   0.000000
    13  C    2.464696   1.413154   0.000000
    14  C    2.464666   1.413107   2.434567   0.000000
    15  C    3.740572   2.436370   1.395544   2.801929   0.000000
    16  H    2.680634   2.160542   1.084630   3.415176   2.158790
    17  C    3.740591   2.436372   2.801928   1.395595   2.424740
    18  H    2.680655   2.160527   3.415199   1.084625   3.886534
    19  C    4.240854   2.815501   2.425357   2.425357   1.401068
    20  H    4.612829   3.417697   2.150657   3.887147   1.085218
    21  H    4.612776   3.417645   3.887144   2.150631   3.408838
    22  H    5.326030   3.900677   3.407729   3.407792   2.159734
    23  N    5.473564   6.898917   7.713285   7.713358   9.093350
                   16         17         18         19         20
    16  H    0.000000
    17  C    3.886537   0.000000
    18  H    4.307578   2.158802   0.000000
    19  C    3.410930   1.401017   3.410899   0.000000
    20  H    2.483483   3.408788   4.971750   2.159319   0.000000
    21  H    4.971752   1.085216   2.483376   2.159342   4.306569
    22  H    4.307218   2.159774   4.307264   1.085176   2.488034
    23  N    7.390211   9.093459   7.390424   9.714418   9.792580
                   21         22         23
    21  H    0.000000
    22  H    2.488222   0.000000
    23  N    9.792650  10.799594   0.000000
 Stoichiometry    C13H9N
 Framework group  C1[X(C13H9N)]
 Deg. of freedom    63
 Full point group                 C1      NOp   1
 Largest Abelian subgroup         C1      NOp   1
 Largest concise Abelian subgroup C1      NOp   1
                         Standard orientation:                         
 ---------------------------------------------------------------------
 Center     Atomic      Atomic             Coordinates (Angstroms)
 Number     Number       Type             X           Y           Z
 ---------------------------------------------------------------------
      1          6           0        4.165028    1.156166    0.000440
      2          6           0        2.771316    1.207310    0.000342
      3          6           0        2.038331   -0.000127    0.000042
      4          6           0        2.771553   -1.207411   -0.000272
      5          6           0        4.165247   -1.155963   -0.000318
      6          1           0        4.750931    2.069273    0.000527
      7          1           0        2.252919    2.159119    0.000475
      8          1           0        2.253359   -2.159326   -0.000537
      9          1           0        4.751331   -2.068948   -0.000635
     10          6           0        0.615497   -0.000285   -0.000159
     11          6           0       -0.604265   -0.000040   -0.000233
     12          6           0       -2.029618   -0.000024   -0.000144
     13          6           0       -2.747352    1.217294   -0.000354
     14          6           0       -2.747375   -1.217273    0.000263
     15          6           0       -4.142887    1.212409   -0.000265
     16          1           0       -2.200157    2.153777   -0.000611
     17          6           0       -4.142961   -1.212331    0.000412
     18          1           0       -2.200267   -2.153801    0.000478
     19          6           0       -4.845119    0.000031    0.000123
     20          1           0       -4.683640    2.153304   -0.000427
     21          1           0       -4.683643   -2.153265    0.000741
     22          1           0       -5.930295    0.000129    0.000248
     23          7           0        4.869299    0.000172    0.000068
 ---------------------------------------------------------------------
 Rotational constants (GHZ):           2.8941191           0.2452475           0.2260888
 Standard basis: 6-31+G(d) (6D, 7F)
 There are   284 symmetry adapted cartesian basis functions of A   symmetry.
 There are   284 symmetry adapted basis functions of A   symmetry.
   284 basis functions,   484 primitive gaussians,   284 cartesian basis functions
    47 alpha electrons       47 beta electrons
       nuclear repulsion energy       694.3121855274 Hartrees.
 NAtoms=   23 NActive=   23 NUniq=   23 SFac= 1.00D+00 NAtFMM=   60 NAOKFM=F Big=F
 Integral buffers will be    131072 words long.
 Raffenetti 2 integral format.
 Two-electron integral symmetry is turned on.
 Nuclear repulsion after empirical dispersion term =      694.2983946221 Hartrees.
 One-electron integrals computed using PRISM.
 NBasis=   284 RedAO= T EigKep=  3.23D-06  NBF=   284
 NBsUse=   280 1.00D-06 EigRej=  8.51D-07 NBFU=   280
 ExpMin= 4.38D-02 ExpMax= 4.17D+03 ExpMxC= 6.27D+02 IAcc=3 IRadAn=         5 AccDes= 0.00D+00
 Harris functional with IExCor=  402 and IRadAn=       5 diagonalized for initial guess.
 HarFok:  IExCor=  402 AccDes= 0.00D+00 IRadAn=         5 IDoV= 1 UseB2=F ITyADJ=14
 ICtDFT=  3500011 ScaDFX=  1.000000  1.000000  1.000000  1.000000
 FoFCou: FMM=F IPFlag=           0 FMFlag=      100000 FMFlg1=           0
         NFxFlg=           0 DoJE=T BraDBF=F KetDBF=T FulRan=T
         wScrn=  0.000000 ICntrl=       500 IOpCl=  0 I1Cent=   200000004 NGrid=           0
         NMat0=    1 NMatS0=      1 NMatT0=    0 NMatD0=    1 NMtDS0=    0 NMtDT0=    0
 Petite list used in FoFCou.
 Requested convergence on RMS density matrix=1.00D-08 within 128 cycles.
 Requested convergence on MAX density matrix=1.00D-06.
 Requested convergence on             energy=1.00D-06.
 No special actions if energy rises.
 SCF Done:  E(RB3LYP) =  -555.532623382     A.U. after   14 cycles
            NFock= 14  Conv=0.37D-08     -V/T= 2.0101

 **********************************************************************

            Population analysis using the SCF Density.

 **********************************************************************

 Orbital symmetries:
       Occupied  (A) (A) (A) (A) (A) (A) (A) (A) (A) (A) (A) (A)
                 (A) (A) (A) (A) (A) (A) (A) (A) (A) (A) (A) (A)
                 (A) (A) (A) (A) (A) (A) (A) (A) (A) (A) (A) (A)
                 (A) (A) (A) (A) (A) (A) (A) (A) (A) (A) (A)
       Virtual   (A) (A) (A) (A) (A) (A) (A) (A) (A) (A) (A) (A)
                 (A) (A) (A) (A) (A) (A) (A) (A) (A) (A) (A) (A)
                 (A) (A) (A) (A) (A) (A) (A) (A) (A) (A) (A) (A)
                 (A) (A) (A) (A) (A) (A) (A) (A) (A) (A) (A) (A)
                 (A) (A) (A) (A) (A) (A) (A) (A) (A) (A) (A) (A)
                 (A) (A) (A) (A) (A) (A) (A) (A) (A) (A) (A) (A)
                 (A) (A) (A) (A) (A) (A) (A) (A) (A) (A) (A) (A)
                 (A) (A) (A) (A) (A) (A) (A) (A) (A) (A) (A) (A)
                 (A) (A) (A) (A) (A) (A) (A) (A) (A) (A) (A) (A)
                 (A) (A) (A) (A) (A) (A) (A) (A) (A) (A) (A) (A)
                 (A) (A) (A) (A) (A) (A) (A) (A) (A) (A) (A) (A)
                 (A) (A) (A) (A) (A) (A) (A) (A) (A) (A) (A) (A)
                 (A) (A) (A) (A) (A) (A) (A) (A) (A) (A) (A) (A)
                 (A) (A) (A) (A) (A) (A) (A) (A) (A) (A) (A) (A)
                 (A) (A) (A) (A) (A) (A) (A) (A) (A) (A) (A) (A)
                 (A) (A) (A) (A) (A) (A) (A) (A) (A) (A) (A) (A)
                 (A) (A) (A) (A) (A) (A) (A) (A) (A) (A) (A) (A)
                 (A) (A) (A) (A) (A) (A) (A) (A) (A) (A) (A) (A)
                 (A) (A) (A) (A) (A) (A) (A) (A) (A) (A) (A) (A)
                 (A) (A) (A) (A) (A)
 The electronic state is 1-A.
 Alpha  occ. eigenvalues --  -14.34485 -10.24503 -10.23538 -10.23538 -10.23489
 Alpha  occ. eigenvalues --  -10.21508 -10.21507 -10.21476 -10.21475 -10.21325
 Alpha  occ. eigenvalues --  -10.21300 -10.21211 -10.21199 -10.20930  -0.94519
 Alpha  occ. eigenvalues --   -0.87787  -0.83797  -0.79522  -0.77288  -0.76572
 Alpha  occ. eigenvalues --   -0.74173  -0.66392  -0.64115  -0.62869  -0.62483
 Alpha  occ. eigenvalues --   -0.56446  -0.54508  -0.49917  -0.49551  -0.48619
 Alpha  occ. eigenvalues --   -0.47153  -0.45435  -0.44149  -0.44099  -0.44021
 Alpha  occ. eigenvalues --   -0.41113  -0.39393  -0.38077  -0.37655  -0.36704
 Alpha  occ. eigenvalues --   -0.34428  -0.29815  -0.28745  -0.27516  -0.27216
 Alpha  occ. eigenvalues --   -0.26725  -0.23610
 Alpha virt. eigenvalues --   -0.07644  -0.02844  -0.02665  -0.02106  -0.00364
 Alpha virt. eigenvalues --    0.00820   0.01547   0.02395   0.02668   0.03119
 Alpha virt. eigenvalues --    0.04269   0.04485   0.04811   0.05061   0.05256
 Alpha virt. eigenvalues --    0.06399   0.06784   0.07431   0.07474   0.08073
 Alpha virt. eigenvalues --    0.08531   0.09062   0.09243   0.09769   0.10352
 Alpha virt. eigenvalues --    0.10607   0.12725   0.13128   0.13514   0.13521
 Alpha virt. eigenvalues --    0.13780   0.14230   0.14320   0.14903   0.15609
 Alpha virt. eigenvalues --    0.15812   0.16007   0.16456   0.16779   0.16874
 Alpha virt. eigenvalues --    0.18569   0.18977   0.19656   0.19702   0.20627
 Alpha virt. eigenvalues --    0.20717   0.21700   0.21813   0.22656   0.22829
 Alpha virt. eigenvalues --    0.22958   0.23576   0.23794   0.23841   0.25089
 Alpha virt. eigenvalues --    0.25197   0.25780   0.26623   0.26894   0.26971
 Alpha virt. eigenvalues --    0.27072   0.27532   0.28463   0.29887   0.30601
 Alpha virt. eigenvalues --    0.30785   0.32268   0.32394   0.33065   0.33160
 Alpha virt. eigenvalues --    0.33718   0.34926   0.35187   0.37013   0.37455
 Alpha virt. eigenvalues --    0.37691   0.40518   0.40900   0.45793   0.54696
 Alpha virt. eigenvalues --    0.55260   0.56887   0.58579   0.63006   0.65116
 Alpha virt. eigenvalues --    0.66557   0.66921   0.67699   0.69279   0.69299
 Alpha virt. eigenvalues --    0.69830   0.69898   0.70669   0.72129   0.72373
 Alpha virt. eigenvalues --    0.72699   0.72905   0.74073   0.74438   0.74619
 Alpha virt. eigenvalues --    0.74934   0.75913   0.77545   0.79140   0.80128
 Alpha virt. eigenvalues --    0.80385   0.82307   0.85161   0.86091   0.86099
 Alpha virt. eigenvalues --    0.88603   0.90836   0.91069   0.92837   0.93574
 Alpha virt. eigenvalues --    0.93646   0.95118   0.97305   0.97759   0.98063
 Alpha virt. eigenvalues --    1.00339   1.01492   1.01600   1.04353   1.06303
 Alpha virt. eigenvalues --    1.07602   1.09403   1.09972   1.12781   1.12866
 Alpha virt. eigenvalues --    1.13625   1.15233   1.16993   1.17852   1.18970
 Alpha virt. eigenvalues --    1.22880   1.23109   1.23282   1.24454   1.24826
 Alpha virt. eigenvalues --    1.26749   1.28920   1.32150   1.32164   1.37248
 Alpha virt. eigenvalues --    1.41406   1.41546   1.42606   1.43533   1.43939
 Alpha virt. eigenvalues --    1.44302   1.45609   1.47045   1.48888   1.49590
 Alpha virt. eigenvalues --    1.49966   1.50475   1.55049   1.56906   1.59003
 Alpha virt. eigenvalues --    1.66839   1.75187   1.77467   1.83732   1.84206
 Alpha virt. eigenvalues --    1.86119   1.87655   1.89232   1.89310   1.89516
 Alpha virt. eigenvalues --    1.90031   1.94537   1.97898   1.98855   1.99552
 Alpha virt. eigenvalues --    2.06247   2.06691   2.07196   2.09940   2.12355
 Alpha virt. eigenvalues --    2.13437   2.14150   2.14493   2.19850   2.19952
 Alpha virt. eigenvalues --    2.21271   2.21677   2.22899   2.27388   2.27895
 Alpha virt. eigenvalues --    2.29065   2.30127   2.32321   2.38159   2.46354
 Alpha virt. eigenvalues --    2.49906   2.50916   2.58318   2.60363   2.62178
 Alpha virt. eigenvalues --    2.62734   2.63763   2.65000   2.66084   2.71907
 Alpha virt. eigenvalues --    2.72912   2.73183   2.76034   2.76682   2.79436
 Alpha virt. eigenvalues --    2.83492   2.90603   2.93750   2.97757   3.05087
 Alpha virt. eigenvalues --    3.26681   3.30976   3.38536   3.57982   4.16347
 Alpha virt. eigenvalues --    4.21022   4.22862   4.23150   4.25510   4.26236
 Alpha virt. eigenvalues --    4.33366   4.38036   4.38477   4.38936   4.50311
 Alpha virt. eigenvalues --    4.58186   4.74401   4.96942
          Condensed to atoms (all electrons):
               1          2          3          4          5          6
     1  C    7.123245  -2.789048   0.658979   0.963224  -0.274332   0.470833
     2  C   -2.789048  12.308760  -0.887446  -4.071287   0.962733  -0.193571
     3  C    0.658979  -0.887446   7.369595  -0.886601   0.658518   0.054562
     4  C    0.963224  -4.071287  -0.886601  12.308287  -2.788343  -0.010141
     5  C   -0.274332   0.962733   0.658518  -2.788343   7.122681   0.025760
     6  H    0.470833  -0.193571   0.054562  -0.010141   0.025760   0.549900
     7  H   -0.039979   0.338805  -0.049057  -0.008005   0.004930  -0.001840
     8  H    0.004930  -0.008012  -0.049063   0.338881  -0.040039   0.000020
     9  H    0.025769  -0.010168   0.054549  -0.193496   0.470780  -0.000039
    10  C    0.077856   0.025452  -0.148360   0.025696   0.077963   0.006854
    11  C   -0.004352   0.065849  -0.843821   0.064426  -0.003840  -0.000395
    12  C    0.059928  -0.169808   0.386516  -0.169732   0.059869   0.000176
    13  C   -0.050763   0.373453  -0.206874  -0.288944   0.034694   0.000099
    14  C    0.034666  -0.288983  -0.206091   0.373428  -0.050768  -0.000037
    15  C    0.017286  -0.110639   0.112798   0.079962  -0.014231   0.000012
    16  H    0.000045   0.000735   0.000594   0.000107  -0.000013   0.000000
    17  C   -0.014240   0.080012   0.112708  -0.110680   0.017278  -0.000003
    18  H   -0.000013   0.000108   0.000595   0.000736   0.000045   0.000000
    19  C    0.000506  -0.000863  -0.009350  -0.000854   0.000505   0.000000
    20  H    0.000001   0.000045  -0.000114  -0.000016   0.000000   0.000000
    21  H    0.000000  -0.000016  -0.000114   0.000045   0.000001   0.000000
    22  H    0.000000  -0.000001  -0.000010  -0.000001   0.000000   0.000000
    23  N    0.161405   0.105096  -0.042813   0.104815   0.161558  -0.087427
               7          8          9         10         11         12
     1  C   -0.039979   0.004930   0.025769   0.077856  -0.004352   0.059928
     2  C    0.338805  -0.008012  -0.010168   0.025452   0.065849  -0.169808
     3  C   -0.049057  -0.049063   0.054549  -0.148360  -0.843821   0.386516
     4  C   -0.008005   0.338881  -0.193496   0.025696   0.064426  -0.169732
     5  C    0.004930  -0.040039   0.470780   0.077963  -0.003840   0.059869
     6  H   -0.001840   0.000020  -0.000039   0.006854  -0.000395   0.000176
     7  H    0.516528  -0.000113   0.000020   0.028014   0.006090   0.001602
     8  H   -0.000113   0.516536  -0.001841   0.028025   0.006076   0.001602
     9  H    0.000020  -0.001841   0.549902   0.006862  -0.000393   0.000176
    10  C    0.028014   0.028025   0.006862   5.934739   0.485673  -0.516130
    11  C    0.006090   0.006076  -0.000393   0.485673   6.365065   0.067135
    12  C    0.001602   0.001602   0.000176  -0.516130   0.067135   6.756835
    13  C    0.001245   0.000243  -0.000037   0.104445   0.094297  -0.650400
    14  C    0.000245   0.001243   0.000099   0.105166   0.093666  -0.651159
    15  C   -0.000554   0.000034  -0.000003  -0.080582  -0.073025   0.381543
    16  H    0.000002   0.000000   0.000000  -0.000051   0.024883  -0.020567
    17  C    0.000034  -0.000554   0.000012  -0.080973  -0.073011   0.382125
    18  H    0.000000   0.000002   0.000000  -0.000039   0.024871  -0.020571
    19  C    0.000036   0.000036   0.000000  -0.001745  -0.162774   0.105089
    20  H    0.000000   0.000000   0.000000  -0.000303  -0.005891   0.007940
    21  H    0.000000   0.000000   0.000000  -0.000303  -0.005889   0.007934
    22  H    0.000000   0.000000   0.000000   0.000161   0.000073   0.001643
    23  N    0.004823   0.004822  -0.087425  -0.015513  -0.003344  -0.002244
              13         14         15         16         17         18
     1  C   -0.050763   0.034666   0.017286   0.000045  -0.014240  -0.000013
     2  C    0.373453  -0.288983  -0.110639   0.000735   0.080012   0.000108
     3  C   -0.206874  -0.206091   0.112798   0.000594   0.112708   0.000595
     4  C   -0.288944   0.373428   0.079962   0.000107  -0.110680   0.000736
     5  C    0.034694  -0.050768  -0.014231  -0.000013   0.017278   0.000045
     6  H    0.000099  -0.000037   0.000012   0.000000  -0.000003   0.000000
     7  H    0.001245   0.000245  -0.000554   0.000002   0.000034   0.000000
     8  H    0.000243   0.001243   0.000034   0.000000  -0.000554   0.000002
     9  H   -0.000037   0.000099  -0.000003   0.000000   0.000012   0.000000
    10  C    0.104445   0.105166  -0.080582  -0.000051  -0.080973  -0.000039
    11  C    0.094297   0.093666  -0.073025   0.024883  -0.073011   0.024871
    12  C   -0.650400  -0.651159   0.381543  -0.020567   0.382125  -0.020571
    13  C   13.728244  -5.473592  -3.222571   0.315122   1.769021   0.018870
    14  C   -5.473592  13.730421   1.768583   0.018870  -3.224804   0.315068
    15  C   -3.222571   1.768583   7.279355  -0.058385  -0.808785  -0.003334
    16  H    0.315122   0.018870  -0.058385   0.526900  -0.003341  -0.000142
    17  C    1.769021  -3.224804  -0.808785  -0.003341   7.280867  -0.058328
    18  H    0.018870   0.315068  -0.003334  -0.000142  -0.058328   0.526891
    19  C   -0.285703  -0.285977   0.561683   0.005708   0.561930   0.005707
    20  H   -0.032289   0.004965   0.299090  -0.004557   0.001026   0.000015
    21  H    0.004955  -0.032264   0.001030   0.000015   0.299069  -0.004558
    22  H    0.008558   0.008588  -0.002096  -0.000141  -0.002090  -0.000141
    23  N    0.000161   0.000163   0.000130  -0.000001   0.000130  -0.000001
              19         20         21         22         23
     1  C    0.000506   0.000001   0.000000   0.000000   0.161405
     2  C   -0.000863   0.000045  -0.000016  -0.000001   0.105096
     3  C   -0.009350  -0.000114  -0.000114  -0.000010  -0.042813
     4  C   -0.000854  -0.000016   0.000045  -0.000001   0.104815
     5  C    0.000505   0.000000   0.000001   0.000000   0.161558
     6  H    0.000000   0.000000   0.000000   0.000000  -0.087427
     7  H    0.000036   0.000000   0.000000   0.000000   0.004823
     8  H    0.000036   0.000000   0.000000   0.000000   0.004822
     9  H    0.000000   0.000000   0.000000   0.000000  -0.087425
    10  C   -0.001745  -0.000303  -0.000303   0.000161  -0.015513
    11  C   -0.162774  -0.005891  -0.005889   0.000073  -0.003344
    12  C    0.105089   0.007940   0.007934   0.001643  -0.002244
    13  C   -0.285703  -0.032289   0.004955   0.008558   0.000161
    14  C   -0.285977   0.004965  -0.032264   0.008588   0.000163
    15  C    0.561683   0.299090   0.001030  -0.002096   0.000130
    16  H    0.005708  -0.004557   0.000015  -0.000141  -0.000001
    17  C    0.561930   0.001026   0.299069  -0.002090   0.000130
    18  H    0.005707   0.000015  -0.004558  -0.000141  -0.000001
    19  C    5.392339   0.019624   0.019628   0.278077  -0.000016
    20  H    0.019624   0.529930  -0.000158  -0.004695   0.000000
    21  H    0.019628  -0.000158   0.529931  -0.004693   0.000000
    22  H    0.278077  -0.004695  -0.004693   0.532638   0.000000
    23  N   -0.000016   0.000000   0.000000   0.000000   6.863897
 Mulliken charges:
               1
     1  C   -0.425949
     2  C    0.268792
     3  C   -0.079702
     4  C    0.268492
     5  C   -0.425750
     6  H    0.185236
     7  H    0.197174
     8  H    0.197171
     9  H    0.185230
    10  C   -0.062905
    11  C   -0.121370
    12  C   -0.019504
    13  C   -0.242234
    14  C   -0.241499
    15  C   -0.127299
    16  H    0.194213
    17  C   -0.127403
    18  H    0.194216
    19  C   -0.203588
    20  H    0.185386
    21  H    0.185386
    22  H    0.184126
    23  N   -0.168218
 Sum of Mulliken charges =   0.00000
 Mulliken charges with hydrogens summed into heavy atoms:
               1
     1  C   -0.240713
     2  C    0.465966
     3  C   -0.079702
     4  C    0.465663
     5  C   -0.240520
    10  C   -0.062905
    11  C   -0.121370
    12  C   -0.019504
    13  C   -0.048021
    14  C   -0.047283
    15  C    0.058086
    17  C    0.057984
    19  C   -0.019461
    23  N   -0.168218
 Electronic spatial extent (au):  <R**2>=           4491.7289
 Charge=              0.0000 electrons
 Dipole moment (field-independent basis, Debye):
    X=             -3.4195    Y=             -0.0001    Z=              0.0001  Tot=              3.4195
 Quadrupole moment (field-independent basis, Debye-Ang):
   XX=            -86.0037   YY=            -69.5315   ZZ=            -87.4044
   XY=             -0.0018   XZ=             -0.0021   YZ=             -0.0001
 Traceless Quadrupole moment (field-independent basis, Debye-Ang):
   XX=             -5.0239   YY=             11.4484   ZZ=             -6.4246
   XY=             -0.0018   XZ=             -0.0021   YZ=             -0.0001
 Octapole moment (field-independent basis, Debye-Ang**2):
  XXX=           -172.8984  YYY=              0.0007  ZZZ=              0.0004  XYY=              8.8272
  XXY=             -0.0074  XXZ=              0.0023  XZZ=              7.0177  YZZ=              0.0001
  YYZ=             -0.0002  XYZ=              0.0163
 Hexadecapole moment (field-independent basis, Debye-Ang**3):
 XXXX=          -5996.2066 YYYY=           -543.0171 ZZZZ=           -106.3926 XXXY=             -0.0823
 XXXZ=             -0.0702 YYYX=              0.0082 YYYZ=             -0.0024 ZZZX=             -0.0015
 ZZZY=              0.0000 XXYY=           -879.0298 XXZZ=          -1049.0064 YYZZ=           -130.1856
 XXYZ=              0.0022 YYXZ=             -0.0088 ZZXY=              0.0005
 N-N= 6.942983946221D+02 E-N=-2.674186097003D+03  KE= 5.499545815182D+02
 Evaluate density.
 Using the total density.
 Monte-Carlo method of calculating molar volume:
 based on  0.001 e/bohr**3 density envelope.
 Number of points per bohr**3 =   20 CutOff= 1.00D-04
 Using the SCF density.
 There are       382 points.  Will hold       382 in memory.
 LenV=  4026340884 MDV=  4026531840.
 Box volume = 6969.671 fraction occupied=0.249
 Integrated density= 7.3971586243191481D+01 error=-2.0028413756808519D+01
 Molar volume = 1733.295 bohr**3/mol (154.677 cm**3/mol)
 Recommended a0 for SCRF calculation =  4.84 angstrom (  9.15 bohr)
 Calling FoFJK, ICntrl=      2127 FMM=F ISym2X=0 I1Cent= 0 IOpClX= 0 NMat=1 NMatS=1 NMatT=0.
 ***** Axes restored to original set *****
 -------------------------------------------------------------------
 Center     Atomic                   Forces (Hartrees/Bohr)
 Number     Number              X              Y              Z
 -------------------------------------------------------------------
      1        6           0.001112103   -0.015339476   -0.000029238
      2        6          -0.000200210   -0.002805875    0.000007147
      3        6           0.003977599   -0.000005184   -0.000016239
      4        6          -0.000196005    0.002811622   -0.000000824
      5        6           0.001119350    0.015338397    0.000017567
      6        1           0.001121182    0.001466308    0.000010967
      7        1          -0.000658153    0.001204043    0.000002555
      8        1          -0.000658646   -0.001206562   -0.000001871
      9        1           0.001124591   -0.001468540   -0.000000445
     10        6          -0.004876618    0.000020232    0.000008068
     11        6           0.004507355   -0.000011691    0.000006500
     12        6          -0.002348465    0.000019631    0.000002478
     13        6          -0.000692437   -0.002476013   -0.000005645
     14        6          -0.000734885    0.002463590   -0.000002263
     15        6           0.001293251   -0.002563286    0.000006303
     16        1           0.000448957    0.000885934   -0.000000984
     17        6           0.001336280    0.002535501   -0.000003309
     18        1           0.000453435   -0.000886788   -0.000000433
     19        6           0.002814329    0.000025556    0.000002124
     20        1          -0.000441502    0.000988970   -0.000001704
     21        1          -0.000451687   -0.000984571    0.000000335
     22        1          -0.001070562   -0.000007074   -0.000001232
     23        7          -0.006979263   -0.000004721    0.000000142
 -------------------------------------------------------------------
 Cartesian Forces:  Max     0.015339476 RMS     0.003085096

 GradGradGradGradGradGradGradGradGradGradGradGradGradGradGradGradGradGrad
 Berny optimization.
 FormGI is forming the generalized inverse of G from B-inverse, IUseBI=4.
 Internal  Forces:  Max     0.011478978 RMS     0.001963176
 Search for a local minimum.
 Step number   1 out of a maximum of  120
 All quantities printed in internal units (Hartrees-Bohrs-Radians)
 Mixed Optimization -- RFO/linear search
 Second derivative matrix not updated -- first step.
 ITU=  0
     Eigenvalues ---    0.00230   0.01013   0.01375   0.01753   0.01850
     Eigenvalues ---    0.01942   0.01957   0.02019   0.02031   0.02038
     Eigenvalues ---    0.02053   0.02075   0.02083   0.02096   0.02113
     Eigenvalues ---    0.02118   0.02130   0.02198   0.02207   0.02266
     Eigenvalues ---    0.03753   0.04473   0.16000   0.16000   0.16000
     Eigenvalues ---    0.16000   0.16000   0.16000   0.16000   0.16000
     Eigenvalues ---    0.16000   0.22000   0.22000   0.22000   0.22821
     Eigenvalues ---    0.23472   0.23880   0.25000   0.25000   0.35371
     Eigenvalues ---    0.35371   0.35376   0.35407   0.35407   0.35441
     Eigenvalues ---    0.35441   0.35536   0.35537   0.40549   0.41213
     Eigenvalues ---    0.41443   0.41664   0.41809   0.42036   0.44230
     Eigenvalues ---    0.44632   0.44673   0.45685   0.46363   0.46517
     Eigenvalues ---    0.52309   0.53543   0.95489
 RFO step:  Lambda=-9.16827112D-04 EMin= 2.30000000D-03
 Linear search not attempted -- first point.
 Iteration  1 RMS(Cart)=  0.00618157 RMS(Int)=  0.00002013
 Iteration  2 RMS(Cart)=  0.00002525 RMS(Int)=  0.00000043
 Iteration  3 RMS(Cart)=  0.00000000 RMS(Int)=  0.00000043
 Variable       Old X    -DE/DX   Delta X   Delta X   Delta X     New X
                                 (Linear)    (Quad)   (Total)
    R1        2.63551  -0.00116   0.00000  -0.00252  -0.00252   2.63298
    R2        2.05020   0.00184   0.00000   0.00518   0.00518   2.05538
    R3        2.55799  -0.01147   0.00000  -0.02185  -0.02185   2.53614
    R4        2.66925  -0.00466   0.00000  -0.00973  -0.00973   2.65952
    R5        2.04813   0.00137   0.00000   0.00385   0.00385   2.05198
    R6        2.66923  -0.00465   0.00000  -0.00971  -0.00971   2.65953
    R7        2.68877  -0.00024   0.00000  -0.00056  -0.00056   2.68820
    R8        2.63549  -0.00115   0.00000  -0.00251  -0.00251   2.63298
    R9        2.04812   0.00137   0.00000   0.00386   0.00386   2.05198
   R10        2.05019   0.00184   0.00000   0.00519   0.00519   2.05538
   R11        2.55801  -0.01148   0.00000  -0.02187  -0.02187   2.53614
   R12        2.30502  -0.00511   0.00000  -0.00535  -0.00535   2.29967
   R13        2.69353  -0.00061   0.00000  -0.00145  -0.00145   2.69207
   R14        2.67047  -0.00223   0.00000  -0.00514  -0.00514   2.66534
   R15        2.67038  -0.00221   0.00000  -0.00509  -0.00509   2.66530
   R16        2.63720  -0.00173   0.00000  -0.00372  -0.00372   2.63348
   R17        2.04965   0.00099   0.00000   0.00279   0.00279   2.05244
   R18        2.63729  -0.00175   0.00000  -0.00377  -0.00377   2.63352
   R19        2.04964   0.00099   0.00000   0.00280   0.00280   2.05244
   R20        2.64763  -0.00170   0.00000  -0.00370  -0.00370   2.64394
   R21        2.05076   0.00108   0.00000   0.00304   0.00304   2.05380
   R22        2.64754  -0.00168   0.00000  -0.00365  -0.00365   2.64388
   R23        2.05076   0.00108   0.00000   0.00304   0.00304   2.05380
   R24        2.05069   0.00107   0.00000   0.00302   0.00302   2.05370
    A1        2.10461  -0.00153   0.00000  -0.00569  -0.00569   2.09892
    A2        2.15466   0.00338   0.00000   0.01331   0.01331   2.16797
    A3        2.02392  -0.00185   0.00000  -0.00762  -0.00762   2.01630
    A4        2.07971  -0.00131   0.00000  -0.00413  -0.00413   2.07558
    A5        2.10620   0.00065   0.00000   0.00208   0.00208   2.10827
    A6        2.09728   0.00065   0.00000   0.00205   0.00205   2.09933
    A7        2.05021  -0.00194   0.00000  -0.00442  -0.00442   2.04578
    A8        2.11650   0.00097   0.00000   0.00219   0.00219   2.11869
    A9        2.11648   0.00098   0.00000   0.00223   0.00223   2.11871
   A10        2.07969  -0.00130   0.00000  -0.00410  -0.00410   2.07559
   A11        2.09729   0.00065   0.00000   0.00204   0.00204   2.09933
   A12        2.10620   0.00065   0.00000   0.00206   0.00206   2.10827
   A13        2.10459  -0.00153   0.00000  -0.00566  -0.00566   2.09892
   A14        2.15468   0.00337   0.00000   0.01328   0.01328   2.16796
   A15        2.02391  -0.00184   0.00000  -0.00761  -0.00761   2.01630
   A16        2.10355  -0.00024   0.00000  -0.00093  -0.00093   2.10262
   A17        2.10356  -0.00024   0.00000  -0.00093  -0.00093   2.10264
   A18        2.07608   0.00048   0.00000   0.00185   0.00186   2.07793
   A19        2.10004  -0.00021   0.00000  -0.00095  -0.00095   2.09909
   A20        2.08005   0.00016   0.00000   0.00085   0.00085   2.08090
   A21        2.10310   0.00004   0.00000   0.00010   0.00010   2.10320
   A22        2.10003  -0.00020   0.00000  -0.00094  -0.00094   2.09909
   A23        2.08010   0.00016   0.00000   0.00083   0.00083   2.08093
   A24        2.10305   0.00005   0.00000   0.00012   0.00012   2.10316
   A25        2.09930  -0.00002   0.00000   0.00002   0.00002   2.09932
   A26        2.08892  -0.00010   0.00000  -0.00071  -0.00071   2.08821
   A27        2.09497   0.00012   0.00000   0.00069   0.00069   2.09566
   A28        2.09930  -0.00002   0.00000   0.00002   0.00001   2.09931
   A29        2.08881  -0.00009   0.00000  -0.00064  -0.00064   2.08817
   A30        2.09508   0.00011   0.00000   0.00062   0.00062   2.09571
   A31        2.09163  -0.00004   0.00000   0.00000   0.00000   2.09163
   A32        2.09570   0.00002   0.00000   0.00005   0.00005   2.09575
   A33        2.09585   0.00001   0.00000  -0.00005  -0.00005   2.09580
   A34        2.04742  -0.00221   0.00000  -0.01394  -0.01394   2.03348
   A35        3.14128   0.00002   0.00000   0.00037   0.00037   3.14165
   A36        3.14140   0.00000   0.00000   0.00024   0.00024   3.14164
   A37        3.14169  -0.00001   0.00000  -0.00017  -0.00017   3.14153
   A38        3.14144   0.00001   0.00000   0.00057   0.00057   3.14201
    D1        3.14144   0.00001   0.00000   0.00025   0.00025  -3.14149
    D2       -0.00013   0.00001   0.00000   0.00023   0.00023   0.00009
    D3        0.00017  -0.00001   0.00000  -0.00027  -0.00027  -0.00010
    D4       -3.14140  -0.00001   0.00000  -0.00030  -0.00030   3.14148
    D5       -0.00009   0.00000   0.00000   0.00013   0.00013   0.00004
    D6       -3.14137  -0.00001   0.00000  -0.00037  -0.00037   3.14144
    D7       -0.00010   0.00000   0.00000   0.00019   0.00018   0.00008
    D8       -3.14152   0.00000   0.00000  -0.00011  -0.00011   3.14155
    D9        3.14147   0.00000   0.00000   0.00021   0.00021  -3.14150
   D10        0.00005   0.00000   0.00000  -0.00008  -0.00009  -0.00003
   D11       -0.00004   0.00000   0.00000   0.00002   0.00002  -0.00002
   D12       -3.14156   0.00000   0.00000  -0.00009  -0.00009   3.14153
   D13        3.14138   0.00001   0.00000   0.00032   0.00032  -3.14149
   D14       -0.00015   0.00000   0.00000   0.00021   0.00021   0.00006
   D15        0.00037   0.00000   0.00000   0.00013   0.00013   0.00049
   D16       -3.14101   0.00000   0.00000  -0.00037  -0.00037  -3.14138
   D17       -3.14116   0.00000   0.00000   0.00012   0.00012  -3.14104
   D18        0.00065   0.00000   0.00000  -0.00038  -0.00038   0.00027
   D19       -3.14151   0.00000   0.00000  -0.00006  -0.00006  -3.14157
   D20        0.00013   0.00000   0.00000  -0.00017  -0.00017  -0.00004
   D21        0.00002   0.00000   0.00000   0.00005   0.00005   0.00006
   D22       -3.14153   0.00000   0.00000  -0.00006  -0.00006   3.14159
   D23       -0.00007   0.00000   0.00000   0.00010   0.00010   0.00003
   D24        3.14157   0.00000   0.00000  -0.00001  -0.00001   3.14156
   D25       -3.14159   0.00000   0.00000   0.00003   0.00003  -3.14157
   D26        0.00003   0.00000   0.00000  -0.00002  -0.00002   0.00001
   D27       -0.00009   0.00000   0.00000   0.00012   0.00012   0.00003
   D28        3.14153   0.00000   0.00000   0.00007   0.00007  -3.14158
   D29        3.14154   0.00000   0.00000   0.00003   0.00003   3.14157
   D30       -0.00003   0.00000   0.00000   0.00002   0.00002  -0.00002
   D31        0.00003   0.00000   0.00000  -0.00005  -0.00005  -0.00002
   D32       -3.14154   0.00000   0.00000  -0.00007  -0.00007   3.14157
   D33        0.00007   0.00000   0.00000  -0.00009  -0.00009  -0.00002
   D34        3.14159   0.00000   0.00000  -0.00001  -0.00001   3.14158
   D35       -3.14155   0.00000   0.00000  -0.00005  -0.00005   3.14159
   D36       -0.00003   0.00000   0.00000   0.00004   0.00004   0.00001
   D37        0.00003   0.00000   0.00000  -0.00003  -0.00003   0.00000
   D38       -3.14158   0.00000   0.00000  -0.00001  -0.00001  -3.14159
   D39       -3.14158   0.00000   0.00000  -0.00001  -0.00001   3.14159
   D40        0.00000   0.00000   0.00000   0.00001   0.00001   0.00000
   D41       -0.00001   0.00000   0.00000   0.00001   0.00001   0.00000
   D42        3.14153   0.00000   0.00000   0.00008   0.00008  -3.14158
   D43       -3.14153   0.00000   0.00000  -0.00008  -0.00008   3.14158
   D44        0.00001   0.00000   0.00000  -0.00001  -0.00001   0.00000
   D45       -0.00004   0.00000   0.00000   0.00005   0.00005   0.00001
   D46       -3.14158   0.00000   0.00000  -0.00001  -0.00001   3.14159
   D47        3.14156   0.00000   0.00000   0.00003   0.00003  -3.14159
   D48        0.00002   0.00000   0.00000  -0.00003  -0.00003  -0.00001
         Item               Value     Threshold  Converged?
 Maximum Force            0.011479     0.000450     NO 
 RMS     Force            0.001963     0.000300     NO 
 Maximum Displacement     0.028018     0.001800     NO 
 RMS     Displacement     0.006188     0.001200     NO 
 Predicted change in Energy=-4.594412D-04
 GradGradGradGradGradGradGradGradGradGradGradGradGradGradGradGradGradGrad

                          Input orientation:                          
 ---------------------------------------------------------------------
 Center     Atomic      Atomic             Coordinates (Angstroms)
 Number     Number       Type             X           Y           Z
 ---------------------------------------------------------------------
      1          6           0        4.159579    1.141339   -0.000036
      2          6           0        2.767560    1.201387    0.000219
      3          6           0        2.034477    0.000037    0.000070
      4          6           0        2.767580   -1.201306   -0.000231
      5          6           0        4.159600   -1.141244   -0.000385
      6          1           0        4.747642    2.056319    0.000168
      7          1           0        2.252344    2.157238    0.000537
      8          1           0        2.252382   -2.157166   -0.000302
      9          1           0        4.747679   -2.056213   -0.000640
     10          6           0        0.611942    0.000038    0.000365
     11          6           0       -0.604989   -0.000030    0.000556
     12          6           0       -2.029573   -0.000035    0.000298
     13          6           0       -2.744815    1.215595   -0.000069
     14          6           0       -2.744818   -1.215640    0.000402
     15          6           0       -4.138383    1.210667   -0.000287
     16          1           0       -2.196818    2.153319   -0.000162
     17          6           0       -4.138409   -1.210705    0.000170
     18          1           0       -2.196855   -2.153383    0.000668
     19          6           0       -4.839616   -0.000027   -0.000169
     20          1           0       -4.679299    2.153322   -0.000562
     21          1           0       -4.679291   -2.153381    0.000260
     22          1           0       -5.926390    0.000005   -0.000355
     23          7           0        4.865704    0.000054   -0.000311
 ---------------------------------------------------------------------
                    Distance matrix (angstroms):
                    1          2          3          4          5
     1  C    0.000000
     2  C    1.393314   0.000000
     3  C    2.412184   1.407357   0.000000
     4  C    2.725004   2.402693   1.407360   0.000000
     5  C    2.282583   2.725013   2.412191   1.393315   0.000000
     6  H    1.087660   2.156765   3.404344   3.812186   3.251184
     7  H    2.160925   1.085863   2.168175   3.397835   3.810198
     8  H    3.810188   3.397835   2.168180   1.085862   2.160920
     9  H    3.251185   3.812195   3.404354   2.156770   1.087661
    10  C    3.726701   2.467778   1.422536   2.467793   3.726714
    11  C    4.899371   3.580152   2.639466   3.580124   4.899354
    12  C    6.293516   4.945290   4.064050   4.945273   6.293506
    13  C    6.904794   5.512393   4.931452   6.018963   7.295590
    14  C    7.295619   6.018997   4.931484   5.512417   6.904819
    15  C    8.298252   6.905948   6.290455   7.315048   8.624847
    16  H    6.436450   5.054821   4.747682   5.991557   7.159482
    17  C    8.624890   7.315093   6.290502   6.905995   8.298299
    18  H    7.159571   5.991652   4.747777   5.054905   6.436532
    19  C    9.071287   7.701462   6.874094   7.701462   9.071288
    20  H    8.896622   7.507456   7.050634   8.167591   9.432937
    21  H    9.432964   8.167622   7.050666   7.507486   8.896652
    22  H   10.150341   8.776564   7.960867   8.776574  10.150351
    23  N    1.342067   2.417729   2.831226   2.417723   1.342067
                    6          7          8          9         10
     6  H    0.000000
     7  H    2.497338   0.000000
     8  H    4.896914   4.314404   0.000000
     9  H    4.112532   4.896924   2.497337   0.000000
    10  C    4.618691   2.710062   2.710087   4.618711   0.000000
    11  C    5.734041   3.580245   3.580196   5.734016   1.216931
    12  C    7.082318   4.794647   4.794617   7.082303   2.641515
    13  C    7.539478   5.085105   6.028888   8.175707   3.570070
    14  C    8.175737   6.028925   5.085124   7.539501   3.570114
    15  C    8.926173   6.460448   7.223861   9.467555   4.902163
    16  H    6.945137   4.449164   6.194809   8.120726   3.539174
    17  C    9.467594   7.223903   6.460495   8.926222   4.902217
    18  H    8.120814   6.194903   4.449239   6.945213   3.539288
    19  C    9.805309   7.412807   7.412806   9.805311   5.451558
    20  H    9.427440   6.931645   8.162629  10.324151   5.712606
    21  H   10.324177   8.162659   6.931675   9.427471   5.712649
    22  H   10.870298   8.458448   8.458469  10.870316   6.538331
    23  N    2.059652   3.388671   3.388664   2.059651   4.253762
                   11         12         13         14         15
    11  C    0.000000
    12  C    1.424584   0.000000
    13  C    2.461016   1.410435   0.000000
    14  C    2.461012   1.410415   2.431235   0.000000
    15  C    3.735058   2.431641   1.393576   2.798033   0.000000
    16  H    2.677840   2.159839   1.086107   3.413237   2.158302
    17  C    3.735076   2.431648   2.798041   1.393599   2.421373
    18  H    2.677866   2.159836   3.413250   1.086106   3.884117
    19  C    4.234628   2.810044   2.421968   2.421961   1.399110
    20  H    4.608355   3.414381   2.149782   3.884858   1.086825
    21  H    4.608347   3.414367   3.884867   2.149777   3.407257
    22  H    5.321401   3.896817   3.405888   3.405905   2.159322
    23  N    5.470693   6.895277   7.706980   7.707007   9.085106
                   16         17         18         19         20
    16  H    0.000000
    17  C    3.884126   0.000000
    18  H    4.306702   2.158303   0.000000
    19  C    3.409001   1.399083   3.408978   0.000000
    20  H    2.482482   3.407234   4.970940   2.159309   0.000000
    21  H    4.970949   1.086826   2.482436   2.159313   4.306703
    22  H    4.306561   2.159328   4.306566   1.086773   2.488375
    23  N    7.383479   9.085151   7.383564   9.705320   9.784868
                   21         22         23
    21  H    0.000000
    22  H    2.488438   0.000000
    23  N    9.784897  10.792093   0.000000
 Stoichiometry    C13H9N
 Framework group  C1[X(C13H9N)]
 Deg. of freedom    63
 Full point group                 C1      NOp   1
 Largest Abelian subgroup         C1      NOp   1
 Largest concise Abelian subgroup C1      NOp   1
                         Standard orientation:                         
 ---------------------------------------------------------------------
 Center     Atomic      Atomic             Coordinates (Angstroms)
 Number     Number       Type             X           Y           Z
 ---------------------------------------------------------------------
      1          6           0        4.160207    1.141288   -0.000067
      2          6           0        2.768187    1.201350    0.000189
      3          6           0        2.035093    0.000007    0.000040
      4          6           0        2.768184   -1.201343   -0.000262
      5          6           0        4.160204   -1.141295   -0.000415
      6          1           0        4.748278    2.056261    0.000138
      7          1           0        2.252982    2.157206    0.000507
      8          1           0        2.252976   -2.157198   -0.000333
      9          1           0        4.748274   -2.056271   -0.000670
     10          6           0        0.612557    0.000022    0.000335
     11          6           0       -0.604373   -0.000033    0.000526
     12          6           0       -2.028957   -0.000024    0.000268
     13          6           0       -2.744187    1.215613   -0.000099
     14          6           0       -2.744215   -1.215622    0.000372
     15          6           0       -4.137755    1.210699   -0.000317
     16          1           0       -2.196180    2.153332   -0.000193
     17          6           0       -4.137805   -1.210673    0.000140
     18          1           0       -2.196261   -2.153370    0.000637
     19          6           0       -4.839001    0.000012   -0.000200
     20          1           0       -4.678662    2.153360   -0.000592
     21          1           0       -4.678697   -2.153343    0.000230
     22          1           0       -5.925774    0.000055   -0.000385
     23          7           0        4.866319   -0.000005   -0.000342
 ---------------------------------------------------------------------
 Rotational constants (GHZ):           2.9189421           0.2457776           0.2266901
 Standard basis: 6-31+G(d) (6D, 7F)
 There are   284 symmetry adapted cartesian basis functions of A   symmetry.
 There are   284 symmetry adapted basis functions of A   symmetry.
   284 basis functions,   484 primitive gaussians,   284 cartesian basis functions
    47 alpha electrons       47 beta electrons
       nuclear repulsion energy       695.6884507765 Hartrees.
 NAtoms=   23 NActive=   23 NUniq=   23 SFac= 1.00D+00 NAtFMM=   60 NAOKFM=F Big=F
 Integral buffers will be    131072 words long.
 Raffenetti 2 integral format.
 Two-electron integral symmetry is turned on.
 Nuclear repulsion after empirical dispersion term =      695.6746615139 Hartrees.
 One-electron integrals computed using PRISM.
 NBasis=   284 RedAO= T EigKep=  3.15D-06  NBF=   284
 NBsUse=   280 1.00D-06 EigRej=  8.31D-07 NBFU=   280
 Initial guess from the checkpoint file:  "molecule_31.chk"
 B after Tr=     0.000000    0.000000    0.000000
         Rot=    1.000000    0.000005   -0.000010    0.000004 Ang=   0.00 deg.
 ExpMin= 4.38D-02 ExpMax= 4.17D+03 ExpMxC= 6.27D+02 IAcc=3 IRadAn=         5 AccDes= 0.00D+00
 Harris functional with IExCor=  402 and IRadAn=       5 diagonalized for initial guess.
 HarFok:  IExCor=  402 AccDes= 0.00D+00 IRadAn=         5 IDoV= 1 UseB2=F ITyADJ=14
 ICtDFT=  3500011 ScaDFX=  1.000000  1.000000  1.000000  1.000000
 FoFCou: FMM=F IPFlag=           0 FMFlag=      100000 FMFlg1=           0
         NFxFlg=           0 DoJE=T BraDBF=F KetDBF=T FulRan=T
         wScrn=  0.000000 ICntrl=       500 IOpCl=  0 I1Cent=   200000004 NGrid=           0
         NMat0=    1 NMatS0=      1 NMatT0=    0 NMatD0=    1 NMtDS0=    0 NMtDT0=    0
 Petite list used in FoFCou.
 Requested convergence on RMS density matrix=1.00D-08 within 128 cycles.
 Requested convergence on MAX density matrix=1.00D-06.
 Requested convergence on             energy=1.00D-06.
 No special actions if energy rises.
 SCF Done:  E(RB3LYP) =  -555.533045814     A.U. after   12 cycles
            NFock= 12  Conv=0.28D-08     -V/T= 2.0099
 Calling FoFJK, ICntrl=      2127 FMM=F ISym2X=0 I1Cent= 0 IOpClX= 0 NMat=1 NMatS=1 NMatT=0.
 ***** Axes restored to original set *****
 -------------------------------------------------------------------
 Center     Atomic                   Forces (Hartrees/Bohr)
 Number     Number              X              Y              Z
 -------------------------------------------------------------------
      1        6           0.001799856    0.000022036    0.000015892
      2        6          -0.000479343    0.000886608   -0.000006391
      3        6           0.000249714    0.000000436    0.000016794
      4        6          -0.000481601   -0.000887412    0.000000652
      5        6           0.001798243   -0.000020296   -0.000010213
      6        1          -0.000407526    0.000919377   -0.000006629
      7        1           0.000374368    0.000016655   -0.000001576
      8        1           0.000373415   -0.000016548   -0.000000587
      9        1          -0.000408402   -0.000919215    0.000002446
     10        6          -0.000389652   -0.000004473   -0.000000994
     11        6           0.000290815    0.000002007   -0.000022429
     12        6          -0.000391816    0.000006328    0.000010594
     13        6           0.000252129    0.000060889    0.000004075
     14        6           0.000235626   -0.000068326    0.000001832
     15        6          -0.000222835    0.000082455   -0.000002697
     16        1          -0.000023801    0.000000995    0.000000400
     17        6          -0.000201970   -0.000095677   -0.000000743
     18        1          -0.000021646   -0.000000241    0.000000695
     19        6          -0.000100721    0.000013449   -0.000000453
     20        1          -0.000009165    0.000016817   -0.000000049
     21        1          -0.000012465   -0.000014625   -0.000000406
     22        1          -0.000010305   -0.000002177    0.000000672
     23        7          -0.002212920    0.000000936   -0.000000886
 -------------------------------------------------------------------
 Cartesian Forces:  Max     0.002212920 RMS     0.000487665

 GradGradGradGradGradGradGradGradGradGradGradGradGradGradGradGradGradGrad
 Berny optimization.
 Using GEDIIS/GDIIS optimizer.
 FormGI is forming the generalized inverse of G from B-inverse, IUseBI=4.
 Internal  Forces:  Max     0.001474605 RMS     0.000318502
 Search for a local minimum.
 Step number   2 out of a maximum of  120
 All quantities printed in internal units (Hartrees-Bohrs-Radians)
 Mixed Optimization -- En-DIIS/RFO-DIIS
 Update second derivatives using D2CorX and points    1    2
 DE= -4.22D-04 DEPred=-4.59D-04 R= 9.19D-01
 TightC=F SS=  1.41D+00  RLast= 4.74D-02 DXNew= 5.0454D-01 1.4208D-01
 Trust test= 9.19D-01 RLast= 4.74D-02 DXMaxT set to 3.00D-01
 ITU=  1  0
 Use linear search instead of GDIIS.
     Eigenvalues ---    0.00230   0.01012   0.01373   0.01753   0.01850
     Eigenvalues ---    0.01942   0.01957   0.02019   0.02030   0.02038
     Eigenvalues ---    0.02053   0.02075   0.02083   0.02096   0.02113
     Eigenvalues ---    0.02118   0.02131   0.02198   0.02207   0.02265
     Eigenvalues ---    0.03752   0.04473   0.15863   0.16000   0.16000
     Eigenvalues ---    0.16000   0.16000   0.16000   0.16000   0.16000
     Eigenvalues ---    0.16016   0.22000   0.22000   0.22000   0.23188
     Eigenvalues ---    0.23467   0.25000   0.25000   0.25603   0.34699
     Eigenvalues ---    0.35371   0.35374   0.35392   0.35407   0.35441
     Eigenvalues ---    0.35454   0.35536   0.35636   0.40510   0.41208
     Eigenvalues ---    0.41379   0.41656   0.41977   0.42237   0.44228
     Eigenvalues ---    0.44626   0.44843   0.45685   0.46428   0.46723
     Eigenvalues ---    0.52706   0.53521   0.95527
 RFO step:  Lambda=-3.40471777D-05 EMin= 2.29999956D-03
 Quartic linear search produced a step of -0.07893.
 Iteration  1 RMS(Cart)=  0.00173660 RMS(Int)=  0.00000240
 Iteration  2 RMS(Cart)=  0.00000290 RMS(Int)=  0.00000035
 Iteration  3 RMS(Cart)=  0.00000000 RMS(Int)=  0.00000035
 Variable       Old X    -DE/DX   Delta X   Delta X   Delta X     New X
                                 (Linear)    (Quad)   (Total)
    R1        2.63298   0.00028   0.00020   0.00025   0.00045   2.63343
    R2        2.05538   0.00055  -0.00041   0.00205   0.00165   2.05702
    R3        2.53614   0.00010   0.00173  -0.00244  -0.00071   2.53543
    R4        2.65952   0.00098   0.00077   0.00097   0.00173   2.66125
    R5        2.05198  -0.00016  -0.00030   0.00003  -0.00027   2.05171
    R6        2.65953   0.00098   0.00077   0.00096   0.00173   2.66125
    R7        2.68820   0.00061   0.00004   0.00126   0.00131   2.68951
    R8        2.63298   0.00028   0.00020   0.00025   0.00045   2.63343
    R9        2.05198  -0.00016  -0.00030   0.00004  -0.00027   2.05171
   R10        2.05538   0.00055  -0.00041   0.00205   0.00164   2.05702
   R11        2.53614   0.00010   0.00173  -0.00244  -0.00071   2.53543
   R12        2.29967   0.00022   0.00042  -0.00042   0.00000   2.29967
   R13        2.69207   0.00051   0.00011   0.00095   0.00106   2.69314
   R14        2.66534   0.00010   0.00041  -0.00041   0.00000   2.66533
   R15        2.66530   0.00010   0.00040  -0.00039   0.00002   2.66531
   R16        2.63348   0.00028   0.00029   0.00012   0.00042   2.63390
   R17        2.05244  -0.00001  -0.00022   0.00030   0.00008   2.05253
   R18        2.63352   0.00027   0.00030   0.00010   0.00040   2.63392
   R19        2.05244  -0.00001  -0.00022   0.00030   0.00008   2.05253
   R20        2.64394   0.00010   0.00029  -0.00024   0.00006   2.64399
   R21        2.05380   0.00002  -0.00024   0.00041   0.00017   2.05397
   R22        2.64388   0.00011   0.00029  -0.00020   0.00008   2.64397
   R23        2.05380   0.00002  -0.00024   0.00041   0.00017   2.05397
   R24        2.05370   0.00001  -0.00024   0.00039   0.00015   2.05385
    A1        2.09892  -0.00049   0.00045  -0.00411  -0.00367   2.09525
    A2        2.16797  -0.00075  -0.00105  -0.00147  -0.00252   2.16545
    A3        2.01630   0.00124   0.00060   0.00559   0.00619   2.02249
    A4        2.07558  -0.00014   0.00033  -0.00086  -0.00053   2.07505
    A5        2.10827  -0.00027  -0.00016  -0.00156  -0.00173   2.10655
    A6        2.09933   0.00042  -0.00016   0.00242   0.00226   2.10159
    A7        2.04578   0.00031   0.00035   0.00093   0.00127   2.04706
    A8        2.11869  -0.00015  -0.00017  -0.00046  -0.00063   2.11806
    A9        2.11871  -0.00016  -0.00018  -0.00047  -0.00064   2.11807
   A10        2.07559  -0.00015   0.00032  -0.00086  -0.00054   2.07505
   A11        2.09933   0.00042  -0.00016   0.00242   0.00226   2.10159
   A12        2.10827  -0.00027  -0.00016  -0.00156  -0.00172   2.10655
   A13        2.09892  -0.00049   0.00045  -0.00412  -0.00367   2.09525
   A14        2.16796  -0.00075  -0.00105  -0.00147  -0.00251   2.16545
   A15        2.01630   0.00124   0.00060   0.00559   0.00619   2.02249
   A16        2.10262   0.00001   0.00007  -0.00008   0.00000   2.10262
   A17        2.10264   0.00001   0.00007  -0.00008  -0.00001   2.10263
   A18        2.07793  -0.00002  -0.00015   0.00016   0.00001   2.07794
   A19        2.09909   0.00001   0.00007  -0.00006   0.00001   2.09910
   A20        2.08090   0.00001  -0.00007   0.00020   0.00013   2.08104
   A21        2.10320  -0.00003  -0.00001  -0.00014  -0.00015   2.10305
   A22        2.09909   0.00001   0.00007  -0.00007   0.00001   2.09910
   A23        2.08093   0.00001  -0.00007   0.00019   0.00012   2.08105
   A24        2.10316  -0.00003  -0.00001  -0.00012  -0.00013   2.10303
   A25        2.09932   0.00000   0.00000   0.00000  -0.00001   2.09931
   A26        2.08821   0.00000   0.00006  -0.00009  -0.00003   2.08818
   A27        2.09566   0.00000  -0.00005   0.00009   0.00004   2.09569
   A28        2.09931   0.00000   0.00000   0.00000   0.00000   2.09931
   A29        2.08817   0.00000   0.00005  -0.00006  -0.00001   2.08816
   A30        2.09571   0.00000  -0.00005   0.00006   0.00001   2.09571
   A31        2.09163  -0.00001   0.00000  -0.00002  -0.00002   2.09161
   A32        2.09575   0.00001   0.00000   0.00003   0.00003   2.09578
   A33        2.09580   0.00000   0.00000  -0.00001   0.00000   2.09580
   A34        2.03348   0.00147   0.00110   0.00373   0.00483   2.03831
   A35        3.14165   0.00000  -0.00003  -0.00001  -0.00004   3.14161
   A36        3.14164   0.00000  -0.00002  -0.00004  -0.00006   3.14158
   A37        3.14153   0.00001   0.00001   0.00017   0.00018   3.14171
   A38        3.14201  -0.00002  -0.00005  -0.00120  -0.00124   3.14077
    D1       -3.14149   0.00000  -0.00002  -0.00010  -0.00012   3.14157
    D2        0.00009   0.00000  -0.00002  -0.00010  -0.00012  -0.00002
    D3       -0.00010   0.00000   0.00002   0.00013   0.00015   0.00005
    D4        3.14148   0.00000   0.00002   0.00014   0.00016  -3.14154
    D5        0.00004   0.00000  -0.00001  -0.00004  -0.00006  -0.00001
    D6        3.14144   0.00001   0.00003   0.00018   0.00021  -3.14154
    D7        0.00008   0.00000  -0.00001  -0.00012  -0.00014  -0.00006
    D8        3.14155   0.00000   0.00001   0.00008   0.00009  -3.14154
    D9       -3.14150   0.00000  -0.00002  -0.00013  -0.00014   3.14154
   D10       -0.00003   0.00000   0.00001   0.00008   0.00008   0.00005
   D11       -0.00002   0.00000   0.00000   0.00004   0.00004   0.00003
   D12        3.14153   0.00000   0.00001   0.00008   0.00009  -3.14156
   D13       -3.14149  -0.00001  -0.00003  -0.00016  -0.00018   3.14151
   D14        0.00006   0.00000  -0.00002  -0.00012  -0.00014  -0.00007
   D15        0.00049   0.00000  -0.00001  -0.00038  -0.00039   0.00010
   D16       -3.14138   0.00001   0.00003   0.00034   0.00037  -3.14102
   D17       -3.14104  -0.00001  -0.00001  -0.00069  -0.00070   3.14144
   D18        0.00027   0.00000   0.00003   0.00003   0.00006   0.00033
   D19       -3.14157   0.00000   0.00000  -0.00005  -0.00005   3.14157
   D20       -0.00004   0.00000   0.00001   0.00004   0.00005   0.00001
   D21        0.00006   0.00000   0.00000  -0.00009  -0.00010  -0.00003
   D22        3.14159   0.00000   0.00000   0.00000   0.00001  -3.14159
   D23        0.00003   0.00000  -0.00001  -0.00004  -0.00005  -0.00002
   D24        3.14156   0.00000   0.00000   0.00005   0.00005  -3.14158
   D25       -3.14157   0.00000   0.00000  -0.00010  -0.00010   3.14152
   D26        0.00001   0.00000   0.00000  -0.00006  -0.00006  -0.00005
   D27        0.00003   0.00000  -0.00001  -0.00003  -0.00004  -0.00001
   D28       -3.14158   0.00000  -0.00001   0.00001   0.00000  -3.14158
   D29        3.14157   0.00000   0.00000   0.00009   0.00009  -3.14152
   D30       -0.00002   0.00000   0.00000   0.00007   0.00007   0.00005
   D31       -0.00002   0.00000   0.00000   0.00002   0.00003   0.00001
   D32        3.14157   0.00000   0.00001   0.00000   0.00001   3.14158
   D33       -0.00002   0.00000   0.00001   0.00002   0.00003   0.00001
   D34        3.14158   0.00000   0.00000   0.00002   0.00002  -3.14158
   D35        3.14159   0.00000   0.00000  -0.00001  -0.00001   3.14158
   D36        0.00001   0.00000   0.00000  -0.00001  -0.00002  -0.00001
   D37        0.00000   0.00000   0.00000  -0.00001  -0.00001  -0.00001
   D38       -3.14159   0.00000   0.00000  -0.00002  -0.00002   3.14158
   D39        3.14159   0.00000   0.00000   0.00001   0.00001  -3.14158
   D40        0.00000   0.00000   0.00000   0.00001   0.00001   0.00001
   D41        0.00000   0.00000   0.00000  -0.00001  -0.00001  -0.00001
   D42       -3.14158   0.00000  -0.00001  -0.00001  -0.00002   3.14159
   D43        3.14158   0.00000   0.00001  -0.00001   0.00000   3.14158
   D44        0.00000   0.00000   0.00000  -0.00001  -0.00001  -0.00001
   D45        0.00001   0.00000   0.00000   0.00001   0.00000   0.00001
   D46        3.14159   0.00000   0.00000   0.00001   0.00001  -3.14159
   D47       -3.14159   0.00000   0.00000   0.00001   0.00001  -3.14158
   D48       -0.00001   0.00000   0.00000   0.00001   0.00001   0.00000
         Item               Value     Threshold  Converged?
 Maximum Force            0.001475     0.000450     NO 
 RMS     Force            0.000319     0.000300     NO 
 Maximum Displacement     0.008227     0.001800     NO 
 RMS     Displacement     0.001736     0.001200     NO 
 Predicted change in Energy=-2.028732D-05
 GradGradGradGradGradGradGradGradGradGradGradGradGradGradGradGradGradGrad

                          Input orientation:                          
 ---------------------------------------------------------------------
 Center     Atomic      Atomic             Coordinates (Angstroms)
 Number     Number       Type             X           Y           Z
 ---------------------------------------------------------------------
      1          6           0        4.160591    1.142703    0.000442
      2          6           0        2.768327    1.202633    0.000030
      3          6           0        2.035516    0.000043   -0.000281
      4          6           0        2.768311   -1.202556   -0.000222
      5          6           0        4.160575   -1.142643    0.000167
      6          1           0        4.745679    2.060619    0.000667
      7          1           0        2.254743    2.159200   -0.000050
      8          1           0        2.254715   -2.159116   -0.000483
      9          1           0        4.745652   -2.060567    0.000242
     10          6           0        0.612290    0.000055   -0.000768
     11          6           0       -0.604643    0.000040   -0.001070
     12          6           0       -2.029790    0.000005   -0.000481
     13          6           0       -2.745054    1.215620   -0.000360
     14          6           0       -2.745006   -1.215626   -0.000093
     15          6           0       -4.138843    1.210681    0.000130
     16          1           0       -2.197179    2.153466   -0.000672
     17          6           0       -4.138805   -1.210741    0.000394
     18          1           0       -2.197109   -2.153460   -0.000197
     19          6           0       -4.840076   -0.000048    0.000514
     20          1           0       -4.679784    2.153427    0.000207
     21          1           0       -4.679694   -2.153516    0.000682
     22          1           0       -5.926927   -0.000057    0.000896
     23          7           0        4.863742    0.000025    0.000509
 ---------------------------------------------------------------------
                    Distance matrix (angstroms):
                    1          2          3          4          5
     1  C    0.000000
[...]
 57178,-0.00000025,0.00044881,0.00011958,0.00000020,-0.00005202,-0.0000
 3088,-0.00000002,-0.00003941,-0.00004120,0.,0.00003294,-0.00003854,0.,
 -0.00002855,0.00002010,0.,-0.01117652,-0.00131796,0.00000062,0.0200409
 9,0.00562629,-0.00000408,0.09792814,-0.26515296,-0.00001667,0.04559089
 ,0.70259392,-0.00000026,-0.00000009,-0.00015937,0.00000083,-0.00000061
 ,-0.00014864,0.00000025,0.00000036,0.00025101,0.00000028,0.00000043,0.
 00021703,-0.00000041,0.00000013,0.00009552,0.00000007,-0.00000003,0.00
 001774,-0.00000007,-0.00000005,0.00002332,-0.00000011,0.00000005,-0.00
 002078,0.00000004,0.,-0.00001583,-0.00000126,0.00000029,0.00145430,0.0
 0001197,-0.00000962,0.00190837,0.00002362,-0.00000462,-0.06326776,-0.0
 0016989,-0.00004583,0.13251903,-0.00012218,0.00009203,-0.00000006,0.00
 031359,0.00066190,0.00000014,-0.00189997,0.00142664,-0.00000020,-0.000
 14350,-0.00090036,-0.00000050,-0.00026164,0.00001378,0.00000002,-0.000
 05348,-0.00001623,-0.00000001,0.00007205,0.00003313,0.00000005,0.00002
 629,0.00001672,0.00000005,-0.00009832,0.00001482,-0.00000001,0.0069986
 0,-0.00119749,0.00000195,-0.04168055,-0.03035769,0.00001079,-0.1545770
 2,-0.05068790,0.00003367,0.05971743,-0.01955041,-0.00001388,0.69623220
 ,-0.00044884,0.00011964,-0.00000019,0.00087109,0.00057178,0.00000025,-
 0.00333365,-0.00030441,0.00000034,0.00112439,-0.00036901,0.00000026,-0
 .00040718,-0.00021563,-0.00000021,0.00002855,0.00002009,0.,-0.00003294
 ,-0.00003854,-0.00000001,0.00003943,-0.00004121,-0.00000001,0.00005202
 ,-0.00003088,0.,0.01117724,-0.00131777,-0.00000030,-0.02004586,0.00562
 092,0.00000368,-0.09791882,-0.26517192,0.00003750,0.01956248,-0.053592
 00,-0.00000226,-0.04558890,0.70258890,-0.00000044,-0.00000014,0.000095
 51,0.00000026,-0.00000042,0.00021711,0.00000021,-0.00000032,0.00025110
 ,0.00000082,0.00000055,-0.00014878,-0.00000031,0.00000014,-0.00015932,
 0.00000003,0.,-0.00001583,-0.00000011,-0.00000004,-0.00002079,-0.00000
 009,0.00000005,0.00002332,0.00000007,0.00000004,0.00001774,-0.00000199
 ,-0.00000022,0.00145400,0.00001362,0.00000950,0.00190839,0.00003419,0.
 00002548,-0.06326669,-0.00001603,0.00000876,0.00836543,-0.00016557,-0.
 00001336,0.13251841,0.00022029,-0.00013530,0.00000013,-0.00039893,-0.0
 0025591,-0.00000011,0.00129425,-0.00004865,0.00000047,-0.00027070,0.00
 028537,0.00000006,0.00013285,0.00007143,-0.00000007,-0.00000181,-0.000
 00383,0.,0.00000378,-0.00000393,-0.00000003,0.00001050,-0.00000599,0.,
 -0.00000317,0.00000461,0.,-0.00356105,-0.00068819,-0.00000162,0.007455
 29,0.00263115,0.00000210,-0.03086399,0.07059503,0.00000614,-0.34432943
 ,-0.03168982,0.00008349,-0.04892102,-0.02652587,0.00001353,0.68804122,
 0.00025060,0.00009790,0.00000015,-0.00013836,-0.00030546,-0.00000012,0
 .00098023,0.00032178,-0.00000018,-0.00027873,0.00017948,-0.00000010,0.
 00019728,-0.00005827,0.00000006,0.00001509,-0.00001591,0.,0.00000990,0
 .00000959,-0.00000001,-0.00002706,0.00002774,0.,0.00000023,0.00002071,
 0.,-0.00093553,0.00001944,0.00000066,0.00529041,-0.00466767,-0.0000006
 2,0.02637836,0.03221159,-0.00001220,0.03143096,-0.13023026,-0.00000377
 ,-0.02769904,-0.01628756,0.00000915,-0.03412700,0.72118856,0.00000013,
 0.00000011,0.00018294,-0.00000019,0.00000043,-0.00004212,-0.00000049,0
 .00000018,-0.00075657,-0.00000019,-0.00000042,0.00003265,0.00000026,-0
 .00000007,-0.00006431,-0.00000001,0.00000002,-0.00001454,0.00000007,0.
 00000004,-0.00004346,0.00000008,-0.00000002,0.00000019,0.,0.,-0.000000
 96,0.00000229,-0.00000039,0.00006777,-0.00000149,-0.00000013,0.0073350
 1,0.00001008,-0.00002319,0.00581272,0.00007817,0.00001448,-0.06118956,
 0.00001400,0.00000875,-0.00600240,-0.00015700,-0.00002185,0.13275841,-
 0.00003377,-0.00000836,-0.00000004,0.00005856,0.00003658,0.00000008,-0
 .00013533,-0.00003695,-0.00000003,0.00009700,0.00002973,0.00000005,-0.
 00001951,-0.00002224,0.,0.00001192,0.00000554,0.,-0.00003281,-0.000023
 01,0.,-0.00000857,0.00000156,0.,0.00001368,-0.00000640,0.,0.00000533,-
 0.00014749,-0.00000009,0.00113251,0.00098142,-0.00000123,0.01057660,0.
 01567587,-0.00000314,-0.13104345,-0.12377582,0.00003491,-0.00149464,0.
 00301749,0.00000192,-0.01036275,-0.02876576,0.00000620,0.13659045,0.00
 000633,0.00000192,0.00000001,0.00002413,-0.00001675,-0.00000004,-0.000
 03112,-0.00002464,0.00000019,-0.00003340,-0.00006173,0.,-0.00000983,0.
 00002152,-0.00000002,-0.00000620,0.00000030,0.,0.00002663,0.00003533,0
 .,0.00000216,0.00000388,0.,-0.00001072,0.00000361,0.,0.00089914,0.0002
 3650,0.00000024,-0.00125925,0.00041572,-0.00000066,-0.01547303,-0.0190
 1800,0.00000612,-0.12205375,-0.27062892,0.00004972,0.00423946,-0.00274
 089,-0.00000083,0.00234733,0.00458825,-0.00000079,0.13100956,0.2854277
 1,0.00000002,-0.00000002,-0.00003759,-0.00000007,0.00000004,-0.0000112
 8,0.00000003,0.00000004,0.00018670,-0.00000002,0.,-0.00001430,0.000000
 01,0.,0.00001704,-0.00000001,0.,0.00000823,-0.00000002,-0.00000002,0.0
 0004272,0.,0.,0.00000555,0.,0.,0.00000072,-0.00000053,-0.00000023,0.00
 001949,-0.00000071,-0.00000026,-0.00360773,-0.00000207,-0.00000177,0.0
 0330316,0.00003645,0.00004911,-0.03653316,0.00000172,-0.00000104,0.006
 03997,0.00000325,0.00000827,0.00361997,-0.00004064,-0.00005388,0.02505
 515,0.00013287,-0.00007143,-0.00000009,-0.00027074,-0.00028534,0.00000
 010,0.00129431,0.00004851,0.00000048,-0.00039892,0.00025595,-0.0000001
 6,0.00022031,0.00013526,0.00000015,-0.00000317,-0.00000461,0.,0.000010
 49,0.00000598,0.,0.00000378,0.00000393,-0.00000003,-0.00000181,0.00000
 383,0.,-0.00356105,0.00068838,-0.00000167,0.00745642,-0.00263015,0.000
 00234,-0.03085407,-0.07060183,0.00001340,-0.04892674,0.02652232,0.0000
 1075,-0.34432397,0.03166749,0.00008060,0.06431716,0.02255053,-0.000017
 92,-0.00056332,0.00074942,0.00000046,0.68802877,-0.00019728,-0.0000582
 8,-0.00000010,0.00027871,0.00017944,0.00000010,-0.00098004,0.00032185,
 0.00000005,0.00013826,-0.00030548,0.00000010,-0.00025058,0.00009795,-0
 .00000007,-0.00000023,0.00002071,0.,0.00002707,0.00002774,0.,-0.000009
 90,0.00000960,0.,-0.00001510,-0.00001591,0.,0.00093527,0.00001941,-0.0
 0000068,-0.00528939,-0.00466816,0.00000189,-0.02638478,0.03220097,0.00
 000952,0.02769572,-0.01628180,-0.00000805,-0.03145369,-0.13023017,0.00
 001096,-0.02253780,-0.05612043,0.00000980,0.00073897,0.00025506,-0.000
 00033,0.03412075,0.72120052,0.00000032,0.00000011,-0.00006431,-0.00000
 023,0.00000038,0.00003261,-0.00000030,-0.00000026,-0.00075660,-0.00000
 023,-0.00000036,-0.00004204,0.00000019,-0.00000019,0.00018291,0.,0.,-0
 .00000096,0.00000007,0.00000001,0.00000019,0.00000007,-0.00000004,-0.0
 0004346,0.,-0.00000002,-0.00001454,0.00000209,0.00000053,0.00006785,-0
 .00000087,0.00000123,0.00733496,0.00001279,0.00002041,0.00581258,0.000
 01116,-0.00000770,-0.00600246,0.00008172,-0.00000724,-0.06118977,-0.00
 001561,-0.00000320,0.00742804,0.00000003,-0.00000030,-0.00067435,-0.00
 016084,-0.00003962,0.13275824,-0.00001951,0.00002224,0.,0.00009699,-0.
 00002972,0.00000005,-0.00013535,0.00003694,-0.00000004,0.00005856,-0.0
 0003661,0.00000007,-0.00003377,0.00000837,-0.00000004,0.00001368,0.000
 00640,0.,-0.00000857,-0.00000156,0.,-0.00003282,0.00002301,0.00000001,
 0.00001192,-0.00000554,0.,0.00000544,0.00014765,-0.00000011,0.00113258
 ,-0.00098160,-0.00000112,0.01057636,-0.01567255,-0.00000155,-0.0014938
 2,-0.00301733,0.00000225,-0.13106831,0.12378996,0.00002212,-0.00056315
 ,-0.00073907,0.00000010,0.00059379,-0.00081918,0.,-0.01036556,0.028764
 22,0.00000320,0.13661717,0.00000983,0.00002152,0.00000004,0.00003339,-
 0.00006172,0.,0.00003109,-0.00002466,-0.00000018,-0.00002414,-0.000016
 78,0.00000004,-0.00000634,0.00000193,-0.00000002,0.00001072,0.00000361
 ,0.,-0.00000216,0.00000388,0.,-0.00002664,0.00003535,0.,0.00000620,0.0
 0000030,0.,-0.00089917,0.00023671,-0.00000025,0.00125952,0.00041556,0.
 00000025,0.01547597,-0.01901814,-0.00000383,-0.00423933,-0.00274161,0.
 00000173,0.12206808,-0.27060363,-0.00002545,-0.00074950,0.00025488,0.0
 0000021,0.00081937,-0.00100957,-0.00000020,-0.00234889,0.00459097,0.00
 000070,-0.13102486,0.28540080,0.,-0.00000002,0.00001704,-0.00000002,0.
 00000002,-0.00001430,0.,-0.00000002,0.00018672,-0.00000007,-0.00000002
 ,-0.00001128,0.00000002,0.00000003,-0.00003759,0.,0.,0.00000072,0.,0.,
 0.00000555,0.,0.,0.00004273,-0.00000001,0.,0.00000823,-0.00000040,0.00
 000021,0.00001937,-0.00000085,-0.00000019,-0.00360764,-0.00000372,0.00
 000409,0.00330309,0.00000215,0.00000194,0.00604007,0.00002384,-0.00002
 477,-0.03653310,0.00000055,0.00000024,-0.00067437,-0.00000009,0.000000
 35,0.00044229,0.00000349,-0.00000841,0.00361997,-0.00002708,0.00002689
 ,0.02505508,0.00013484,0.00014413,0.00000001,-0.00017068,0.00016021,-0
 .00000013,0.00008959,0.,0.00000040,-0.00017067,-0.00016020,-0.00000012
 ,0.00013482,-0.00014414,-0.00000003,-0.00002946,-0.00003026,0.,0.00001
 475,-0.00000376,0.00000002,0.00001475,0.00000376,0.00000002,-0.0000294
 6,0.00003026,0.,0.00165166,-0.00000011,0.00000189,-0.00334607,0.,-0.00
 000328,0.00291814,0.00000370,-0.00000251,-0.02747744,-0.02958034,0.000
 01277,-0.02748856,0.02957395,0.00000968,-0.18045337,-0.12037800,0.0000
 4017,-0.00552419,0.00064605,0.00000366,-0.18047293,0.12039112,0.000027
 56,-0.00552399,-0.00064680,0.00000375,0.74121379,-0.00004648,0.0000270
 1,-0.00000005,0.00004870,0.00000148,0.00000001,-0.00000002,0.00004356,
 0.,-0.00004872,0.00000145,0.,0.00004650,0.00002698,0.00000004,-0.00000
 063,-0.00000035,0.,-0.00000051,-0.00000214,0.00000002,0.00000051,-0.00
 000214,-0.00000001,0.00000063,-0.00000034,0.,0.00000012,0.00071192,-0.
 00000002,0.00000006,-0.00149266,0.,0.00000336,-0.06460917,0.00000301,-
 0.07559663,0.03259502,0.00002068,0.07559031,0.03260615,-0.00002334,-0.
 05532016,-0.28298277,0.00002733,0.00168744,0.00154707,0.00000034,0.055
 33338,-0.28296811,-0.00000417,-0.00168818,0.00154681,0.00000026,0.0000
 0138,0.66073605,-0.00000018,-0.00000008,-0.00002096,0.00000022,-0.0000
 0016,0.00000746,-0.00000001,0.,0.00020634,0.00000023,0.00000016,0.0000
 0743,-0.00000019,0.00000008,-0.00002095,0.00000001,0.,0.00000278,-0.00
 000004,-0.00000002,0.00000891,-0.00000004,0.00000002,0.00000892,0.0000
 0001,0.,0.00000278,-0.00000075,-0.00000007,-0.00000558,0.00000061,0.00
 000005,-0.00155670,-0.00000283,0.00000306,-0.00581121,0.00001386,0.000
 00728,0.00696521,0.00000602,-0.00000998,0.00696520,0.00003754,0.000046
 88,-0.06200485,0.00000361,0.00000021,0.00731787,0.00003172,-0.00002375
 ,-0.06200439,0.00000380,0.00000040,0.00731783,-0.00017592,-0.00002762,
 0.13278915,0.00003949,-0.00001526,0.00000002,-0.00013697,0.00003565,-0
 .00000007,0.00020427,-0.00009369,0.00000005,-0.00009062,-0.00001432,-0
 .00000003,0.00003681,0.00000833,0.,-0.00001830,-0.00000739,0.,0.000010
 47,0.00000406,0.,0.00001353,-0.00000868,0.,-0.00001182,0.00000546,0.,-
 0.00044762,-0.00002541,0.,-0.00034764,0.00135812,0.00000008,-0.0050304
 4,-0.00153981,0.00000395,-0.01118488,0.02931971,0.00000266,-0.00074055
 ,-0.00084368,0.00000012,-0.12918858,0.12057983,0.00001949,0.00061600,-
 0.00036515,-0.00000140,-0.00119550,-0.00313118,0.00000237,0.00010431,0
 .00009546,-0.00000032,0.01230173,-0.01527503,-0.00000181,0.13389336,-0
 .00003450,-0.00000723,-0.00000001,0.00005850,0.00000163,0.,-0.00012441
 ,-0.00001395,0.00000011,0.00005780,-0.00000526,0.00000001,-0.00003611,
 0.00000705,-0.00000002,0.00000632,0.00000585,0.,-0.00000614,-0.0000013
 0,0.,-0.00000581,0.00000264,0.,0.00000527,-0.00000511,0.,0.00003470,-0
 .00003680,-0.00000016,-0.00006556,0.00009835,0.00000010,-0.00094707,0.
 00181030,0.00000062,-0.00194855,0.00403460,0.00000053,-0.00085239,0.00
 021009,0.00000022,0.12064956,-0.27024853,-0.00002174,0.00033342,0.0008
 4099,-0.00000042,-0.00421324,-0.00296984,0.00000180,0.00010253,0.00000
 013,-0.00000008,0.01606618,-0.01867937,-0.00000353,-0.12955620,0.28527
 015,0.,0.,0.00000929,0.,0.,0.00000484,0.,0.00000002,-0.00001764,0.0000
 0001,0.,-0.00000918,0.,0.,-0.00000795,0.,0.,0.00000080,0.,0.,0.0000041
 5,0.,0.,0.00000363,0.,0.,0.00000191,0.00000005,-0.00000003,-0.00016473
 ,0.00000027,-0.00000017,0.00044924,0.00000352,0.00000038,0.00728038,0.
 00000418,-0.00000834,0.00311146,0.00000016,0.00000018,-0.00065155,0.00
 001970,-0.00002180,-0.03675955,-0.00000142,-0.00000018,-0.00414372,0.0
 0000267,0.00000150,0.00689672,-0.00000036,-0.00000009,-0.00113451,-0.0
 0000357,0.00000567,0.00320716,-0.00002378,0.00002290,0.02561043,0.0000
 3680,-0.00000834,0.,-0.00009062,0.00001433,-0.00000002,0.00020427,0.00
 009368,0.00000005,-0.00013697,-0.00003565,-0.00000007,0.00003949,0.000
 01526,0.00000003,-0.00001182,-0.00000546,0.,0.00001353,0.00000868,0.,0
 .00001047,-0.00000406,0.,-0.00001831,0.00000739,0.,-0.00044756,0.00002
 544,-0.00000002,-0.00034757,-0.00135818,0.00000021,-0.00503074,0.00153
 897,0.00000381,-0.00074070,0.00084360,0.00000004,-0.01118199,-0.029321
 24,0.00000573,-0.00119626,0.00313135,0.00000204,0.00010433,-0.00009543
 ,-0.00000031,-0.12916247,-0.12056465,0.00003207,0.00061599,0.00036511,
 -0.00000145,0.01230183,0.01527831,-0.00000340,0.00047118,0.00084400,-0
 .00000013,0.13386534,0.00003612,0.00000705,0.00000003,-0.00005781,-0.0
 0000525,-0.00000001,0.00012443,-0.00001395,-0.00000011,-0.00005851,0.0
 0000163,0.,0.00003451,-0.00000724,0.,-0.00000527,-0.00000511,0.,0.0000
 0581,0.00000264,0.,0.00000615,-0.00000130,0.,-0.00000632,0.00000585,0.
 ,-0.00003474,-0.00003684,0.00000016,0.00006551,0.00009828,-0.00000007,
 0.00094638,0.00181055,-0.00000005,0.00085228,0.00021026,-0.00000031,0.
 00194697,0.00403168,-0.00000063,0.00421342,-0.00296904,-0.00000077,-0.
 00010252,0.00000010,-0.00000004,-0.12063445,-0.27027476,0.00004610,-0.
 00033344,0.00084101,-0.00000009,-0.01606286,-0.01867939,0.00000581,-0.
 00084384,-0.00103526,0.00000033,0.12953992,0.28529820,0.,0.,-0.0000079
 5,0.00000001,0.,-0.00000918,0.,-0.00000002,-0.00001765,0.00000001,0.,0
 .00000485,0.,0.,0.00000929,0.,0.,0.00000191,0.,0.,0.00000364,0.,0.,0.0
 0000415,0.,0.,0.00000080,0.00000003,0.00000003,-0.00016471,0.00000029,
 0.00000020,0.00044929,0.00000341,0.00000020,0.00728022,0.00000008,-0.0
 0000028,-0.00065157,0.00000400,0.00000828,0.00311141,0.00000222,-0.000
 00047,0.00689679,-0.00000035,-0.00000003,-0.00113450,0.00003228,0.0000
 4615,-0.03675942,-0.00000138,-0.00000034,-0.00414368,-0.00000189,-0.00
 000338,0.00320717,-0.00000005,-0.00000020,0.00019520,-0.00003732,-0.00
 004999,0.02561039,0.00003534,0.00000202,0.00000002,-0.00006411,-0.0000
 0466,0.,0.00013926,0.,-0.00000006,-0.00006411,0.00000467,0.,0.00003534
 ,-0.00000203,0.00000002,-0.00000741,-0.00000572,0.,0.00000985,0.000005
 60,0.,0.00000985,-0.00000560,0.,-0.00000741,0.00000572,0.,-0.00014008,
 0.,0.00000015,0.00012678,0.,-0.00000042,0.00072902,0.00000009,-0.00000
 028,0.00067074,-0.00313532,0.00000192,0.00067021,0.00313589,0.00000160
 ,-0.01123309,0.00253836,0.00000411,-0.00063853,0.00021676,0.00000021,-
 0.01123579,-0.00254004,0.00000438,-0.00063866,-0.00021684,0.00000023,-
 0.33982204,-0.00001432,0.00008751,0.00076428,-0.00042244,-0.00000132,0
 .00076426,0.00042244,-0.00000137,0.35995162,0.00000168,0.00000352,0.,0
 .00000267,-0.00000866,0.,0.,-0.00002149,0.,-0.00000268,-0.00000866,0.,
 -0.00000168,0.00000352,0.,0.00000042,0.00000031,0.,0.00000334,0.000003
 61,0.,-0.00000334,0.00000361,0.,-0.00000042,0.00000031,0.,0.,0.0000486
 5,0.,0.00000002,0.00017621,-0.00000006,0.00000012,-0.00123480,0.000000
 02,-0.00211863,-0.00478364,0.00000127,0.00211917,-0.00478305,-0.000000
 04,-0.02875576,0.00492166,0.00000807,-0.00143977,0.00010580,0.00000043
 ,0.02875402,0.00492442,-0.00000823,0.00143969,0.00010593,-0.00000043,-
 0.00001426,-0.06036696,0.00000125,0.00032006,0.00071816,-0.00000034,-0
 .00032006,0.00071817,-0.00000014,0.00001542,0.05947103,0.,0.,0.0000004
 9,0.00000002,0.00000001,-0.00000109,-0.00000007,0.,0.00004042,0.000000
 02,-0.00000001,-0.00000108,0.,0.,0.00000049,0.,0.,0.00000151,0.,0.,0.0
 0000117,0.,0.,0.00000117,0.,0.,0.00000151,0.00000002,0.,0.00007195,-0.
 00000014,-0.00000007,-0.00107194,-0.00000050,0.00000004,-0.00086348,0.
 00000230,0.00000121,0.00703423,0.00000208,0.00000002,0.00703428,0.0000
 0531,-0.00000104,0.00341119,0.00000021,-0.00000008,0.00010282,0.000002
 31,0.00000088,0.00341119,0.00000006,0.00000007,0.00010282,0.00008758,0
 .00000125,-0.03658546,-0.00000128,-0.00000012,-0.00388374,-0.00000125,
 -0.00000036,-0.00388379,-0.00009667,-0.00000180,0.02507869,-0.18317345
 ,0.10928724,-0.00002371,-0.03015719,0.03553687,-0.00001121,0.00928468,
 -0.00000304,0.00000502,-0.03016643,-0.03553301,-0.00001421,-0.18318621
 ,-0.10929380,-0.00003197,0.01429816,-0.00746024,0.00000399,-0.00666003
 ,-0.00019729,-0.00000348,-0.00666003,0.00019786,-0.00000342,0.01429733
 ,0.00745697,0.00000470,-0.00550147,0.00000019,-0.00000032,0.00317078,0
 .,0.,-0.00046675,-0.00000002,-0.00000002,0.00002536,-0.00042700,0.0000
 0001,0.00002533,0.00042700,0.00000004,-0.00012805,-0.00026458,0.000000
 12,0.00005671,-0.00000992,-0.00000002,-0.00012808,0.00026458,0.0000000
 6,0.00005672,0.00000993,-0.00000001,-0.00026706,-0.00000002,0.00000004
 ,-0.00006250,0.00005415,0.,-0.00006249,-0.00005416,0.,-0.00005533,0.,0
 .00000002,0.40546000,0.07873198,-0.27932069,0.00001052,0.09865776,0.02
 576524,0.00002296,-0.00000298,-0.07823305,-0.00000300,-0.09865397,0.02
 577437,-0.00002249,-0.07873854,-0.27930779,-0.00002703,0.01960702,-0.0
 3336068,0.00000386,0.00018445,0.00176239,0.00000015,-0.00018386,0.0017
 6240,-0.00000064,-0.01961027,-0.03335986,-0.00000548,0.00000018,0.0003
 7596,0.00000003,-0.00000014,0.00086306,0.00000005,0.00000004,-0.000054
 52,0.,-0.00008107,-0.00004250,0.00000006,0.00008109,-0.00004256,-0.000
 00007,0.00004979,0.00004433,-0.00000004,-0.00000863,0.00001672,0.,-0.0
 0004979,0.00004430,0.00000005,0.00000863,0.00001672,0.,0.00000002,-0.0
 0006008,0.,-0.00000704,0.00000271,0.,0.00000705,0.00000271,0.,0.,0.000
 00237,0.,0.00000828,0.64734843,-0.00002531,0.00001830,-0.06574877,-0.0
 0000855,0.00000816,0.02248995,0.00000475,-0.00000258,-0.00999297,-0.00
 001681,-0.00000810,0.02248991,-0.00003000,-0.00003397,-0.06574877,0.00
 000504,-0.00000299,-0.00377071,-0.00000326,-0.00000026,0.00789600,-0.0
 0000338,-0.00000034,0.00789601,0.00000320,0.00000052,-0.00377070,-0.00
 000021,0.00000013,-0.00367126,0.00000040,0.00000004,0.00002243,-0.0000
 0009,-0.00000001,0.00027209,0.00000002,-0.00000012,-0.00001361,0.00000
 001,0.00000012,-0.00001362,-0.00000004,-0.00000005,0.00000702,0.000000
 02,-0.00000001,-0.00000504,-0.00000004,0.00000005,0.00000703,0.0000000
 2,0.00000001,-0.00000505,-0.00000006,0.,-0.00000413,-0.00000002,0.,-0.
 00000265,-0.00000002,0.,-0.00000265,-0.00000001,0.,-0.00000337,0.00007
 435,0.00002109,0.09167286\\0.00003773,-0.00003603,-0.00000444,-0.00000
 931,0.00002005,-0.00000014,-0.00001181,-0.00000182,0.00001493,-0.00000
 866,-0.00001987,-0.00000118,0.00003778,0.00003585,-0.00000013,0.000000
 75,0.00001865,0.00000090,0.00000038,-0.00000656,0.00000051,0.00000038,
 0.00000662,0.00000014,0.00000079,-0.00001862,-0.00000058,0.00000899,0.
 00000063,0.00000150,-0.00000434,0.00000438,-0.00003543,-0.00000593,-0.
 00000459,0.00002059,0.00000266,0.00000619,0.00000298,0.00000356,-0.000
 00426,0.00000302,-0.00000481,0.00000659,-0.00000297,0.00000023,-0.0000
 0016,0.00000051,-0.00000683,-0.00000594,-0.00000286,-0.00000006,0.,0.0
 0000051,-0.00000730,-0.00000115,0.00000109,-0.00000066,0.00000065,-0.0
 0000040,-0.00000054,-0.00000071,-0.00000042,-0.00000002,0.00000013,0.0
 0000038,-0.00003297,-0.00000002,0.00000147\\\@


 THE MORE PROGRESS PHYSICAL SCIENCES MAKE, THE MORE THEY TEND TO ENTER
 THE DOMAIN OF MATHEMATICS, WHICH IS A KIND OF CENTRE TO WHICH THEY ALL
 CONVERGE.  WE MAY EVEN JUDGE THE DEGREE OF PERFECTION TO WHICH A 
 SCIENCE HAS ARRIVED BY THE FACILITY WITH WHICH IT MAY BE SUBMITTED
 TO CALCULATION.

                               -- ADOLPHE QUETELET, 1796-1874
 Job cpu time:       0 days  1 hours 27 minutes 46.4 seconds.
 Elapsed time:       0 days  0 hours  2 minutes 55.6 seconds.
 File lengths (MBytes):  RWF=    193 Int=      0 D2E=      0 Chk=      8 Scr=      1
 Normal termination of Gaussian 16 at Mon Sep 18 04:38:40 2023.
