 Entering Gaussian System, Link 0=/home/ubuntu/g16/g16
 Input=/home/ubuntu/products/molecule_29.gjf
 Output=/home/ubuntu/products/molecule_29.log
 Initial command:
 /home/ubuntu/g16/l1.exe "/home/ubuntu/Scratch/Gau-18231.inp" -scrdir="/home/ubuntu/Scratch/"
 Entering Link 1 = /home/ubuntu/g16/l1.exe PID=     18233.
  
 Copyright (c) 1988-2017, Gaussian, Inc.  All Rights Reserved.
  
 This is part of the Gaussian(R) 16 program.  It is based on
 the Gaussian(R) 09 system (copyright 2009, Gaussian, Inc.),
 the Gaussian(R) 03 system (copyright 2003, Gaussian, Inc.),
 the Gaussian(R) 98 system (copyright 1998, Gaussian, Inc.),
 the Gaussian(R) 94 system (copyright 1995, Gaussian, Inc.),
 the Gaussian 92(TM) system (copyright 1992, Gaussian, Inc.),
 the Gaussian 90(TM) system (copyright 1990, Gaussian, Inc.),
 the Gaussian 88(TM) system (copyright 1988, Gaussian, Inc.),
 the Gaussian 86(TM) system (copyright 1986, Carnegie Mellon
 University), and the Gaussian 82(TM) system (copyright 1983,
 Carnegie Mellon University). Gaussian is a federally registered
 trademark of Gaussian, Inc.
  
 This software contains proprietary and confidential information,
 including trade secrets, belonging to Gaussian, Inc.
  
 This software is provided under written license and may be
 used, copied, transmitted, or stored only in accord with that
 written license.
  
 The following legend is applicable only to US Government
 contracts under FAR:
  
                    RESTRICTED RIGHTS LEGEND
  
 Use, reproduction and disclosure by the US Government is
 subject to restrictions as set forth in subparagraphs (a)
 and (c) of the Commercial Computer Software - Restricted
 Rights clause in FAR 52.227-19.
  
 Gaussian, Inc.
 340 Quinnipiac St., Bldg. 40, Wallingford CT 06492
  
  
 ---------------------------------------------------------------
 Warning -- This program may not be used in any manner that
 competes with the business of Gaussian, Inc. or will provide
 assistance to any competitor of Gaussian, Inc.  The licensee
 of this program is prohibited from giving any competitor of
 Gaussian, Inc. access to this program.  By using this program,
 the user acknowledges that Gaussian, Inc. is engaged in the
 business of creating and licensing software in the field of
 computational chemistry and represents and warrants to the
 licensee that it is not a competitor of Gaussian, Inc. and that
 it will not use this program in any manner prohibited above.
 ---------------------------------------------------------------
  

 Cite this work as:
 Gaussian 16, Revision B.01,
 M. J. Frisch, G. W. Trucks, H. B. Schlegel, G. E. Scuseria, 
 M. A. Robb, J. R. Cheeseman, G. Scalmani, V. Barone, 
 G. A. Petersson, H. Nakatsuji, X. Li, M. Caricato, A. V. Marenich, 
 J. Bloino, B. G. Janesko, R. Gomperts, B. Mennucci, H. P. Hratchian, 
 J. V. Ortiz, A. F. Izmaylov, J. L. Sonnenberg, D. Williams-Young, 
 F. Ding, F. Lipparini, F. Egidi, J. Goings, B. Peng, A. Petrone, 
 T. Henderson, D. Ranasinghe, V. G. Zakrzewski, J. Gao, N. Rega, 
 G. Zheng, W. Liang, M. Hada, M. Ehara, K. Toyota, R. Fukuda, 
 J. Hasegawa, M. Ishida, T. Nakajima, Y. Honda, O. Kitao, H. Nakai, 
 T. Vreven, K. Throssell, J. A. Montgomery, Jr., J. E. Peralta, 
 F. Ogliaro, M. J. Bearpark, J. J. Heyd, E. N. Brothers, K. N. Kudin, 
 V. N. Staroverov, T. A. Keith, R. Kobayashi, J. Normand, 
 K. Raghavachari, A. P. Rendell, J. C. Burant, S. S. Iyengar, 
 J. Tomasi, M. Cossi, J. M. Millam, M. Klene, C. Adamo, R. Cammi, 
 J. W. Ochterski, R. L. Martin, K. Morokuma, O. Farkas, 
 J. B. Foresman, and D. J. Fox, Gaussian, Inc., Wallingford CT, 2016.
 
 ******************************************
 Gaussian 16:  EM64L-G16RevB.01 20-Dec-2017
                18-Sep-2023 
 ******************************************
 %nprocshared=30
 Will use up to   30 processors via shared memory.
 %mem=30GB
 %chk=molecule_29.chk
 ---------------------------------------------------------
 # opt freq b3lyp/6-31+g(d) empiricaldispersion=gd3 volume
 ---------------------------------------------------------
 1/18=20,19=15,26=3,38=1/1,3;
 2/9=110,12=2,17=6,18=5,40=1/2;
 3/5=1,6=6,7=11,11=2,25=1,30=1,71=1,74=-5,124=31/1,2,3;
 4//1;
 5/5=2,38=5/2;
 6/7=2,8=2,9=2,10=2,28=1,44=1/1,4;
 7//1,2,3,16;
 1/18=20,19=15,26=3/3(2);
 2/9=110/2;
 99//99;
 2/9=110/2;
 3/5=1,6=6,7=11,11=2,25=1,30=1,71=1,74=-5,124=31/1,2,3;
 4/5=5,16=3,69=1/1;
 5/5=2,38=5/2;
 7//1,2,3,16;
 1/18=20,19=15,26=3/3(-5);
 2/9=110/2;
 6/7=2,8=2,9=2,10=2,19=2,28=1,44=1/1,4;
 99/9=1/99;
 -------------------
 Title Card Required
 -------------------
 Symbolic Z-matrix:
 Charge =  0 Multiplicity = 1
 C                    -4.14504   1.3721   -0.00018 
 C                    -2.75638   1.3667   -0.00015 
 C                    -2.03416   0.14764   0.00005 
 C                    -2.76464  -1.05852   0.00014 
 C                    -4.16163  -1.05922   0.00011 
 C                    -4.85378   0.15982  -0.00005 
 H                    -4.708     2.2979   -0.0003 
 H                    -2.21052   2.30376  -0.00025 
 H                    -2.22772  -2.00101   0.00025 
 H                    -4.69135  -2.00368   0.00019 
 C                    -0.61034   0.14301   0.00007 
 C                     0.61034   0.14298   0.00012 
 C                     2.03416   0.14759   0.00012 
 C                     2.75636   1.36667   0.00018 
 C                     2.76466  -1.05855   0.00003 
 C                     4.14501   1.37209   0.00014 
 H                     2.21048   2.30371   0.00024 
 C                     4.16164  -1.05922  -0.00002 
 H                     2.22778  -2.00106  -0.00002 
 C                     4.85378   0.15983   0.00004 
 H                     4.70798   2.29789   0.00019 
 H                     4.69138  -2.00367  -0.00011 
 O                    -6.23853   0.27784  -0.00011 
 C                    -7.04265  -0.93166  -0.00002 
 H                    -6.85273  -1.53553  -0.89585 
 H                    -6.85289  -1.53531   0.896 
 H                    -8.07636  -0.58779  -0.00016 
 O                     6.23854   0.27786  -0.00004 
 C                     7.04264  -0.93162  -0.00026 
 H                     8.07637  -0.5878   -0.00035 
 H                     6.8529   -1.5355    0.89561 
 H                     6.85271  -1.5353   -0.89623 
 

 GradGradGradGradGradGradGradGradGradGradGradGradGradGradGradGradGradGrad
 Berny optimization.
 Initialization pass.
                           ----------------------------
                           !    Initial Parameters    !
                           ! (Angstroms and Degrees)  !
 --------------------------                            --------------------------
 ! Name  Definition              Value          Derivative Info.                !
 --------------------------------------------------------------------------------
 ! R1    R(1,2)                  1.3887         estimate D2E/DX2                !
 ! R2    R(1,6)                  1.4043         estimate D2E/DX2                !
 ! R3    R(1,7)                  1.0835         estimate D2E/DX2                !
 ! R4    R(2,3)                  1.4169         estimate D2E/DX2                !
 ! R5    R(2,8)                  1.0845         estimate D2E/DX2                !
 ! R6    R(3,4)                  1.4101         estimate D2E/DX2                !
 ! R7    R(3,11)                 1.4238         estimate D2E/DX2                !
 ! R8    R(4,5)                  1.397          estimate D2E/DX2                !
 ! R9    R(4,9)                  1.0847         estimate D2E/DX2                !
 ! R10   R(5,6)                  1.4018         estimate D2E/DX2                !
 ! R11   R(5,10)                 1.0829         estimate D2E/DX2                !
 ! R12   R(6,23)                 1.3898         estimate D2E/DX2                !
 ! R13   R(11,12)                1.2207         estimate D2E/DX2                !
 ! R14   R(12,13)                1.4238         estimate D2E/DX2                !
 ! R15   R(13,14)                1.417          estimate D2E/DX2                !
 ! R16   R(13,15)                1.4101         estimate D2E/DX2                !
 ! R17   R(14,16)                1.3887         estimate D2E/DX2                !
 ! R18   R(14,17)                1.0844         estimate D2E/DX2                !
 ! R19   R(15,18)                1.397          estimate D2E/DX2                !
 ! R20   R(15,19)                1.0847         estimate D2E/DX2                !
 ! R21   R(16,20)                1.4043         estimate D2E/DX2                !
 ! R22   R(16,21)                1.0835         estimate D2E/DX2                !
 ! R23   R(18,20)                1.4018         estimate D2E/DX2                !
 ! R24   R(18,22)                1.0829         estimate D2E/DX2                !
 ! R25   R(20,28)                1.3898         estimate D2E/DX2                !
 ! R26   R(23,24)                1.4524         estimate D2E/DX2                !
 ! R27   R(24,25)                1.0969         estimate D2E/DX2                !
 ! R28   R(24,26)                1.0969         estimate D2E/DX2                !
 ! R29   R(24,27)                1.0894         estimate D2E/DX2                !
 ! R30   R(28,29)                1.4524         estimate D2E/DX2                !
 ! R31   R(29,30)                1.0894         estimate D2E/DX2                !
 ! R32   R(29,31)                1.0969         estimate D2E/DX2                !
 ! R33   R(29,32)                1.0969         estimate D2E/DX2                !
 ! A1    A(2,1,6)              120.0896         estimate D2E/DX2                !
 ! A2    A(2,1,7)              121.5258         estimate D2E/DX2                !
 ! A3    A(6,1,7)              118.3846         estimate D2E/DX2                !
 ! A4    A(1,2,3)              120.8667         estimate D2E/DX2                !
 ! A5    A(1,2,8)              119.9998         estimate D2E/DX2                !
 ! A6    A(3,2,8)              119.1335         estimate D2E/DX2                !
 ! A7    A(2,3,4)              118.1554         estimate D2E/DX2                !
 ! A8    A(2,3,11)             120.8303         estimate D2E/DX2                !
 ! A9    A(4,3,11)             121.0144         estimate D2E/DX2                !
 ! A10   A(3,4,5)              121.2292         estimate D2E/DX2                !
 ! A11   A(3,4,9)              119.1304         estimate D2E/DX2                !
 ! A12   A(5,4,9)              119.6404         estimate D2E/DX2                !
 ! A13   A(4,5,6)              119.5584         estimate D2E/DX2                !
 ! A14   A(4,5,10)             119.3155         estimate D2E/DX2                !
 ! A15   A(6,5,10)             121.1261         estimate D2E/DX2                !
 ! A16   A(1,6,5)              120.1008         estimate D2E/DX2                !
 ! A17   A(1,6,23)             115.4405         estimate D2E/DX2                !
 ! A18   A(5,6,23)             124.4588         estimate D2E/DX2                !
 ! A19   A(12,13,14)           120.829          estimate D2E/DX2                !
 ! A20   A(12,13,15)           121.0158         estimate D2E/DX2                !
 ! A21   A(14,13,15)           118.1553         estimate D2E/DX2                !
 ! A22   A(13,14,16)           120.8666         estimate D2E/DX2                !
 ! A23   A(13,14,17)           119.1331         estimate D2E/DX2                !
 ! A24   A(16,14,17)           120.0003         estimate D2E/DX2                !
 ! A25   A(13,15,18)           121.229          estimate D2E/DX2                !
 ! A26   A(13,15,19)           119.1317         estimate D2E/DX2                !
 ! A27   A(18,15,19)           119.6393         estimate D2E/DX2                !
 ! A28   A(14,16,20)           120.0901         estimate D2E/DX2                !
 ! A29   A(14,16,21)           121.5262         estimate D2E/DX2                !
 ! A30   A(20,16,21)           118.3838         estimate D2E/DX2                !
 ! A31   A(15,18,20)           119.5591         estimate D2E/DX2                !
 ! A32   A(15,18,22)           119.3154         estimate D2E/DX2                !
 ! A33   A(20,18,22)           121.1255         estimate D2E/DX2                !
 ! A34   A(16,20,18)           120.0999         estimate D2E/DX2                !
 ! A35   A(16,20,28)           115.4414         estimate D2E/DX2                !
 ! A36   A(18,20,28)           124.4587         estimate D2E/DX2                !
 ! A37   A(6,23,24)            118.7456         estimate D2E/DX2                !
 ! A38   A(23,24,25)           111.2562         estimate D2E/DX2                !
 ! A39   A(23,24,26)           111.2568         estimate D2E/DX2                !
 ! A40   A(23,24,27)           105.2175         estimate D2E/DX2                !
 ! A41   A(25,24,26)           109.5233         estimate D2E/DX2                !
 ! A42   A(25,24,27)           109.7521         estimate D2E/DX2                !
 ! A43   A(26,24,27)           109.752          estimate D2E/DX2                !
 ! A44   A(20,28,29)           118.7453         estimate D2E/DX2                !
 ! A45   A(28,29,30)           105.2203         estimate D2E/DX2                !
 ! A46   A(28,29,31)           111.2576         estimate D2E/DX2                !
 ! A47   A(28,29,32)           111.2572         estimate D2E/DX2                !
 ! A48   A(30,29,31)           109.7515         estimate D2E/DX2                !
 ! A49   A(30,29,32)           109.7497         estimate D2E/DX2                !
 ! A50   A(31,29,32)           109.5217         estimate D2E/DX2                !
 ! A51   L(3,11,12,8,-1)       179.8157         estimate D2E/DX2                !
 ! A52   L(11,12,13,17,-1)     179.8126         estimate D2E/DX2                !
 ! A53   L(3,11,12,8,-2)       179.9986         estimate D2E/DX2                !
 ! A54   L(11,12,13,17,-2)     180.0026         estimate D2E/DX2                !
 ! D1    D(6,1,2,3)             -0.0014         estimate D2E/DX2                !
 ! D2    D(6,1,2,8)           -179.9996         estimate D2E/DX2                !
 ! D3    D(7,1,2,3)            179.9982         estimate D2E/DX2                !
 ! D4    D(7,1,2,8)              0.0            estimate D2E/DX2                !
 ! D5    D(2,1,6,5)             -0.0008         estimate D2E/DX2                !
 ! D6    D(2,1,6,23)          -179.9993         estimate D2E/DX2                !
 ! D7    D(7,1,6,5)            179.9996         estimate D2E/DX2                !
 ! D8    D(7,1,6,23)             0.0011         estimate D2E/DX2                !
 ! D9    D(1,2,3,4)              0.0032         estimate D2E/DX2                !
 ! D10   D(1,2,3,11)           179.9997         estimate D2E/DX2                !
 ! D11   D(8,2,3,4)           -179.9985         estimate D2E/DX2                !
 ! D12   D(8,2,3,11)            -0.0021         estimate D2E/DX2                !
 ! D13   D(2,3,4,5)             -0.003          estimate D2E/DX2                !
 ! D14   D(2,3,4,9)            179.9977         estimate D2E/DX2                !
 ! D15   D(11,3,4,5)          -179.9995         estimate D2E/DX2                !
 ! D16   D(11,3,4,9)             0.0012         estimate D2E/DX2                !
 ! D17   D(2,3,13,14)            0.0109         estimate D2E/DX2                !
 ! D18   D(2,3,13,15)         -179.9863         estimate D2E/DX2                !
 ! D19   D(4,3,13,14)         -179.9927         estimate D2E/DX2                !
 ! D20   D(4,3,13,15)            0.0101         estimate D2E/DX2                !
 ! D21   D(3,4,5,6)              0.0009         estimate D2E/DX2                !
 ! D22   D(3,4,5,10)          -179.9991         estimate D2E/DX2                !
 ! D23   D(9,4,5,6)           -179.9998         estimate D2E/DX2                !
 ! D24   D(9,4,5,10)             0.0001         estimate D2E/DX2                !
 ! D25   D(4,5,6,1)              0.001          estimate D2E/DX2                !
 ! D26   D(4,5,6,23)           179.9994         estimate D2E/DX2                !
 ! D27   D(10,5,6,1)          -179.9989         estimate D2E/DX2                !
 ! D28   D(10,5,6,23)           -0.0005         estimate D2E/DX2                !
 ! D29   D(1,6,23,24)          179.998          estimate D2E/DX2                !
 ! D30   D(5,6,23,24)           -0.0004         estimate D2E/DX2                !
 ! D31   D(12,13,14,16)       -179.998          estimate D2E/DX2                !
 ! D32   D(12,13,14,17)          0.001          estimate D2E/DX2                !
 ! D33   D(15,13,14,16)          0.0004         estimate D2E/DX2                !
 ! D34   D(15,13,14,17)        179.9994         estimate D2E/DX2                !
 ! D35   D(12,13,15,18)        179.9974         estimate D2E/DX2                !
 ! D36   D(12,13,15,19)         -0.0013         estimate D2E/DX2                !
 ! D37   D(14,13,15,18)         -0.001          estimate D2E/DX2                !
 ! D38   D(14,13,15,19)       -179.9997         estimate D2E/DX2                !
 ! D39   D(13,14,16,20)          0.0001         estimate D2E/DX2                !
 ! D40   D(13,14,16,21)       -179.9997         estimate D2E/DX2                !
 ! D41   D(17,14,16,20)       -179.9989         estimate D2E/DX2                !
 ! D42   D(17,14,16,21)          0.0013         estimate D2E/DX2                !
 ! D43   D(13,15,18,20)          0.001          estimate D2E/DX2                !
 ! D44   D(13,15,18,22)       -179.9989         estimate D2E/DX2                !
 ! D45   D(19,15,18,20)        179.9997         estimate D2E/DX2                !
 ! D46   D(19,15,18,22)         -0.0002         estimate D2E/DX2                !
 ! D47   D(14,16,20,18)         -0.0001         estimate D2E/DX2                !
 ! D48   D(14,16,20,28)        179.9977         estimate D2E/DX2                !
 ! D49   D(21,16,20,18)        179.9998         estimate D2E/DX2                !
 ! D50   D(21,16,20,28)         -0.0024         estimate D2E/DX2                !
 ! D51   D(15,18,20,16)         -0.0005         estimate D2E/DX2                !
 ! D52   D(15,18,20,28)       -179.9981         estimate D2E/DX2                !
 ! D53   D(22,18,20,16)        179.9995         estimate D2E/DX2                !
 ! D54   D(22,18,20,28)          0.0019         estimate D2E/DX2                !
 ! D55   D(16,20,28,29)       -179.9951         estimate D2E/DX2                !
 ! D56   D(18,20,28,29)          0.0026         estimate D2E/DX2                !
 ! D57   D(6,23,24,25)         -61.2054         estimate D2E/DX2                !
 ! D58   D(6,23,24,26)          61.2125         estimate D2E/DX2                !
 ! D59   D(6,23,24,27)        -179.9963         estimate D2E/DX2                !
 ! D60   D(20,28,29,30)        179.9966         estimate D2E/DX2                !
 ! D61   D(20,28,29,31)        -61.2108         estimate D2E/DX2                !
 ! D62   D(20,28,29,32)         61.2063         estimate D2E/DX2                !
 --------------------------------------------------------------------------------
 Trust Radius=3.00D-01 FncErr=1.00D-07 GrdErr=1.00D-06 EigMax=2.50D+02 EigMin=1.00D-04
 Number of steps in this run=    159 maximum allowed number of steps=    192.
 GradGradGradGradGradGradGradGradGradGradGradGradGradGradGradGradGradGrad

                          Input orientation:                          
 ---------------------------------------------------------------------
 Center     Atomic      Atomic             Coordinates (Angstroms)
 Number     Number       Type             X           Y           Z
 ---------------------------------------------------------------------
      1          6           0       -4.145035    1.372096   -0.000182
      2          6           0       -2.756383    1.366704   -0.000150
      3          6           0       -2.034157    0.147635    0.000048
      4          6           0       -2.764642   -1.058519    0.000141
      5          6           0       -4.161628   -1.059220    0.000105
      6          6           0       -4.853776    0.159819   -0.000046
      7          1           0       -4.708004    2.297897   -0.000304
      8          1           0       -2.210518    2.303755   -0.000248
      9          1           0       -2.227725   -2.001013    0.000254
     10          1           0       -4.691348   -2.003680    0.000193
     11          6           0       -0.610344    0.143012    0.000074
     12          6           0        0.610342    0.142975    0.000120
     13          6           0        2.034155    0.147589    0.000122
     14          6           0        2.756364    1.366674    0.000182
     15          6           0        2.764659   -1.058548    0.000030
     16          6           0        4.145015    1.372087    0.000143
     17          1           0        2.210478    2.303712    0.000243
     18          6           0        4.161644   -1.059220   -0.000022
     19          1           0        2.227779   -2.001064   -0.000022
     20          6           0        4.853784    0.159825    0.000040
     21          1           0        4.707977    2.297894    0.000193
     22          1           0        4.691382   -2.003673   -0.000110
     23          8           0       -6.238532    0.277844   -0.000107
     24          6           0       -7.042648   -0.931659   -0.000019
     25          1           0       -6.852729   -1.535534   -0.895848
     26          1           0       -6.852893   -1.535307    0.895997
     27          1           0       -8.076361   -0.587794   -0.000157
     28          8           0        6.238539    0.277858   -0.000041
     29          6           0        7.042638   -0.931618   -0.000259
     30          1           0        8.076370   -0.587803   -0.000348
     31          1           0        6.852900   -1.535501    0.895610
     32          1           0        6.852712   -1.535295   -0.896228
 ---------------------------------------------------------------------
                    Distance matrix (angstroms):
                    1          2          3          4          5
     1  C    0.000000
     2  C    1.388662   0.000000
     3  C    2.440310   1.416947   0.000000
     4  C    2.795241   2.425237   1.410112   0.000000
     5  C    2.431373   2.803537   2.445942   1.396986   0.000000
     6  C    1.404254   2.419841   2.819645   2.418435   1.401829
     7  H    1.083532   2.162393   3.431193   3.878426   3.401288
     8  H    2.147171   1.084451   2.163321   3.407630   3.887985
     9  H    3.879941   3.408958   2.157349   1.084700   2.151036
    10  H    3.419696   3.886332   3.418892   2.146049   1.082870
    11  C    3.742284   2.470406   1.423821   2.466714   3.749264
    12  C    4.911654   3.582227   2.644503   3.582472   4.921074
    13  C    6.299350   4.943227   4.068312   4.948045   6.312219
    14  C    6.901401   5.512747   4.943192   6.030180   7.331001
    15  C    7.324746   6.030236   4.948082   5.529301   6.926287
    16  C    8.290050   6.901400   6.299321   7.324698   8.655147
    17  H    6.423430   5.054473   4.760840   6.004700   7.205071
    18  C    8.655184   7.331044   6.312246   6.926286   8.323272
    19  H    7.210476   6.015292   4.772945   5.080616   6.458451
    20  C    9.080107   7.705271   6.887952   7.715230   9.097457
    21  H    8.901288   7.522219   7.076721   8.191797   9.483676
    22  H    9.459285   8.174879   7.061232   7.515691   8.903245
    23  O    2.362227   3.648421   4.206391   3.722066   2.470075
    24  C    3.701817   4.863593   5.123461   4.279887   2.883843
    25  H    4.072854   5.099540   5.182116   4.212220   2.876044
    26  H    4.072913   5.099622   5.182204   4.212325   2.876141
    27  H    4.392777   5.667648   6.086796   5.332536   3.943016
    28  O   10.441071   9.060585   8.273721   9.101822  10.485764
    29  C   11.422396  10.064944   9.140733   9.808101  11.204993
    30  H   12.377558  11.007663  10.137240  10.851226  12.247074
    31  H   11.411010  10.077872   9.089266   9.670910  11.061130
    32  H   11.410796  10.077661   9.089115   9.670796  11.061001
                    6          7          8          9         10
     6  C    0.000000
     7  H    2.143042   0.000000
     8  H    3.403421   2.497493   0.000000
     9  H    3.400785   4.963105   4.304802   0.000000
    10  H    2.169588   4.301609   4.970766   2.463624   0.000000
    11  C    4.243465   4.629724   2.688748   2.685659   4.611169
    12  C    5.464144   5.738335   3.553339   3.556868   5.719794
    13  C    6.887942   7.076760   4.760914   4.772852   7.061186
    14  C    7.705240   7.522231   5.054507   6.015186   8.174821
    15  C    7.715243   8.191851   6.004787   5.080565   7.515671
    16  C    9.080079   8.901296   6.423457   7.210383   9.459234
    17  H    7.382409   6.918484   4.420996   6.182904   8.135652
    18  C    9.097464   9.483717   7.205140   6.458406   8.903228
    19  H    7.403907   8.160034   6.183037   4.455504   6.919127
    20  C    9.707560   9.797915   7.382466   7.403850   9.787252
    21  H    9.797882   9.415981   6.918497   8.159936  10.336868
    22  H    9.787274  10.336922   8.135734   6.919108   9.382730
    23  O    1.389777   2.534389   4.508793   4.612999   2.756652
    24  C    2.445912   3.985046   5.815272   4.932241   2.584152
    25  H    2.769927   4.482972   6.090350   4.733955   2.386130
    26  H    2.769984   4.483008   6.090427   4.734070   2.386234
    27  H    3.308169   4.435430   6.539814   6.016954   3.669202
    28  O   11.092943  11.131368   8.688545   8.767604  11.165476
    29  C   11.946376  12.186359   9.802476   9.331840  11.782858
    30  H   12.951742  13.106009  10.685559  10.400555  12.845985
    31  H   11.862655  12.212784   9.883724   9.136526  11.588383
    32  H   11.862479  12.212543   9.883482   9.136460  11.588282
                   11         12         13         14         15
    11  C    0.000000
    12  C    1.220686   0.000000
    13  C    2.644503   1.423820   0.000000
    14  C    3.582188   2.470395   1.416952   0.000000
    15  C    3.582512   2.466726   1.410107   2.425236   0.000000
    16  C    4.911625   3.742276   2.440313   1.388662   2.795240
    17  H    3.553261   2.688721   2.163321   1.084450   3.407625
    18  C    4.921101   3.749269   2.445935   2.803529   1.396985
    19  H    3.556966   2.685704   2.157359   3.408968   1.084701
    20  C    5.464154   4.243475   2.819656   2.419846   2.418445
    21  H    5.738297   4.629718   3.431200   2.162398   3.878426
    22  H    5.719839   4.611180   3.418886   3.886326   2.146048
    23  O    5.629803   6.850202   8.273712   9.060558   9.101835
    24  C    6.521461   7.728072   9.140740  10.064938   9.808128
    25  H    6.525915   7.701791   9.089135  10.077715   9.670794
    26  H    6.526013   7.701890   9.089244  10.077787   9.670955
    27  H    7.501699   8.717387  10.137225  11.007628  10.851236
    28  O    6.850210   5.629813   4.206402   3.648433   3.722072
    29  C    7.728063   6.521440   5.123435   4.863568   4.279862
    30  H    8.717402   7.501707   6.086802   5.667667   5.332530
    31  H    7.701909   6.526003   5.182180   5.099610   4.212275
    32  H    7.701771   6.525888   5.182088   5.099514   4.212214
                   16         17         18         19         20
    16  C    0.000000
    17  H    2.147175   0.000000
    18  C    2.431364   3.887976   0.000000
    19  H    3.879941   4.304811   2.151024   0.000000
    20  C    1.404255   3.403427   1.401830   3.400786   0.000000
    21  H    1.083533   2.497506   3.401278   4.963106   2.143035
    22  H    3.419689   4.970760   1.082873   2.463604   2.169585
    23  O   10.441045   8.688493  10.485771   8.767659  11.092944
    24  C   11.422392   9.802447  11.205018   9.331905  11.946398
    25  H   11.410847   9.883547  11.061003   9.136457  11.862517
    26  H   11.410937   9.883579  11.061172   9.136651  11.862651
    27  H   12.377527  10.685498  12.247082  10.400607  12.951741
    28  O    2.362240   4.508809   2.470075   4.612990   1.389776
    29  C    3.701794   5.815250   2.883818   4.932198   2.445880
    30  H    4.392803   6.539843   3.943008   6.016920   3.308173
    31  H    4.072907   6.090429   2.876084   4.733989   2.769953
    32  H    4.072834   6.090318   2.876053   4.733934   2.769917
                   21         22         23         24         25
    21  H    0.000000
    22  H    4.301599   0.000000
    23  O   11.131337  11.165498   0.000000
    24  C   12.186353  11.782898   1.452412   0.000000
    25  H   12.212616  11.588270   2.113748   1.096925   0.000000
    26  H   12.212682  11.588471   2.113755   1.096924   1.791845
    27  H   13.105972  12.846010   2.031488   1.089406   1.788225
    28  O    2.534396   2.756643  12.477071  13.336149  13.246590
    29  C    3.985021   2.584126  13.336127  14.085286  13.937289
    30  H    4.435462   3.669173  14.341052  15.122928  14.985930
    31  H    4.483011   2.386139  13.246740  13.937469  13.822214
    32  H    4.482945   2.386159  13.246553  13.937310  13.705441
                   26         27         28         29         30
    26  H    0.000000
    27  H    1.788224   0.000000
    28  O   13.246737  14.341050   0.000000
    29  C   13.937485  15.122908   1.452380   0.000000
    30  H   14.986130  16.152731   2.031500   1.089408   0.000000
    31  H   13.705793  14.986106   2.113741   1.096930   1.788226
    32  H   13.822289  14.985924   2.113737   1.096931   1.788206
                   31         32
    31  H    0.000000
    32  H    1.791838   0.000000
 Stoichiometry    C16H14O2
 Framework group  C1[X(C16H14O2)]
 Deg. of freedom    90
 Full point group                 C1      NOp   1
 Largest Abelian subgroup         C1      NOp   1
 Largest concise Abelian subgroup C1      NOp   1
                         Standard orientation:                         
 ---------------------------------------------------------------------
 Center     Atomic      Atomic             Coordinates (Angstroms)
 Number     Number       Type             X           Y           Z
 ---------------------------------------------------------------------
      1          6           0        4.145035    1.372096    0.000182
      2          6           0        2.756383    1.366704    0.000150
      3          6           0        2.034157    0.147635   -0.000048
      4          6           0        2.764642   -1.058519   -0.000141
      5          6           0        4.161628   -1.059220   -0.000105
      6          6           0        4.853776    0.159819    0.000046
      7          1           0        4.708004    2.297897    0.000304
      8          1           0        2.210518    2.303755    0.000248
      9          1           0        2.227725   -2.001013   -0.000254
     10          1           0        4.691348   -2.003680   -0.000193
     11          6           0        0.610344    0.143012   -0.000074
     12          6           0       -0.610342    0.142975   -0.000120
     13          6           0       -2.034155    0.147589   -0.000122
     14          6           0       -2.756364    1.366674   -0.000182
     15          6           0       -2.764659   -1.058548   -0.000030
     16          6           0       -4.145015    1.372087   -0.000143
     17          1           0       -2.210478    2.303712   -0.000243
     18          6           0       -4.161644   -1.059220    0.000022
     19          1           0       -2.227779   -2.001064    0.000022
     20          6           0       -4.853784    0.159825   -0.000040
     21          1           0       -4.707977    2.297894   -0.000193
     22          1           0       -4.691382   -2.003673    0.000110
     23          8           0        6.238532    0.277844    0.000107
     24          6           0        7.042648   -0.931659    0.000019
     25          1           0        6.852729   -1.535534    0.895848
     26          1           0        6.852893   -1.535307   -0.895997
     27          1           0        8.076361   -0.587794    0.000157
     28          8           0       -6.238539    0.277858    0.000041
     29          6           0       -7.042638   -0.931618    0.000259
     30          1           0       -8.076370   -0.587803    0.000348
     31          1           0       -6.852900   -1.535501   -0.895610
     32          1           0       -6.852712   -1.535295    0.896228
 ---------------------------------------------------------------------
 Rotational constants (GHZ):           2.3019680           0.1067152           0.1021207
 Standard basis: 6-31+G(d) (6D, 7F)
 There are   370 symmetry adapted cartesian basis functions of A   symmetry.
 There are   370 symmetry adapted basis functions of A   symmetry.
   370 basis functions,   632 primitive gaussians,   370 cartesian basis functions
    63 alpha electrons       63 beta electrons
       nuclear repulsion energy      1077.1534739875 Hartrees.
 NAtoms=   32 NActive=   32 NUniq=   32 SFac= 1.00D+00 NAtFMM=   60 NAOKFM=F Big=F
 Integral buffers will be    131072 words long.
 Raffenetti 2 integral format.
 Two-electron integral symmetry is turned on.
 Nuclear repulsion after empirical dispersion term =     1077.1303482459 Hartrees.
 One-electron integrals computed using PRISM.
 NBasis=   370 RedAO= T EigKep=  1.29D-06  NBF=   370
 NBsUse=   366 1.00D-06 EigRej=  6.19D-07 NBFU=   366
 ExpMin= 4.38D-02 ExpMax= 5.48D+03 ExpMxC= 8.25D+02 IAcc=3 IRadAn=         5 AccDes= 0.00D+00
 Harris functional with IExCor=  402 and IRadAn=       5 diagonalized for initial guess.
 HarFok:  IExCor=  402 AccDes= 0.00D+00 IRadAn=         5 IDoV= 1 UseB2=F ITyADJ=14
 ICtDFT=  3500011 ScaDFX=  1.000000  1.000000  1.000000  1.000000
 FoFCou: FMM=F IPFlag=           0 FMFlag=      100000 FMFlg1=           0
         NFxFlg=           0 DoJE=T BraDBF=F KetDBF=T FulRan=T
         wScrn=  0.000000 ICntrl=       500 IOpCl=  0 I1Cent=   200000004 NGrid=           0
         NMat0=    1 NMatS0=      1 NMatT0=    0 NMatD0=    1 NMtDS0=    0 NMtDT0=    0
 Petite list used in FoFCou.
 Requested convergence on RMS density matrix=1.00D-08 within 128 cycles.
 Requested convergence on MAX density matrix=1.00D-06.
 Requested convergence on             energy=1.00D-06.
 No special actions if energy rises.
 SCF Done:  E(RB3LYP) =  -768.558040285     A.U. after   14 cycles
            NFock= 14  Conv=0.95D-08     -V/T= 2.0100

 **********************************************************************

            Population analysis using the SCF Density.

 **********************************************************************

 Orbital symmetries:
       Occupied  (A) (A) (A) (A) (A) (A) (A) (A) (A) (A) (A) (A)
                 (A) (A) (A) (A) (A) (A) (A) (A) (A) (A) (A) (A)
                 (A) (A) (A) (A) (A) (A) (A) (A) (A) (A) (A) (A)
                 (A) (A) (A) (A) (A) (A) (A) (A) (A) (A) (A) (A)
                 (A) (A) (A) (A) (A) (A) (A) (A) (A) (A) (A) (A)
                 (A) (A) (A)
       Virtual   (A) (A) (A) (A) (A) (A) (A) (A) (A) (A) (A) (A)
                 (A) (A) (A) (A) (A) (A) (A) (A) (A) (A) (A) (A)
                 (A) (A) (A) (A) (A) (A) (A) (A) (A) (A) (A) (A)
                 (A) (A) (A) (A) (A) (A) (A) (A) (A) (A) (A) (A)
                 (A) (A) (A) (A) (A) (A) (A) (A) (A) (A) (A) (A)
                 (A) (A) (A) (A) (A) (A) (A) (A) (A) (A) (A) (A)
                 (A) (A) (A) (A) (A) (A) (A) (A) (A) (A) (A) (A)
                 (A) (A) (A) (A) (A) (A) (A) (A) (A) (A) (A) (A)
                 (A) (A) (A) (A) (A) (A) (A) (A) (A) (A) (A) (A)
                 (A) (A) (A) (A) (A) (A) (A) (A) (A) (A) (A) (A)
                 (A) (A) (A) (A) (A) (A) (A) (A) (A) (A) (A) (A)
                 (A) (A) (A) (A) (A) (A) (A) (A) (A) (A) (A) (A)
                 (A) (A) (A) (A) (A) (A) (A) (A) (A) (A) (A) (A)
                 (A) (A) (A) (A) (A) (A) (A) (A) (A) (A) (A) (A)
                 (A) (A) (A) (A) (A) (A) (A) (A) (A) (A) (A) (A)
                 (A) (A) (A) (A) (A) (A) (A) (A) (A) (A) (A) (A)
                 (A) (A) (A) (A) (A) (A) (A) (A) (A) (A) (A) (A)
                 (A) (A) (A) (A) (A) (A) (A) (A) (A) (A) (A) (A)
                 (A) (A) (A) (A) (A) (A) (A) (A) (A) (A) (A) (A)
                 (A) (A) (A) (A) (A) (A) (A) (A) (A) (A) (A) (A)
                 (A) (A) (A) (A) (A) (A) (A) (A) (A) (A) (A) (A)
                 (A) (A) (A) (A) (A) (A) (A) (A) (A) (A) (A) (A)
                 (A) (A) (A) (A) (A) (A) (A) (A) (A) (A) (A) (A)
                 (A) (A) (A) (A) (A) (A) (A) (A) (A) (A) (A) (A)
                 (A) (A) (A) (A) (A) (A) (A) (A) (A) (A) (A) (A)
                 (A) (A) (A)
 The electronic state is 1-A.
 Alpha  occ. eigenvalues --  -19.19145 -19.19145 -10.26053 -10.26053 -10.25111
 Alpha  occ. eigenvalues --  -10.25111 -10.21619 -10.21618 -10.20529 -10.20529
 Alpha  occ. eigenvalues --  -10.20369 -10.20369 -10.20154 -10.20154 -10.19676
 Alpha  occ. eigenvalues --  -10.19676 -10.19066 -10.18852  -1.05976  -1.05976
 Alpha  occ. eigenvalues --   -0.86603  -0.86348  -0.79204  -0.77360  -0.75975
 Alpha  occ. eigenvalues --   -0.75869  -0.73268  -0.71237  -0.69167  -0.62553
 Alpha  occ. eigenvalues --   -0.62163  -0.61715  -0.60060  -0.55209  -0.54201
 Alpha  occ. eigenvalues --   -0.52378  -0.50511  -0.48986  -0.48755  -0.47165
 Alpha  occ. eigenvalues --   -0.47164  -0.45687  -0.45598  -0.43420  -0.43388
 Alpha  occ. eigenvalues --   -0.42668  -0.42524  -0.40225  -0.39381  -0.39234
 Alpha  occ. eigenvalues --   -0.38882  -0.37213  -0.37017  -0.35246  -0.33849
 Alpha  occ. eigenvalues --   -0.33777  -0.33497  -0.28969  -0.26856  -0.26340
 Alpha  occ. eigenvalues --   -0.26296  -0.24411  -0.19830
 Alpha virt. eigenvalues --   -0.04488  -0.01871  -0.01669  -0.00029   0.00217
 Alpha virt. eigenvalues --    0.00606   0.01351   0.02093   0.02439   0.02856
 Alpha virt. eigenvalues --    0.03158   0.04042   0.04424   0.04485   0.04623
 Alpha virt. eigenvalues --    0.04710   0.05159   0.06091   0.06606   0.07099
 Alpha virt. eigenvalues --    0.07379   0.07879   0.08710   0.09092   0.09357
 Alpha virt. eigenvalues --    0.09451   0.09564   0.10546   0.10638   0.11266
 Alpha virt. eigenvalues --    0.11538   0.12192   0.13171   0.13308   0.13756
 Alpha virt. eigenvalues --    0.13888   0.13956   0.14384   0.14668   0.14788
 Alpha virt. eigenvalues --    0.14920   0.15474   0.15761   0.15854   0.16328
 Alpha virt. eigenvalues --    0.16727   0.17503   0.17907   0.18101   0.19263
 Alpha virt. eigenvalues --    0.19829   0.19988   0.20146   0.20344   0.21090
 Alpha virt. eigenvalues --    0.21150   0.21515   0.22450   0.22605   0.22875
 Alpha virt. eigenvalues --    0.23424   0.23610   0.23722   0.24040   0.24682
 Alpha virt. eigenvalues --    0.25033   0.25327   0.25398   0.25454   0.26309
 Alpha virt. eigenvalues --    0.26369   0.26886   0.27530   0.27840   0.28319
 Alpha virt. eigenvalues --    0.28837   0.29464   0.29779   0.30357   0.30373
 Alpha virt. eigenvalues --    0.30736   0.30966   0.32198   0.33042   0.33281
 Alpha virt. eigenvalues --    0.33547   0.34387   0.34553   0.35554   0.36026
 Alpha virt. eigenvalues --    0.36389   0.37012   0.37079   0.38250   0.39263
 Alpha virt. eigenvalues --    0.39470   0.41199   0.41605   0.43159   0.43213
 Alpha virt. eigenvalues --    0.44875   0.46695   0.48015   0.51164   0.56235
 Alpha virt. eigenvalues --    0.58194   0.60509   0.60994   0.64421   0.66394
 Alpha virt. eigenvalues --    0.66485   0.67170   0.67305   0.67890   0.68136
 Alpha virt. eigenvalues --    0.68710   0.68850   0.68956   0.70169   0.71393
 Alpha virt. eigenvalues --    0.71784   0.72863   0.72952   0.73920   0.74367
 Alpha virt. eigenvalues --    0.74745   0.75436   0.76438   0.76453   0.77953
 Alpha virt. eigenvalues --    0.78224   0.78721   0.80002   0.80607   0.81177
 Alpha virt. eigenvalues --    0.82410   0.84043   0.84362   0.85111   0.88737
 Alpha virt. eigenvalues --    0.89663   0.89818   0.90260   0.90621   0.91961
 Alpha virt. eigenvalues --    0.93523   0.93769   0.94701   0.94771   0.97559
 Alpha virt. eigenvalues --    0.97727   0.98170   0.99823   1.00273   1.00319
 Alpha virt. eigenvalues --    1.03410   1.03699   1.05700   1.06766   1.09100
 Alpha virt. eigenvalues --    1.10023   1.10812   1.12114   1.15293   1.15478
 Alpha virt. eigenvalues --    1.17446   1.18019   1.20823   1.21130   1.21131
 Alpha virt. eigenvalues --    1.21349   1.22075   1.22217   1.23484   1.23643
 Alpha virt. eigenvalues --    1.24436   1.27033   1.27168   1.27180   1.29096
 Alpha virt. eigenvalues --    1.30305   1.30661   1.31387   1.34981   1.36085
 Alpha virt. eigenvalues --    1.36820   1.37002   1.38732   1.40628   1.42722
 Alpha virt. eigenvalues --    1.43686   1.43712   1.44872   1.45172   1.45782
 Alpha virt. eigenvalues --    1.49444   1.49848   1.50289   1.51147   1.53688
 Alpha virt. eigenvalues --    1.54100   1.54459   1.56333   1.57196   1.58590
 Alpha virt. eigenvalues --    1.61414   1.69144   1.71331   1.73258   1.77698
 Alpha virt. eigenvalues --    1.83509   1.83734   1.83876   1.86523   1.87457
 Alpha virt. eigenvalues --    1.87953   1.89737   1.91415   1.92075   1.92160
 Alpha virt. eigenvalues --    1.94598   1.96199   1.96789   1.98133   1.99184
 Alpha virt. eigenvalues --    1.99337   2.00519   2.01591   2.03089   2.06497
 Alpha virt. eigenvalues --    2.08308   2.09986   2.10196   2.10859   2.11904
 Alpha virt. eigenvalues --    2.13997   2.15075   2.15385   2.15994   2.17681
 Alpha virt. eigenvalues --    2.19194   2.21166   2.24874   2.24878   2.26241
 Alpha virt. eigenvalues --    2.28771   2.28855   2.30437   2.30463   2.31713
 Alpha virt. eigenvalues --    2.34006   2.36135   2.36611   2.36999   2.47240
 Alpha virt. eigenvalues --    2.50616   2.51054   2.51075   2.51389   2.56991
 Alpha virt. eigenvalues --    2.57873   2.60975   2.64354   2.64765   2.65963
 Alpha virt. eigenvalues --    2.70112   2.71629   2.76429   2.76544   2.79394
 Alpha virt. eigenvalues --    2.81035   2.81393   2.82311   2.87500   2.92663
 Alpha virt. eigenvalues --    2.93712   3.01394   3.03791   3.03819   3.09653
 Alpha virt. eigenvalues --    3.16142   3.30255   3.35258   3.42506   3.60951
 Alpha virt. eigenvalues --    4.23082   4.24363   4.24726   4.25300   4.25419
 Alpha virt. eigenvalues --    4.26620   4.30066   4.34100   4.39093   4.40191
 Alpha virt. eigenvalues --    4.40740   4.44610   4.48124   4.50687   4.61996
 Alpha virt. eigenvalues --    4.71410   4.82270   5.02036
          Condensed to atoms (all electrons):
               1          2          3          4          5          6
     1  C   12.020723  -4.252747   1.444456   1.309886  -3.055531  -0.453880
     2  C   -4.252747  15.361563  -1.355530  -6.932698   2.956368  -0.512612
     3  C    1.444456  -1.355530   7.870323  -0.994129   0.055096  -0.523741
     4  C    1.309886  -6.932698  -0.994129  21.633589  -8.248590  -0.089827
     5  C   -3.055531   2.956368   0.055096  -8.248590  13.311849   0.059361
     6  C   -0.453880  -0.512612  -0.523741  -0.089827   0.059361   7.556816
     7  H    0.375038  -0.134086   0.042030  -0.002092   0.029662  -0.006198
     8  H   -0.111020   0.390590  -0.043065   0.022666  -0.017377   0.020540
     9  H   -0.010215   0.011777  -0.034217   0.373070  -0.094688  -0.000387
    10  H    0.008097   0.001002   0.046969   0.054455   0.228563  -0.032557
    11  C   -0.544950   0.962232  -0.443202  -0.560572   0.347993  -0.127258
    12  C    0.002870  -0.026862  -0.654605   0.406440  -0.386679  -0.076622
    13  C    0.070346  -0.164237   0.455182  -0.167026   0.162648   0.026632
    14  C   -0.059525   0.180126  -0.164275  -0.223888   0.147296  -0.011929
    15  C    0.046508  -0.223909  -0.166990   0.490315  -0.267655   0.008165
    16  C    0.030410  -0.059525   0.070393   0.046496  -0.034908   0.001588
    17  H    0.000051   0.001536  -0.000255   0.000251   0.000017   0.000014
    18  C   -0.034903   0.147299   0.162595  -0.267627   0.059289  -0.000914
    19  H    0.000031  -0.000006   0.000282   0.002427  -0.000213   0.000027
    20  C    0.001587  -0.011933   0.026635   0.008167  -0.000913   0.000510
    21  H    0.000003   0.000061  -0.000043  -0.000028  -0.000003   0.000000
    22  H   -0.000002  -0.000062  -0.000242   0.000180   0.000005   0.000000
    23  O   -0.596410   0.012574  -0.040758  -0.037161   0.176849   0.478588
    24  C    0.049681   0.021638  -0.026700   0.034646  -0.091435  -0.173950
    25  H   -0.027781   0.000655  -0.001834   0.057866   0.041780  -0.083473
    26  H   -0.027795   0.000652  -0.001829   0.057864   0.041816  -0.083491
    27  H    0.046050   0.002646   0.000800  -0.025719  -0.066860   0.055135
    28  O   -0.000001   0.000034  -0.000045  -0.000070  -0.000002   0.000000
    29  C   -0.000006   0.000026   0.000549  -0.000070   0.000038   0.000002
    30  H    0.000000   0.000000   0.000000   0.000000   0.000000   0.000000
    31  H    0.000000   0.000000  -0.000002   0.000001   0.000000   0.000000
    32  H    0.000000   0.000000  -0.000002   0.000001   0.000000   0.000000
               7          8          9         10         11         12
     1  C    0.375038  -0.111020  -0.010215   0.008097  -0.544950   0.002870
     2  C   -0.134086   0.390590   0.011777   0.001002   0.962232  -0.026862
     3  C    0.042030  -0.043065  -0.034217   0.046969  -0.443202  -0.654605
     4  C   -0.002092   0.022666   0.373070   0.054455  -0.560572   0.406440
     5  C    0.029662  -0.017377  -0.094688   0.228563   0.347993  -0.386679
     6  C   -0.006198   0.020540  -0.000387  -0.032557  -0.127258  -0.076622
     7  H    0.518454  -0.004349   0.000014  -0.000150  -0.005099   0.001145
     8  H   -0.004349   0.525278  -0.000158   0.000016   0.025026  -0.003939
     9  H    0.000014  -0.000158   0.527302  -0.004677   0.037474  -0.000539
    10  H   -0.000150   0.000016  -0.004677   0.541880  -0.006318   0.001329
    11  C   -0.005099   0.025026   0.037474  -0.006318   6.699447   0.358814
    12  C    0.001145  -0.003939  -0.000539   0.001329   0.358814   6.699146
    13  C   -0.000043  -0.000256   0.000282  -0.000242  -0.654763  -0.442774
    14  C    0.000061   0.001536  -0.000005  -0.000062  -0.026616   0.961718
    15  C   -0.000028   0.000251   0.002426   0.000179   0.406324  -0.560371
    16  C    0.000003   0.000051   0.000031  -0.000002   0.002719  -0.544818
    17  H    0.000000   0.000002   0.000000   0.000000  -0.003937   0.025024
    18  C   -0.000003   0.000017  -0.000212   0.000005  -0.386592   0.347921
    19  H    0.000000   0.000000   0.000001   0.000000  -0.000543   0.037481
    20  C    0.000000   0.000014   0.000027   0.000000  -0.076629  -0.127234
    21  H    0.000000   0.000000   0.000000   0.000000   0.001145  -0.005099
    22  H    0.000000   0.000000   0.000000   0.000000   0.001329  -0.006318
    23  O   -0.006635  -0.000488  -0.000575  -0.012467  -0.000903  -0.000751
    24  C   -0.002134   0.000296   0.000575  -0.002609   0.007562  -0.003509
    25  H    0.000005   0.000000   0.000003  -0.000553  -0.000006   0.000033
    26  H    0.000005   0.000000   0.000003  -0.000553  -0.000006   0.000033
    27  H   -0.000014   0.000000   0.000000   0.000117  -0.000006  -0.000005
    28  O    0.000000   0.000000   0.000000   0.000000  -0.000751  -0.000903
    29  C    0.000000   0.000000   0.000000   0.000000  -0.003509   0.007564
    30  H    0.000000   0.000000   0.000000   0.000000  -0.000005  -0.000006
    31  H    0.000000   0.000000   0.000000   0.000000   0.000033  -0.000006
    32  H    0.000000   0.000000   0.000000   0.000000   0.000033  -0.000006
              13         14         15         16         17         18
     1  C    0.070346  -0.059525   0.046508   0.030410   0.000051  -0.034903
     2  C   -0.164237   0.180126  -0.223909  -0.059525   0.001536   0.147299
     3  C    0.455182  -0.164275  -0.166990   0.070393  -0.000255   0.162595
     4  C   -0.167026  -0.223888   0.490315   0.046496   0.000251  -0.267627
     5  C    0.162648   0.147296  -0.267655  -0.034908   0.000017   0.059289
     6  C    0.026632  -0.011929   0.008165   0.001588   0.000014  -0.000914
     7  H   -0.000043   0.000061  -0.000028   0.000003   0.000000  -0.000003
     8  H   -0.000256   0.001536   0.000251   0.000051   0.000002   0.000017
     9  H    0.000282  -0.000005   0.002426   0.000031   0.000000  -0.000212
    10  H   -0.000242  -0.000062   0.000179  -0.000002   0.000000   0.000005
    11  C   -0.654763  -0.026616   0.406324   0.002719  -0.003937  -0.386592
    12  C   -0.442774   0.961718  -0.560371  -0.544818   0.025024   0.347921
    13  C    7.869790  -1.354726  -0.994087   1.444146  -0.043073   0.054924
    14  C   -1.354726  15.359983  -6.931003  -4.252296   0.390585   2.955222
    15  C   -0.994087  -6.931003  21.629584   1.309483   0.022661  -8.245817
    16  C    1.444146  -4.252296   1.309483  12.020600  -0.111007  -3.055293
    17  H   -0.043073   0.390585   0.022661  -0.111007   0.525275  -0.017374
    18  C    0.054924   2.955222  -8.245817  -3.055293  -0.017374  13.310122
    19  H   -0.034207   0.011781   0.373068  -0.010215  -0.000158  -0.094699
    20  C   -0.523782  -0.512594  -0.090195  -0.453688   0.020542   0.059507
    21  H    0.042025  -0.134081  -0.002091   0.375027  -0.004349   0.029663
    22  H    0.046973   0.001001   0.054441   0.008097   0.000016   0.228572
    23  O   -0.000045   0.000034  -0.000070  -0.000001   0.000000  -0.000002
    24  C    0.000549   0.000026  -0.000070  -0.000006   0.000000   0.000038
    25  H   -0.000002   0.000000   0.000001   0.000000   0.000000   0.000000
    26  H   -0.000002   0.000000   0.000001   0.000000   0.000000   0.000000
    27  H    0.000000   0.000000   0.000000   0.000000   0.000000   0.000000
    28  O   -0.040763   0.012578  -0.037125  -0.596412  -0.000488   0.176832
    29  C   -0.026699   0.021629   0.034653   0.049662   0.000296  -0.091399
    30  H    0.000800   0.002647  -0.025718   0.046052   0.000000  -0.066870
    31  H   -0.001833   0.000659   0.057870  -0.027813   0.000000   0.041820
    32  H   -0.001827   0.000647   0.057850  -0.027767   0.000000   0.041802
              19         20         21         22         23         24
     1  C    0.000031   0.001587   0.000003  -0.000002  -0.596410   0.049681
     2  C   -0.000006  -0.011933   0.000061  -0.000062   0.012574   0.021638
     3  C    0.000282   0.026635  -0.000043  -0.000242  -0.040758  -0.026700
     4  C    0.002427   0.008167  -0.000028   0.000180  -0.037161   0.034646
     5  C   -0.000213  -0.000913  -0.000003   0.000005   0.176849  -0.091435
     6  C    0.000027   0.000510   0.000000   0.000000   0.478588  -0.173950
     7  H    0.000000   0.000000   0.000000   0.000000  -0.006635  -0.002134
     8  H    0.000000   0.000014   0.000000   0.000000  -0.000488   0.000296
     9  H    0.000001   0.000027   0.000000   0.000000  -0.000575   0.000575
    10  H    0.000000   0.000000   0.000000   0.000000  -0.012467  -0.002609
    11  C   -0.000543  -0.076629   0.001145   0.001329  -0.000903   0.007562
    12  C    0.037481  -0.127234  -0.005099  -0.006318  -0.000751  -0.003509
    13  C   -0.034207  -0.523782   0.042025   0.046973  -0.000045   0.000549
    14  C    0.011781  -0.512594  -0.134081   0.001001   0.000034   0.000026
    15  C    0.373068  -0.090195  -0.002091   0.054441  -0.000070  -0.000070
    16  C   -0.010215  -0.453688   0.375027   0.008097  -0.000001  -0.000006
    17  H   -0.000158   0.020542  -0.004349   0.000016   0.000000   0.000000
    18  C   -0.094699   0.059507   0.029663   0.228572  -0.000002   0.000038
    19  H    0.527303  -0.000391   0.000014  -0.004678   0.000000   0.000000
    20  C   -0.000391   7.556860  -0.006191  -0.032557   0.000000   0.000002
    21  H    0.000014  -0.006191   0.518456  -0.000150   0.000000   0.000000
    22  H   -0.004678  -0.032557  -0.000150   0.541882   0.000000   0.000000
    23  O    0.000000   0.000000   0.000000   0.000000   8.453363   0.090336
    24  C    0.000000   0.000002   0.000000   0.000000   0.090336   5.252497
    25  H    0.000000   0.000000   0.000000   0.000000  -0.033868   0.383900
    26  H    0.000000   0.000000   0.000000   0.000000  -0.033868   0.383897
    27  H    0.000000   0.000000   0.000000   0.000000  -0.059094   0.396943
    28  O   -0.000575   0.478566  -0.006635  -0.012468   0.000000   0.000000
    29  C    0.000575  -0.173984  -0.002134  -0.002608   0.000000   0.000000
    30  H    0.000000   0.055144  -0.000014   0.000117   0.000000   0.000000
    31  H    0.000003  -0.083499   0.000005  -0.000553   0.000000   0.000000
    32  H    0.000003  -0.083485   0.000005  -0.000553   0.000000   0.000000
              25         26         27         28         29         30
     1  C   -0.027781  -0.027795   0.046050  -0.000001  -0.000006   0.000000
     2  C    0.000655   0.000652   0.002646   0.000034   0.000026   0.000000
     3  C   -0.001834  -0.001829   0.000800  -0.000045   0.000549   0.000000
     4  C    0.057866   0.057864  -0.025719  -0.000070  -0.000070   0.000000
     5  C    0.041780   0.041816  -0.066860  -0.000002   0.000038   0.000000
     6  C   -0.083473  -0.083491   0.055135   0.000000   0.000002   0.000000
     7  H    0.000005   0.000005  -0.000014   0.000000   0.000000   0.000000
     8  H    0.000000   0.000000   0.000000   0.000000   0.000000   0.000000
     9  H    0.000003   0.000003   0.000000   0.000000   0.000000   0.000000
    10  H   -0.000553  -0.000553   0.000117   0.000000   0.000000   0.000000
    11  C   -0.000006  -0.000006  -0.000006  -0.000751  -0.003509  -0.000005
    12  C    0.000033   0.000033  -0.000005  -0.000903   0.007564  -0.000006
    13  C   -0.000002  -0.000002   0.000000  -0.040763  -0.026699   0.000800
    14  C    0.000000   0.000000   0.000000   0.012578   0.021629   0.002647
    15  C    0.000001   0.000001   0.000000  -0.037125   0.034653  -0.025718
    16  C    0.000000   0.000000   0.000000  -0.596412   0.049662   0.046052
    17  H    0.000000   0.000000   0.000000  -0.000488   0.000296   0.000000
    18  C    0.000000   0.000000   0.000000   0.176832  -0.091399  -0.066870
    19  H    0.000000   0.000000   0.000000  -0.000575   0.000575   0.000000
    20  C    0.000000   0.000000   0.000000   0.478566  -0.173984   0.055144
    21  H    0.000000   0.000000   0.000000  -0.006635  -0.002134  -0.000014
    22  H    0.000000   0.000000   0.000000  -0.012468  -0.002608   0.000117
    23  O   -0.033868  -0.033868  -0.059094   0.000000   0.000000   0.000000
    24  C    0.383900   0.383897   0.396943   0.000000   0.000000   0.000000
    25  H    0.530514  -0.045353  -0.028509   0.000000   0.000000   0.000000
    26  H   -0.045353   0.530512  -0.028510   0.000000   0.000000   0.000000
    27  H   -0.028509  -0.028510   0.495518   0.000000   0.000000   0.000000
    28  O    0.000000   0.000000   0.000000   8.453360   0.090339  -0.059095
    29  C    0.000000   0.000000   0.000000   0.090339   5.252513   0.396940
    30  H    0.000000   0.000000   0.000000  -0.059095   0.396940   0.495524
    31  H    0.000000   0.000000   0.000000  -0.033868   0.383908  -0.028510
    32  H    0.000000   0.000000   0.000000  -0.033871   0.383894  -0.028511
              31         32
     1  C    0.000000   0.000000
     2  C    0.000000   0.000000
     3  C   -0.000002  -0.000002
     4  C    0.000001   0.000001
     5  C    0.000000   0.000000
     6  C    0.000000   0.000000
     7  H    0.000000   0.000000
     8  H    0.000000   0.000000
     9  H    0.000000   0.000000
    10  H    0.000000   0.000000
    11  C    0.000033   0.000033
    12  C   -0.000006  -0.000006
    13  C   -0.001833  -0.001827
    14  C    0.000659   0.000647
    15  C    0.057870   0.057850
    16  C   -0.027813  -0.027767
    17  H    0.000000   0.000000
    18  C    0.041820   0.041802
    19  H    0.000003   0.000003
    20  C   -0.083499  -0.083485
    21  H    0.000005   0.000005
    22  H   -0.000553  -0.000553
    23  O    0.000000   0.000000
    24  C    0.000000   0.000000
    25  H    0.000000   0.000000
    26  H    0.000000   0.000000
    27  H    0.000000   0.000000
    28  O   -0.033868  -0.033871
    29  C    0.383908   0.383894
    30  H   -0.028510  -0.028511
    31  H    0.530522  -0.045356
    32  H   -0.045356   0.530522
 Mulliken charges:
               1
     1  C   -0.230970
     2  C   -0.376571
     3  C    0.276154
     4  C   -0.948823
     5  C    0.646223
     6  C   -0.030538
     7  H    0.194415
     8  H    0.194369
     9  H    0.192689
    10  H    0.177578
    11  C   -0.008467
    12  C   -0.008471
    13  C    0.276088
    14  C   -0.376530
    15  C   -0.948650
    16  C   -0.231011
    17  H    0.194371
    18  C    0.646076
    19  H    0.192688
    20  C   -0.030484
    21  H    0.194414
    22  H    0.177577
    23  O   -0.388645
    24  C   -0.322174
    25  H    0.206623
    26  H    0.206626
    27  H    0.211509
    28  O   -0.388635
    29  C   -0.322180
    30  H    0.211507
    31  H    0.206620
    32  H    0.206621
 Sum of Mulliken charges =   0.00000
 Mulliken charges with hydrogens summed into heavy atoms:
               1
     1  C   -0.036556
     2  C   -0.182202
     3  C    0.276154
     4  C   -0.756134
     5  C    0.823801
     6  C   -0.030538
    11  C   -0.008467
    12  C   -0.008471
    13  C    0.276088
    14  C   -0.182160
    15  C   -0.755962
    16  C   -0.036596
    18  C    0.823654
    20  C   -0.030484
    23  O   -0.388645
    24  C    0.302585
    28  O   -0.388635
    29  C    0.302569
 Electronic spatial extent (au):  <R**2>=           9897.2567
 Charge=              0.0000 electrons
 Dipole moment (field-independent basis, Debye):
    X=              0.0002    Y=             -2.7361    Z=              0.0003  Tot=              2.7361
 Quadrupole moment (field-independent basis, Debye-Ang):
   XX=            -74.2910   YY=            -94.8142   ZZ=           -112.4589
   XY=             -0.0005   XZ=             -0.0026   YZ=              0.0000
 Traceless Quadrupole moment (field-independent basis, Debye-Ang):
   XX=             19.5637   YY=             -0.9595   ZZ=            -18.6042
   XY=             -0.0005   XZ=             -0.0026   YZ=              0.0000
 Octapole moment (field-independent basis, Debye-Ang**2):
  XXX=              0.0101  YYY=              3.9621  ZZZ=              0.0023  XYY=              0.0015
  XXY=           -139.5452  XXZ=              0.0128  XZZ=              0.0005  YZZ=             -2.5019
  YYZ=              0.0007  XYZ=              0.0062
 Hexadecapole moment (field-independent basis, Debye-Ang**3):
 XXXX=         -10181.0240 YYYY=           -697.9341 ZZZZ=           -147.1245 XXXY=             -0.0225
 XXXZ=             -0.1339 YYYX=             -0.0010 YYYZ=              0.0026 ZZZX=             -0.0077
 ZZZY=             -0.0009 XXYY=          -2020.9223 XXZZ=          -2180.4610 YYZZ=           -162.8963
 XXYZ=             -0.0102 YYXZ=              0.0047 ZZXY=             -0.0017
 N-N= 1.077130348246D+03 E-N=-3.938407084248D+03  KE= 7.609550746993D+02
 Evaluate density.
 Using the total density.
 Monte-Carlo method of calculating molar volume:
 based on  0.001 e/bohr**3 density envelope.
 Number of points per bohr**3 =   20 CutOff= 1.00D-04
 Using the SCF density.
 There are       417 points.  Will hold       417 in memory.
 LenV=  4026238612 MDV=  4026531840.
 Box volume = 9098.998 fraction occupied=0.221
 Integrated density= 6.9945113092506972D+02 error= 5.7345113092506972D+02
 Molar volume = 2007.453 bohr**3/mol (179.143 cm**3/mol)
 Recommended a0 for SCRF calculation =  5.06 angstrom (  9.56 bohr)
 Calling FoFJK, ICntrl=      2127 FMM=F ISym2X=0 I1Cent= 0 IOpClX= 0 NMat=1 NMatS=1 NMatT=0.
 ***** Axes restored to original set *****
 -------------------------------------------------------------------
 Center     Atomic                   Forces (Hartrees/Bohr)
 Number     Number              X              Y              Z
 -------------------------------------------------------------------
      1        6           0.000560005   -0.002658708    0.000001090
      2        6          -0.000565544   -0.003163414    0.000004800
      3        6          -0.002180106   -0.000090858   -0.000006750
      4        6          -0.000090325    0.003337596    0.000002187
      5        6           0.000616236    0.002137353   -0.000000026
      6        6          -0.015584828   -0.001119882   -0.000002836
      7        1          -0.000287062    0.001599944   -0.000000896
      8        1           0.000396066    0.000993201   -0.000000432
      9        1           0.000344266   -0.000930250    0.000000472
     10        1          -0.000494480   -0.000851801    0.000000136
     11        6           0.004778454   -0.000008915    0.000002751
     12        6          -0.004778383   -0.000008411   -0.000001225
     13        6           0.002179635   -0.000084903   -0.000000703
     14        6           0.000565154   -0.003167237   -0.000000312
     15        6           0.000091429    0.003334910   -0.000000467
     16        6          -0.000554918   -0.002656662    0.000001548
     17        1          -0.000395548    0.000993783    0.000000583
     18        6          -0.000610543    0.002134937    0.000001544
     19        1          -0.000345882   -0.000928682    0.000000079
     20        6           0.015577975   -0.001121626   -0.000004951
     21        1           0.000285520    0.001600143   -0.000000617
     22        1           0.000492907   -0.000850544    0.000000048
     23        8           0.006290661   -0.012575685    0.000002521
     24        6           0.010626739    0.011097713   -0.000001839
     25        1           0.000579619    0.000711066   -0.000616872
     26        1           0.000580920    0.000711462    0.000617216
     27        1          -0.000619962    0.000810123   -0.000000020
     28        8          -0.006296447   -0.012564208    0.000000215
     29        6          -0.010618249    0.011077998   -0.000000190
     30        1           0.000617780    0.000814020    0.000001996
     31        1          -0.000579610    0.000714033    0.000615814
     32        1          -0.000581483    0.000713501   -0.000614862
 -------------------------------------------------------------------
 Cartesian Forces:  Max     0.015584828 RMS     0.003947675

 GradGradGradGradGradGradGradGradGradGradGradGradGradGradGradGradGradGrad
 Berny optimization.
 FormGI is forming the generalized inverse of G from B-inverse, IUseBI=4.
 Internal  Forces:  Max     0.017330820 RMS     0.003018645
 Search for a local minimum.
 Step number   1 out of a maximum of  159
 All quantities printed in internal units (Hartrees-Bohrs-Radians)
 Mixed Optimization -- RFO/linear search
 Second derivative matrix not updated -- first step.
 ITU=  0
     Eigenvalues ---    0.00230   0.00998   0.00999   0.01012   0.01370
     Eigenvalues ---    0.01774   0.01827   0.01827   0.01854   0.01931
     Eigenvalues ---    0.01934   0.02016   0.02017   0.02030   0.02031
     Eigenvalues ---    0.02048   0.02048   0.02076   0.02076   0.02096
     Eigenvalues ---    0.02096   0.02109   0.02109   0.02154   0.02155
     Eigenvalues ---    0.03739   0.04461   0.09914   0.09914   0.10572
     Eigenvalues ---    0.10572   0.16000   0.16000   0.16000   0.16000
     Eigenvalues ---    0.16000   0.16000   0.16000   0.16000   0.16000
     Eigenvalues ---    0.16000   0.16000   0.16000   0.16000   0.16000
     Eigenvalues ---    0.22000   0.22000   0.22964   0.22964   0.24000
     Eigenvalues ---    0.24000   0.25000   0.25000   0.25000   0.25000
     Eigenvalues ---    0.25000   0.25000   0.34024   0.34024   0.34025
     Eigenvalues ---    0.34025   0.34881   0.34881   0.35432   0.35432
     Eigenvalues ---    0.35462   0.35462   0.35571   0.35571   0.35649
     Eigenvalues ---    0.35650   0.37931   0.37935   0.40517   0.40518
     Eigenvalues ---    0.41288   0.41288   0.41890   0.41890   0.44167
     Eigenvalues ---    0.44168   0.44490   0.44490   0.45535   0.45535
     Eigenvalues ---    0.47061   0.47061   0.47358   0.47358   0.95080
 RFO step:  Lambda=-3.32715335D-03 EMin= 2.30000000D-03
 Linear search not attempted -- first point.
 Iteration  1 RMS(Cart)=  0.03376281 RMS(Int)=  0.00016544
 Iteration  2 RMS(Cart)=  0.00034554 RMS(Int)=  0.00000494
 Iteration  3 RMS(Cart)=  0.00000011 RMS(Int)=  0.00000494
 Variable       Old X    -DE/DX   Delta X   Delta X   Delta X     New X
                                 (Linear)    (Quad)   (Total)
    R1        2.62419  -0.00126   0.00000  -0.00264  -0.00264   2.62155
    R2        2.65366  -0.00151   0.00000  -0.00326  -0.00326   2.65040
    R3        2.04758   0.00152   0.00000   0.00422   0.00422   2.05180
    R4        2.67764  -0.00233   0.00000  -0.00547  -0.00547   2.67217
    R5        2.04931   0.00106   0.00000   0.00295   0.00295   2.05227
    R6        2.66473  -0.00250   0.00000  -0.00572  -0.00572   2.65901
    R7        2.69063  -0.00017   0.00000  -0.00041  -0.00041   2.69022
    R8        2.63992  -0.00100   0.00000  -0.00216  -0.00216   2.63776
    R9        2.04979   0.00098   0.00000   0.00274   0.00274   2.05252
   R10        2.64907  -0.00177   0.00000  -0.00379  -0.00379   2.64528
   R11        2.04633   0.00098   0.00000   0.00274   0.00274   2.04907
   R12        2.62630  -0.01733   0.00000  -0.03634  -0.03634   2.58996
   R13        2.30676  -0.00495   0.00000  -0.00519  -0.00519   2.30157
   R14        2.69063  -0.00017   0.00000  -0.00041  -0.00041   2.69022
   R15        2.67765  -0.00234   0.00000  -0.00548  -0.00548   2.67217
   R16        2.66472  -0.00250   0.00000  -0.00571  -0.00571   2.65900
   R17        2.62419  -0.00126   0.00000  -0.00264  -0.00264   2.62155
   R18        2.04931   0.00106   0.00000   0.00296   0.00296   2.05227
   R19        2.63992  -0.00100   0.00000  -0.00216  -0.00216   2.63776
   R20        2.04979   0.00098   0.00000   0.00273   0.00273   2.05252
   R21        2.65366  -0.00151   0.00000  -0.00326  -0.00326   2.65040
   R22        2.04758   0.00152   0.00000   0.00422   0.00422   2.05180
   R23        2.64908  -0.00177   0.00000  -0.00380  -0.00380   2.64528
   R24        2.04633   0.00098   0.00000   0.00273   0.00273   2.04907
   R25        2.62630  -0.01733   0.00000  -0.03634  -0.03634   2.58996
   R26        2.74466  -0.01728   0.00000  -0.04517  -0.04517   2.69949
   R27        2.07289   0.00021   0.00000   0.00062   0.00062   2.07351
   R28        2.07289   0.00021   0.00000   0.00062   0.00062   2.07351
   R29        2.05868   0.00084   0.00000   0.00240   0.00240   2.06108
   R30        2.74460  -0.01727   0.00000  -0.04513  -0.04513   2.69947
   R31        2.05868   0.00084   0.00000   0.00239   0.00239   2.06108
   R32        2.07290   0.00021   0.00000   0.00061   0.00061   2.07351
   R33        2.07290   0.00021   0.00000   0.00061   0.00061   2.07351
    A1        2.09596  -0.00021   0.00000  -0.00079  -0.00079   2.09516
    A2        2.12102  -0.00050   0.00000  -0.00328  -0.00328   2.11775
    A3        2.06620   0.00070   0.00000   0.00407   0.00407   2.07027
    A4        2.10952   0.00028   0.00000   0.00108   0.00108   2.11060
    A5        2.09439  -0.00030   0.00000  -0.00153  -0.00153   2.09286
    A6        2.07927   0.00002   0.00000   0.00045   0.00045   2.07972
    A7        2.06220  -0.00001   0.00000  -0.00034  -0.00034   2.06186
    A8        2.10889   0.00002   0.00000   0.00023   0.00023   2.10911
    A9        2.11210  -0.00001   0.00000   0.00011   0.00011   2.11221
   A10        2.11585   0.00018   0.00000   0.00067   0.00067   2.11652
   A11        2.07922   0.00007   0.00000   0.00068   0.00068   2.07990
   A12        2.08812  -0.00026   0.00000  -0.00135  -0.00135   2.08677
   A13        2.08669  -0.00013   0.00000  -0.00042  -0.00042   2.08627
   A14        2.08245   0.00008   0.00000   0.00030   0.00030   2.08275
   A15        2.11405   0.00005   0.00000   0.00012   0.00012   2.11417
   A16        2.09615  -0.00012   0.00000  -0.00020  -0.00020   2.09596
   A17        2.01482   0.00008   0.00000   0.00021   0.00021   2.01502
   A18        2.17222   0.00003   0.00000  -0.00001  -0.00001   2.17221
   A19        2.10886   0.00002   0.00000   0.00024   0.00024   2.10910
   A20        2.11212  -0.00001   0.00000   0.00010   0.00010   2.11222
   A21        2.06220  -0.00001   0.00000  -0.00034  -0.00034   2.06186
   A22        2.10952   0.00028   0.00000   0.00108   0.00108   2.11060
   A23        2.07926   0.00002   0.00000   0.00045   0.00045   2.07972
   A24        2.09440  -0.00030   0.00000  -0.00154  -0.00154   2.09286
   A25        2.11585   0.00018   0.00000   0.00067   0.00067   2.11652
   A26        2.07924   0.00007   0.00000   0.00066   0.00066   2.07990
   A27        2.08810  -0.00026   0.00000  -0.00133  -0.00133   2.08677
   A28        2.09597  -0.00021   0.00000  -0.00080  -0.00080   2.09517
   A29        2.12103  -0.00050   0.00000  -0.00328  -0.00328   2.11775
   A30        2.06619   0.00071   0.00000   0.00408   0.00408   2.07027
   A31        2.08670  -0.00013   0.00000  -0.00043  -0.00043   2.08627
   A32        2.08245   0.00008   0.00000   0.00030   0.00030   2.08275
   A33        2.11404   0.00005   0.00000   0.00013   0.00013   2.11417
   A34        2.09614  -0.00011   0.00000  -0.00018  -0.00018   2.09596
   A35        2.01483   0.00008   0.00000   0.00019   0.00019   2.01502
   A36        2.17221   0.00003   0.00000   0.00000   0.00000   2.17221
   A37        2.07250  -0.00592   0.00000  -0.02338  -0.02338   2.04912
   A38        1.94179  -0.00116   0.00000  -0.00711  -0.00713   1.93466
   A39        1.94180  -0.00117   0.00000  -0.00712  -0.00714   1.93466
   A40        1.83639  -0.00046   0.00000  -0.00284  -0.00285   1.83354
   A41        1.91154   0.00131   0.00000   0.00806   0.00804   1.91958
   A42        1.91553   0.00073   0.00000   0.00441   0.00440   1.91993
   A43        1.91553   0.00073   0.00000   0.00441   0.00440   1.91993
   A44        2.07250  -0.00592   0.00000  -0.02337  -0.02337   2.04913
   A45        1.83644  -0.00046   0.00000  -0.00288  -0.00289   1.83355
   A46        1.94181  -0.00117   0.00000  -0.00712  -0.00714   1.93467
   A47        1.94180  -0.00117   0.00000  -0.00711  -0.00713   1.93467
   A48        1.91553   0.00073   0.00000   0.00441   0.00440   1.91992
   A49        1.91549   0.00073   0.00000   0.00444   0.00443   1.91992
   A50        1.91151   0.00131   0.00000   0.00808   0.00806   1.91957
   A51        3.13838   0.00001   0.00000   0.00013   0.00013   3.13851
   A52        3.13832   0.00001   0.00000   0.00040   0.00040   3.13872
   A53        3.14157   0.00000   0.00000   0.00002   0.00002   3.14159
   A54        3.14164   0.00000   0.00000  -0.00007  -0.00007   3.14157
    D1       -0.00002   0.00000   0.00000   0.00003   0.00003   0.00000
    D2       -3.14159   0.00000   0.00000  -0.00001  -0.00001   3.14159
    D3        3.14156   0.00000   0.00000   0.00004   0.00004  -3.14159
    D4        0.00000   0.00000   0.00000   0.00000   0.00000   0.00000
    D5       -0.00001   0.00000   0.00000   0.00002   0.00002   0.00001
    D6       -3.14158   0.00000   0.00000  -0.00002  -0.00002   3.14158
    D7        3.14159   0.00000   0.00000   0.00001   0.00001  -3.14159
    D8        0.00002   0.00000   0.00000  -0.00003  -0.00003  -0.00001
    D9        0.00006   0.00000   0.00000  -0.00007  -0.00007  -0.00001
   D10        3.14159   0.00000   0.00000   0.00000   0.00000   3.14159
   D11       -3.14157   0.00000   0.00000  -0.00003  -0.00003   3.14159
   D12       -0.00004   0.00000   0.00000   0.00004   0.00004   0.00001
   D13       -0.00005   0.00000   0.00000   0.00006   0.00006   0.00001
   D14        3.14155   0.00000   0.00000   0.00005   0.00005  -3.14158
   D15       -3.14158   0.00000   0.00000  -0.00001  -0.00001   3.14159
   D16        0.00002   0.00000   0.00000  -0.00002  -0.00002   0.00000
   D17        0.00019   0.00000   0.00000  -0.00003  -0.00003   0.00016
   D18       -3.14135   0.00000   0.00000  -0.00010  -0.00010  -3.14145
   D19       -3.14147   0.00000   0.00000   0.00006   0.00006  -3.14141
   D20        0.00018   0.00000   0.00000  -0.00001  -0.00001   0.00016
   D21        0.00002   0.00000   0.00000  -0.00002  -0.00002   0.00000
   D22       -3.14158   0.00000   0.00000  -0.00001  -0.00001  -3.14159
   D23       -3.14159   0.00000   0.00000   0.00000   0.00000  -3.14159
   D24        0.00000   0.00000   0.00000   0.00000   0.00000   0.00000
   D25        0.00002   0.00000   0.00000  -0.00003  -0.00003  -0.00001
   D26        3.14158   0.00000   0.00000   0.00002   0.00002  -3.14158
   D27       -3.14157   0.00000   0.00000  -0.00003  -0.00003   3.14158
   D28       -0.00001   0.00000   0.00000   0.00001   0.00001   0.00001
   D29        3.14156   0.00000   0.00000   0.00001   0.00001   3.14157
   D30       -0.00001   0.00000   0.00000  -0.00003  -0.00003  -0.00004
   D31       -3.14156   0.00000   0.00000  -0.00003  -0.00003  -3.14159
   D32        0.00002   0.00000   0.00000  -0.00001  -0.00001   0.00000
   D33        0.00001   0.00000   0.00000   0.00000   0.00000   0.00001
   D34        3.14158   0.00000   0.00000   0.00002   0.00002  -3.14159
   D35        3.14155   0.00000   0.00000   0.00004   0.00004   3.14159
   D36       -0.00002   0.00000   0.00000   0.00001   0.00001  -0.00001
   D37       -0.00002   0.00000   0.00000   0.00001   0.00001  -0.00001
   D38       -3.14159   0.00000   0.00000  -0.00002  -0.00002   3.14158
   D39        0.00000   0.00000   0.00000   0.00000   0.00000   0.00000
   D40       -3.14159   0.00000   0.00000   0.00000   0.00000  -3.14159
   D41       -3.14157   0.00000   0.00000  -0.00002  -0.00002  -3.14159
   D42        0.00002   0.00000   0.00000  -0.00002  -0.00002   0.00001
   D43        0.00002   0.00000   0.00000  -0.00002  -0.00002   0.00000
   D44       -3.14157   0.00000   0.00000  -0.00002  -0.00002   3.14159
   D45        3.14159   0.00000   0.00000   0.00001   0.00001  -3.14159
   D46        0.00000   0.00000   0.00000   0.00000   0.00000   0.00000
   D47        0.00000   0.00000   0.00000  -0.00001  -0.00001  -0.00001
   D48        3.14155   0.00000   0.00000   0.00005   0.00005  -3.14158
   D49        3.14159   0.00000   0.00000  -0.00001  -0.00001   3.14158
   D50       -0.00004   0.00000   0.00000   0.00004   0.00004   0.00000
   D51       -0.00001   0.00000   0.00000   0.00002   0.00002   0.00001
   D52       -3.14156   0.00000   0.00000  -0.00004  -0.00004   3.14159
   D53        3.14158   0.00000   0.00000   0.00002   0.00002  -3.14158
   D54        0.00003   0.00000   0.00000  -0.00004  -0.00004   0.00000
   D55       -3.14151   0.00000   0.00000  -0.00005  -0.00005  -3.14156
   D56        0.00005   0.00000   0.00000   0.00000   0.00000   0.00005
   D57       -1.06824  -0.00002   0.00000  -0.00018  -0.00019  -1.06843
   D58        1.06836   0.00001   0.00000   0.00010   0.00011   1.06847
   D59       -3.14153   0.00000   0.00000  -0.00004  -0.00004  -3.14157
   D60        3.14153   0.00000   0.00000   0.00002   0.00002   3.14155
   D61       -1.06833  -0.00002   0.00000  -0.00015  -0.00016  -1.06849
   D62        1.06825   0.00002   0.00000   0.00015   0.00016   1.06841
         Item               Value     Threshold  Converged?
 Maximum Force            0.017331     0.000450     NO 
 RMS     Force            0.003019     0.000300     NO 
 Maximum Displacement     0.161024     0.001800     NO 
 RMS     Displacement     0.033639     0.001200     NO 
 Predicted change in Energy=-1.677934D-03
 GradGradGradGradGradGradGradGradGradGradGradGradGradGradGradGradGradGrad

                          Input orientation:                          
 ---------------------------------------------------------------------
 Center     Atomic      Atomic             Coordinates (Angstroms)
 Number     Number       Type             X           Y           Z
 ---------------------------------------------------------------------
      1          6           0       -4.141151    1.370637   -0.000120
      2          6           0       -2.753900    1.364414   -0.000129
      3          6           0       -2.032567    0.148182   -0.000041
      4          6           0       -2.761319   -1.055485    0.000070
      5          6           0       -4.157162   -1.057313    0.000081
      6          6           0       -4.848791    0.159712   -0.000020
      7          1           0       -4.701678    2.300529   -0.000192
      8          1           0       -2.208119    2.303322   -0.000210
      9          1           0       -2.224194   -1.999527    0.000148
     10          1           0       -4.687111   -2.003305    0.000170
     11          6           0       -0.608969    0.143918   -0.000051
     12          6           0        0.608971    0.144028   -0.000055
     13          6           0        2.032570    0.148251   -0.000033
     14          6           0        2.753927    1.364470    0.000078
     15          6           0        2.761298   -1.055428   -0.000115
     16          6           0        4.141176    1.370668    0.000094
     17          1           0        2.208161    2.303388    0.000149
     18          6           0        4.157141   -1.057281   -0.000097
     19          1           0        2.224162   -1.999463   -0.000190
     20          6           0        4.848795    0.159730    0.000002
     21          1           0        4.701722    2.300549    0.000182
     22          1           0        4.687072   -2.003284   -0.000157
     23          8           0       -6.214432    0.275562   -0.000010
     24          6           0       -6.976808   -0.932502    0.000060
     25          1           0       -6.767674   -1.526290   -0.898629
     26          1           0       -6.767683   -1.526174    0.898828
     27          1           0       -8.018701   -0.609966    0.000033
     28          8           0        6.214437    0.275557    0.000036
     29          6           0        6.976797   -0.932504   -0.000095
     30          1           0        8.018696   -0.609984   -0.000085
     31          1           0        6.767690   -1.526330    0.898577
     32          1           0        6.767657   -1.526155   -0.898876
 ---------------------------------------------------------------------
                    Distance matrix (angstroms):
                    1          2          3          4          5
     1  C    0.000000
     2  C    1.387265   0.000000
     3  C    2.437319   1.414051   0.000000
     4  C    2.791058   2.419910   1.407087   0.000000
     5  C    2.428003   2.798911   2.442769   1.395844   0.000000
     6  C    1.402531   2.416583   2.816247   2.415417   1.399821
     7  H    1.085767   2.161053   3.428812   3.876573   3.401705
     8  H    2.146279   1.086014   2.162278   3.404058   3.884924
     9  H    3.877206   3.405390   2.156241   1.086148   2.150379
    10  H    3.417829   3.883147   3.416943   2.146401   1.084319
    11  C    3.739138   2.467862   1.423605   2.463976   3.746015
    12  C    4.905938   3.577464   2.641542   3.577386   4.915206
    13  C    6.293572   4.938557   4.065137   4.942706   6.306042
    14  C    6.895081   5.507827   4.938612   6.022800   7.323127
    15  C    7.316392   6.022711   4.942653   5.522617   6.918460
    16  C    8.282327   6.895079   6.293614   7.316465   8.646242
    17  H    6.417460   5.050121   4.756962   5.998146   7.198031
    18  C    8.646181   7.323053   6.306000   6.918461   8.314303
    19  H    7.202415   6.008059   4.767822   5.074063   6.450499
    20  C    9.071131   7.697547   6.881372   7.706528   9.087819
    21  H    8.891633   7.514163   7.069889   8.182905   9.473915
    22  H    9.450971   8.167585   7.055661   7.508452   8.894680
    23  O    2.344714   3.627792   4.183804   3.700767   2.451309
[...]
 207369,-0.00252662,0.00661460,0.06425661,-0.00130293,-0.00065501,-0.00
 042798,0.00051427,-0.00006161,-0.00023629,-0.00031464,0.00028603,0.000
 02137,-0.00010771,0.00002592,0.00003424,-0.00064075,0.00059098,-0.0004
 0166,0.00641511,-0.00022108,0.00061614,0.00008623,0.00015894,0.0001910
 7,-0.00005243,-0.00002349,0.00004463,-0.00006887,0.00002336,-0.0000119
 7,0.00023768,0.00039294,-0.00002333,0.00011166,0.00003212,0.00002100,-
 0.00010044,-0.00000943,-0.00000305,0.00008325,0.00000459,0.00000319,-0
 .00000673,0.00002560,0.00000271,-0.00000089,-0.00002787,-0.00000748,-0
 .00003926,0.00004625,-0.00000338,0.00000844,0.00000377,0.00000128,-0.0
 0005077,-0.00004973,0.00000256,0.00000805,-0.00000266,0.00000140,0.000
 14699,0.00002357,0.00000012,-0.00000728,-0.00000595,0.00000071,-0.0000
 0890,0.00000745,0.00000056,-0.00879853,-0.02984833,0.02266671,0.026910
 55,-0.11583419,0.10552775,-0.00252727,0.01168572,-0.01389689,-0.023161
 67,0.13721417,0.00055943,0.00004547,-0.00021998,-0.00019396,-0.0000610
 0,-0.00001435,0.00007453,-0.00001294,-0.00005614,-0.00008954,-0.000490
 52,-0.00003546,0.00038122,0.00115388,-0.00003481,-0.00194888,0.0003257
 0,0.00053112,-0.00005672,-0.00008817,-0.00000625,0.00002156,-0.0000029
 0,0.00000750,0.00004025,0.00000505,0.00000555,0.00022344,-0.00076537,-
 0.00016669,-0.00005200,-0.00005764,0.00003158,0.00001991,-0.00000551,-
 0.00000858,-0.00002088,0.00000098,0.00000472,-0.00000007,-0.00000745,0
 .00000209,-0.00000377,0.00001440,-0.00000195,0.00001161,-0.00001786,-0
 .00000024,-0.00000148,-0.00000075,-0.00000129,0.00001668,0.00001705,0.
 00000353,-0.00000129,-0.00000144,-0.00000279,-0.00004415,-0.00000738,-
 0.00000061,0.00000134,0.00000159,-0.00000085,0.00000332,-0.00000213,-0
 .00000096,0.00586663,0.00276462,0.00764971,-0.04227465,0.10796458,-0.2
 2891203,-0.00661535,0.01389617,-0.02099496,0.04413258,-0.12294990,0.24
 037487,-0.00107742,0.00029863,0.00000002,0.00001429,-0.00034213,0.,-0.
 00001633,-0.00000262,0.,0.00002143,0.00006666,0.,0.00013992,-0.0001519
 7,0.,0.00207516,-0.00312340,-0.00000004,0.00001830,-0.00002987,0.,-0.0
 0010261,-0.00000275,0.,-0.00004193,0.00001262,0.,0.00008982,-0.0000465
 8,0.,0.00004957,0.00001107,0.,-0.00005179,-0.00000244,0.,0.00006134,0.
 00000355,0.,-0.00000483,0.00002132,0.,-0.00000163,-0.00002104,0.,-0.00
 003094,0.00003338,0.,0.00000775,0.00000392,0.,-0.00003818,-0.00003613,
 0.,0.00000733,-0.00000403,0.,0.00011668,0.00001695,0.,-0.00000616,-0.0
 0000477,0.,-0.00000666,0.00000590,0.,-0.02545122,-0.00288439,0.0000005
 7,-0.29152096,0.08599379,0.00000320,-0.00307524,0.00283892,0.00010378,
 -0.00307620,0.00283926,-0.00010368,0.32203276,-0.00164638,0.00040776,0
 .00000003,0.00019935,-0.00050791,0.00000001,0.00008905,0.00017187,0.,-
 0.00022406,0.00047122,0.,0.00025770,-0.00130315,0.00000002,-0.00173501
 ,-0.00450606,0.00000006,0.00005458,-0.00001662,0.,-0.00013620,0.000010
 86,0.,-0.00006155,-0.00000869,0.,0.00037774,0.00083032,-0.00000003,0.0
 0002666,0.00005693,0.,-0.00000300,-0.00000253,0.,0.00000348,-0.0000020
 5,0.,-0.00000073,0.00000176,0.,0.00000027,-0.00000509,0.,-0.00000079,0
 .00000458,0.,0.00000041,-0.00000023,0.,-0.00000294,-0.00000315,0.,-0.0
 0000032,0.00000123,0.,0.00000397,0.00000167,0.,-0.00000020,-0.00000032
 ,0.,-0.00000069,0.00000014,0.,-0.04144052,0.00270907,0.00000077,0.0993
 0648,-0.08031900,-0.00000148,0.01520874,-0.00375894,0.00172530,0.01520
 806,-0.00375877,-0.00172568,-0.08547629,0.08952638,0.00000004,-0.00000
 001,0.00021638,0.,0.00000001,0.00001438,0.,0.,-0.00007609,0.,0.,0.0002
 0121,0.00000001,0.00000002,0.00031130,0.00000002,0.00000013,0.00061824
 ,0.,0.,0.00001847,0.,0.,-0.00004444,0.,0.,0.00003020,-0.00000001,-0.00
 000001,-0.00046655,0.,0.,-0.00001169,0.,0.,-0.00001072,0.,0.,0.0000034
 9,0.,0.,-0.00000627,0.,0.,0.00000023,0.,0.,0.00000260,0.,0.,0.00000072
 ,0.,0.,0.00000011,0.,0.,0.00000053,0.,0.,0.00000163,0.,0.,0.00000054,0
 .,0.,0.00000023,0.00000098,0.00000002,0.00055283,0.00000304,-0.0000012
 2,-0.05316040,0.02604495,-0.00882665,0.00184661,-0.02604516,0.00882672
 ,0.00184735,-0.00000387,0.00000100,0.04810978,-0.00067444,-0.00077881,
 0.00000004,-0.00008459,-0.00048431,0.,0.00129180,-0.00010135,-0.000000
 02,0.00000938,0.00047299,0.00000002,-0.00084561,0.00085673,0.,0.002445
 40,-0.00039603,-0.00000006,-0.00012573,0.00009907,0.,0.00013522,-0.000
 04850,0.,0.00012973,0.00004776,0.,-0.00014326,-0.00012173,0.,-0.001449
 52,0.00011048,-0.00000023,0.00157918,-0.00012624,0.00000031,-0.0051252
 0,-0.00284536,-0.00000019,0.00736308,0.00235558,0.00000012,0.00239850,
 -0.00099621,-0.00000017,-0.05232780,0.01495352,-0.00000074,-0.00099083
 ,0.00019131,-0.00000002,-0.03859356,-0.01156111,-0.00000133,-0.0012831
 4,-0.00000297,-0.00000002,-0.28271808,-0.04145073,-0.00000630,0.001098
 34,-0.00080090,0.00000007,0.00019678,0.00049515,0.00000009,-0.00362141
 ,-0.00037180,0.00000009,0.00083893,0.00120821,-0.00000003,0.00003925,-
 0.00021795,-0.00006875,0.00003925,-0.00021795,0.00006875,-0.00016755,-
 0.00000906,0.,0.51425698,0.00006291,0.00008216,0.,0.00001189,0.0000249
 5,0.,-0.00012661,-0.00000976,0.00000002,0.00000134,-0.00008512,0.,0.00
 009847,-0.00006418,0.,-0.00026155,0.00003440,0.,0.00000898,-0.00001010
 ,0.,-0.00002090,0.00001942,0.,-0.00001429,0.00000024,0.,0.00002070,0.0
 0001368,0.,0.00007078,-0.00003216,0.,-0.00005350,0.00049077,0.00000002
 ,-0.00017209,0.00454837,0.00000017,-0.00309750,-0.00852333,-0.00000044
 ,0.00474974,-0.00821765,-0.00000034,0.04785673,0.00710460,0.00000099,0
 .00176021,0.00004155,0.00000002,-0.03853869,0.00361567,-0.00000097,-0.
 00157572,0.00016822,-0.00000001,-0.00282866,-0.11039664,-0.00000244,-0
 .00019841,0.00170047,0.00000015,0.00198191,0.00150657,0.00000017,0.000
 37178,0.00005585,0.,-0.00009138,-0.00013787,0.,-0.00000416,0.00002340,
 0.00000911,-0.00000416,0.00002340,-0.00000911,0.00001775,0.00000061,0.
 ,-0.09009319,0.35429074,-0.00000001,-0.00000001,0.00000661,0.,0.,0.000
 00675,0.00000002,0.,0.00003380,0.,0.,-0.00000331,-0.00000001,0.0000000
 1,0.00001714,0.00000004,0.,0.00000248,0.,0.,-0.00000246,0.,0.,-0.00000
 900,0.,0.,-0.00000912,0.,0.,-0.00000394,-0.00000003,0.00000001,-0.0000
 4481,0.00000003,0.00000002,-0.00041561,-0.00000009,0.00000003,-0.00134
 892,0.00000005,-0.00000034,0.00425154,-0.00000004,-0.00000039,0.006498
 14,0.00000029,0.00000039,0.00616722,0.00000004,0.,0.00030164,-0.000001
 95,-0.00000036,0.00835629,-0.00000006,0.,-0.00006405,-0.00000473,-0.00
 000329,-0.04102846,0.00000007,0.00000013,-0.00315952,0.00000012,0.0000
 0014,-0.00278166,-0.00000006,0.,0.00000256,0.00000001,0.00000002,-0.00
 000743,0.,0.00000065,0.00000125,0.00000001,-0.00000065,0.00000125,0.,0
 .,-0.00000049,0.00000525,0.00000886,0.06744510,0.00014626,0.00017582,0
 .,0.00002746,0.00009001,0.,-0.00034066,0.00001917,0.,0.00000277,-0.000
 09393,0.,0.00018975,-0.00018893,0.,-0.00056846,0.00008901,0.00000001,0
 .00002721,-0.00002270,0.,-0.00003123,0.00001477,0.,-0.00003039,-0.0000
 1259,0.,0.00003314,0.00002838,0.,0.00042011,-0.00002724,0.00000006,-0.
 00057909,0.00007779,-0.00000010,0.00107471,0.00032237,0.00000005,-0.00
 133083,0.00159324,0.,-0.00039668,0.00179649,0.00000005,-0.00113267,-0.
 00496639,-0.00000021,-0.00024421,-0.00014537,0.,0.00201284,0.00031477,
 0.00000010,0.00043458,0.00006014,0.00000001,-0.04264209,0.03590080,0.0
 0000067,-0.00000330,0.00042377,0.00000003,-0.00252901,0.00089512,-0.00
 000002,0.00083894,0.00009139,-0.00000002,-0.00019750,-0.00028409,0.,-0
 .00000941,0.00005093,0.00001634,-0.00000941,0.00005093,-0.00001635,0.0
 0003962,0.00000125,0.,-0.11664887,0.03943801,0.00000040,0.58128231,-0.
 00022120,-0.00026618,0.00000001,-0.00002295,-0.00015054,0.,0.00041616,
 -0.00002816,-0.00000004,-0.00000237,0.00018739,0.00000001,-0.00028225,
 0.00027460,0.,0.00081549,-0.00012438,-0.00000001,-0.00003878,0.0000322
 0,0.,0.00004646,-0.00002300,0.,0.00004535,0.00001154,0.,-0.00005244,-0
 .00004129,0.,-0.00040241,0.00000735,-0.00000005,0.00044775,-0.00015274
 ,0.00000011,-0.00118913,0.00051635,0.,0.00019776,-0.00020971,-0.000000
 08,0.00105644,-0.00149989,-0.00000009,-0.00495927,0.00181488,-0.000000
 16,-0.00035528,0.00012227,0.,-0.00935765,0.00243851,-0.00000002,-0.000
 49312,-0.00012060,-0.00000001,0.01441047,0.00342148,0.00000057,0.00006
 684,0.00006851,0.00000003,-0.00143695,-0.00084844,-0.00000003,-0.00120
 820,-0.00013787,0.00000003,0.00028409,0.00041482,-0.00000001,0.0000130
 0,-0.00007371,-0.00002516,0.00001300,-0.00007371,0.00002516,-0.0000556
 5,-0.00000313,0.,0.07079470,-0.18928062,-0.00000350,0.07743253,0.49571
 856,0.,0.,-0.00000192,0.,0.,-0.00000578,0.,0.,0.00004411,0.,0.,0.00000
 614,0.,0.,-0.00001063,0.00000002,0.,0.00000786,0.,0.,0.00000390,0.,0.,
 0.00000574,0.,0.,0.00001140,0.,0.,0.00000528,0.,0.,-0.00006568,0.,0.,-
 0.00033878,-0.00000003,0.00000005,0.00031014,-0.00000009,-0.00000003,0
 .00165054,0.00000005,-0.00000005,0.00033561,-0.00000027,-0.00000013,0.
 00278574,-0.00000001,0.00000001,-0.00028993,-0.00000030,0.00000011,-0.
 00125281,-0.00000001,0.,-0.00000271,-0.00000016,0.00000106,-0.00546104
 ,0.00000002,0.00000003,-0.00065436,-0.00000007,-0.00000002,-0.00012191
 ,-0.00000003,0.,-0.00000743,0.,0.,0.00000592,0.00000058,-0.00000089,-0
 .00000196,-0.00000058,0.00000088,-0.00000196,0.,0.,0.00000013,0.000001
 71,-0.00000421,-0.06006668,0.00000308,-0.00000164,0.57409345,-0.000030
 94,-0.00003338,0.,-0.00000483,-0.00002132,0.,0.00006134,-0.00000355,0.
 ,-0.00000163,0.00002104,0.,-0.00003818,0.00003613,0.,0.00011668,-0.000
 01695,0.,-0.00000616,0.00000477,0.,0.00000775,-0.00000392,0.,0.0000073
 3,0.00000403,0.,-0.00000666,-0.00000590,0.,-0.00005179,0.00000244,0.,0
 .00004958,-0.00001106,0.00000001,-0.00001632,0.00000261,0.00000001,0.0
 0001429,0.00034213,0.,0.00002143,-0.00006667,-0.00000002,-0.00107743,-
 0.00029864,-0.00000002,-0.00010261,0.00000275,0.,0.00013992,0.00015198
 ,0.,-0.00004193,-0.00001262,0.,0.00207513,0.00312344,0.00000018,0.0000
 1830,0.00002987,0.,0.00008982,0.00004658,0.,-0.00016755,-0.00001775,0.
 ,0.00003962,0.00005565,0.,0.00000193,-0.00001012,-0.00000284,0.0000019
 3,-0.00001012,0.00000284,-0.00000819,-0.00000010,0.,-0.02545149,0.0028
 8422,-0.00000033,-0.29151982,-0.08599508,-0.00000608,0.32203170,0.0000
 0079,0.00000458,0.,0.00000073,0.00000176,0.,-0.00000348,-0.00000205,0.
 ,-0.00000027,-0.00000509,0.,0.00000294,-0.00000315,0.,-0.00000397,0.00
 000166,0.,0.00000020,-0.00000032,0.,-0.00000041,-0.00000023,0.,0.00000
 032,0.00000123,0.,0.00000069,0.00000014,0.,0.00000300,-0.00000253,0.,-
 0.00002666,0.00005693,0.,-0.00008906,0.00017186,0.,-0.00019935,-0.0005
 0791,-0.00000001,0.00022406,0.00047122,0.00000002,0.00164637,0.0004077
 7,0.00000004,0.00013619,0.00001086,0.,-0.00025769,-0.00130315,-0.00000
 005,0.00006155,-0.00000869,0.,0.00173505,-0.00450603,-0.00000019,-0.00
 005458,-0.00001662,0.,-0.00037775,0.00083032,0.00000003,0.00000905,0.0
 0000061,0.,-0.00000125,-0.00000313,0.,-0.00000003,0.00000050,0.0000003
 8,-0.00000003,0.00000050,-0.00000038,0.00000010,0.00000024,0.,0.041440
 34,0.00270934,0.00000068,-0.09930776,-0.08032015,-0.00000228,0.0854777
 2,0.08952743,0.,0.,0.00000260,0.,0.,-0.00000627,0.,0.,0.00000348,0.,0.
 ,0.00000023,0.,0.,0.00000011,0.,0.,0.00000163,0.,0.,0.00000054,0.,0.,0
 .00000072,0.,0.,0.00000053,0.,0.,0.00000023,0.,0.,-0.00001071,0.,0.,-0
 .00001170,0.,0.00000002,-0.00007609,-0.00000001,-0.00000002,0.00001438
 ,0.,0.,0.00020120,0.00000004,0.,0.00021637,0.,0.,-0.00004444,-0.000000
 02,-0.00000005,0.00031131,0.,0.,0.00003020,0.00000005,-0.00000012,0.00
 061824,0.,0.,0.00001847,0.,0.00000004,-0.00046655,0.,0.,-0.00000049,0.
 ,0.,0.00000013,0.00000008,-0.00000014,-0.00000017,-0.00000008,0.000000
 14,-0.00000017,0.,0.,0.00000004,0.00000107,0.00000011,0.00055283,-0.00
 000653,-0.00000208,-0.05316040,0.00000655,0.00000252,0.04810978,0.0000
 0932,0.00000798,0.00000467,-0.00000143,0.00000810,-0.00000834,-0.00000
 699,0.00000126,0.00001770,-0.00000119,-0.00000660,0.00000808,0.0000093
 8,-0.00000855,-0.00000719,-0.00002813,0.00000296,-0.00000002,0.0000014
 1,-0.00000107,0.00000038,-0.00000161,0.00000077,-0.00000007,-0.0000018
 1,-0.00000110,0.00000096,0.00000147,0.00000136,0.,-0.00000690,0.000011
 50,-0.00001665,0.00001662,-0.00002374,-0.00011893,0.00000315,-0.000903
 94,0.00006667,0.00089878,0.00043812,0.00020396,-0.00082858,0.00033263,
 0.00053307,-0.00123054,0.00066195,0.00055841,0.00000074,0.00000437,-0.
 00004413,0.00011172,-0.00085700,-0.00017947,-0.00000070,0.00000822,-0.
 00004543,0.00449682,0.00116538,-0.00210087,0.00004242,-0.00011598,-0.0
 0012818,-0.00182419,-0.00008953,-0.00151077,0.00003925,0.00000416,-0.0
 0000001,-0.00000941,-0.00001300,0.00000058,-0.00000040,0.00000224,0.00
 000052,-0.00000057,0.00000249,-0.00000082,0.00000193,0.00000003,0.0000
 0008,-0.00078501,0.01887327,-0.01800502,-0.06415916,-0.02998659,0.0454
 7080,-0.00307597,-0.01520928,0.02604442,0.06425593,0.00003926,0.000046
 25,-0.00000338,0.00000673,0.00002560,0.00000271,-0.00008325,0.00000459
 ,0.00000321,0.00000089,-0.00002787,-0.00000749,0.00005077,-0.00004974,
 0.00000256,-0.00014699,0.00002357,0.00000012,0.00000728,-0.00000595,0.
 00000071,-0.00000844,0.00000377,0.00000128,-0.00000805,-0.00000266,0.0
 0000140,0.00000890,0.00000745,0.00000056,0.00010044,-0.00000944,-0.000
 00308,-0.00011167,0.00003213,0.00002100,0.00031463,0.00028603,0.000021
 38,-0.00051427,-0.00006160,-0.00023628,0.00010769,0.00002595,0.0000342
 6,0.00130295,-0.00065498,-0.00042800,0.00005243,-0.00002349,0.00004463
 ,0.00064077,0.00059094,-0.00040166,0.00006887,0.00002336,-0.00001197,-
 0.00641516,-0.00022116,0.00061612,-0.00008623,0.00015893,0.00019107,-0
 .00023768,0.00039298,-0.00002332,0.00021795,0.00002340,-0.00000065,-0.
 00005093,-0.00007371,0.00000089,-0.00000224,0.00001302,0.00000395,-0.0
 0000249,0.00001350,-0.00000454,0.00001012,0.00000050,0.00000014,0.0087
 9910,-0.02984935,0.02266480,-0.02691168,-0.11584451,0.10553343,-0.0028
 3922,-0.00375921,0.00882663,0.02316266,0.13722594,-0.00001161,-0.00001
 786,-0.00000024,0.00000007,-0.00000745,0.00000209,0.00002088,0.0000009
 8,0.00000473,0.00000377,0.00001440,-0.00000196,-0.00001668,0.00001704,
 0.00000353,0.00004414,-0.00000737,-0.00000061,-0.00000134,0.00000159,-
 0.00000085,0.00000148,-0.00000075,-0.00000129,0.00000129,-0.00000144,-
 0.00000279,-0.00000332,-0.00000213,-0.00000096,-0.00001991,-0.00000551
 ,-0.00000859,0.00005200,-0.00005764,0.00003159,-0.00007451,-0.00001292
 ,-0.00005615,0.00019393,-0.00006101,-0.00001437,0.00008955,-0.00049053
 ,-0.00003548,-0.00055936,0.00004544,-0.00022000,-0.00002156,-0.0000029
 1,0.00000750,-0.00038120,0.00115392,-0.00003479,-0.00004025,0.00000505
 ,0.00000555,0.00194856,0.00032567,0.00053116,0.00005672,-0.00008816,-0
 .00000624,-0.00022343,-0.00076535,-0.00016671,-0.00006874,-0.00000911,
 0.00000126,0.00001634,0.00002516,-0.00000196,0.00000052,-0.00000395,-0
 .00000163,0.00000082,-0.00000454,0.00000244,-0.00000284,-0.00000038,-0
 .00000017,-0.00586620,0.00276275,0.00765101,0.04227192,0.10797025,-0.2
 2890246,0.00010358,-0.00172587,0.00184755,-0.04412989,-0.12295508,0.24
 036379,0.00000931,0.00000798,-0.00000467,-0.00000143,0.00000810,0.0000
 0834,-0.00000698,0.00000126,-0.00001770,-0.00000119,-0.00000660,-0.000
 00809,0.00000938,-0.00000855,0.00000720,-0.00002813,0.00000296,0.00000
 002,0.00000141,-0.00000107,-0.00000038,-0.00000161,0.00000077,0.000000
 07,-0.00000181,-0.00000110,-0.00000096,0.00000147,0.00000136,0.,-0.000
 00690,0.00001150,0.00001665,0.00001662,-0.00002374,0.00011893,0.000003
 15,-0.00090395,-0.00006673,0.00089881,0.00043814,-0.00020390,-0.000828
 57,0.00033266,-0.00053308,-0.00123053,0.00066200,-0.00055840,0.0000007
 3,0.00000437,0.00004413,0.00011169,-0.00085699,0.00017942,-0.00000070,
 0.00000822,0.00004543,0.00449686,0.00116523,0.00210112,0.00004242,-0.0
 0011599,0.00012818,-0.00182426,-0.00008965,0.00151072,0.00003925,0.000
 00416,0.,-0.00000941,-0.00001300,-0.00000058,-0.00000057,0.00000249,0.
 00000082,-0.00000040,0.00000224,-0.00000052,0.00000193,0.00000003,-0.0
 0000008,-0.00078571,0.01887211,0.01800603,-0.06415690,-0.02998070,-0.0
 4546864,-0.00307525,-0.01520752,-0.02604558,0.00207365,0.00252684,0.00
 661528,0.06425368,0.00003926,0.00004625,0.00000338,0.00000673,0.000025
 60,-0.00000272,-0.00008325,0.00000459,-0.00000319,0.00000089,-0.000027
 87,0.00000748,0.00005077,-0.00004973,-0.00000256,-0.00014699,0.0000235
 7,-0.00000012,0.00000728,-0.00000595,-0.00000071,-0.00000844,0.0000037
 7,-0.00000128,-0.00000805,-0.00000266,-0.00000140,0.00000890,0.0000074
 5,-0.00000056,0.00010044,-0.00000945,0.00000310,-0.00011166,0.00003213
 ,-0.00002105,0.00031463,0.00028604,-0.00002135,-0.00051428,-0.00006162
 ,0.00023627,0.00010771,0.00002592,-0.00003422,0.00130289,-0.00065501,0
 .00042803,0.00005243,-0.00002349,-0.00004463,0.00064071,0.00059100,0.0
 0040171,0.00006886,0.00002336,0.00001197,-0.00641501,-0.00022106,-0.00
 061639,-0.00008622,0.00015894,-0.00019107,-0.00023771,0.00039292,0.000
 02335,0.00021795,0.00002340,0.00000064,-0.00005093,-0.00007370,-0.0000
 0088,-0.00000249,0.00001350,0.00000454,-0.00000224,0.00001302,-0.00000
 395,0.00001012,0.00000050,-0.00000014,0.00879925,-0.02984761,-0.022667
 18,-0.02690600,-0.11582983,-0.10552633,-0.00283896,-0.00375872,-0.0088
 2706,0.00252693,0.01168575,0.01389773,0.02315646,0.13720900,0.00001161
 ,0.00001787,-0.00000024,-0.00000007,0.00000745,0.00000209,-0.00002088,
 -0.00000098,0.00000472,-0.00000377,-0.00001440,-0.00000195,0.00001668,
 -0.00001705,0.00000353,-0.00004415,0.00000738,-0.00000061,0.00000135,-
 0.00000159,-0.00000085,-0.00000148,0.00000075,-0.00000129,-0.00000129,
 0.00000144,-0.00000279,0.00000332,0.00000213,-0.00000096,0.00001991,0.
 00000551,-0.00000857,-0.00005201,0.00005764,0.00003157,0.00007454,0.00
 001292,-0.00005615,-0.00019394,0.00006102,-0.00001436,-0.00008957,0.00
 049053,-0.00003547,0.00055943,-0.00004545,-0.00021996,0.00002156,0.000
 00290,0.00000750,0.00038125,-0.00115389,-0.00003479,0.00004025,-0.0000
 0505,0.00000556,-0.00194889,-0.00032568,0.00053111,-0.00005672,0.00008
 817,-0.00000625,0.00022337,0.00076539,-0.00016663,0.00006876,0.0000091
 2,0.00000125,-0.00001635,-0.00002516,-0.00000196,-0.00000082,0.0000045
 4,0.00000244,-0.00000052,0.00000395,-0.00000163,0.00000285,0.00000038,
 -0.00000017,0.00586654,-0.00276483,0.00764984,-0.04226950,-0.10796328,
 -0.22891952,-0.00010390,0.00172511,0.00184641,-0.00661450,-0.01389542,
 -0.02099496,0.04412695,0.12294858,0.24038309\\0.00001666,0.00000125,-0
 .00000017,-0.00001158,0.00000611,-0.00000002,0.00000537,-0.00000827,0.
 00000121,0.00001010,-0.00000069,0.00000006,0.00000039,0.00000393,-0.00
 000018,-0.00000119,-0.00000122,0.00000006,-0.00000259,-0.00000107,-0.0
 0000001,-0.00000262,-0.00000231,0.00000001,-0.00000354,0.00000109,0.00
 000002,0.00000117,0.00000067,-0.00000003,-0.00000876,0.00000109,-0.000
 00007,0.00000864,-0.00000189,-0.00000273,-0.00000535,-0.00000700,0.000
 00163,0.00001169,0.00000592,0.00000024,-0.00001013,-0.00000098,0.00000
 022,-0.00001661,0.00000131,-0.00000021,0.00000263,-0.00000227,0.000000
 03,-0.00000046,0.00000404,-0.00000019,0.00000350,0.00000112,0.00000004
 ,0.00000121,-0.00000113,0.00000005,0.00000261,-0.00000108,-0.00000004,
 -0.00000119,0.00000065,-0.00000005,-0.00000308,-0.00000125,0.00000004,
 -0.00001391,-0.00000069,0.,0.00000493,0.00000022,0.00000021,0.00000483
 ,0.00000022,-0.00000021,0.00000015,0.00000188,0.,0.00000309,-0.0000012
 5,0.00000010,0.00001391,-0.00000068,-0.00000004,-0.00000014,0.00000187
 ,0.,-0.00000485,0.00000022,-0.00000021,-0.00000491,0.00000021,0.000000
 21\\\@


       THE DEATH-KNELL OF THE ATOM

 SO THE ATOMS IN TURN, WE NOW CLEARLY DISCERN,
 FLY TO BITS WITH THE UTMOST FACILITY;
 THEY WEND ON THEIR WAY, AND, IN SPLITTING, DISPLAY
 AN ABSOLUTE LACK OF STABILITY.

          SIR WM. RAMSAY, 1905
 Job cpu time:       0 days  2 hours 56 minutes 50.7 seconds.
 Elapsed time:       0 days  0 hours  5 minutes 53.8 seconds.
 File lengths (MBytes):  RWF=    444 Int=      0 D2E=      0 Chk=     12 Scr=      1
 Normal termination of Gaussian 16 at Mon Sep 18 04:24:33 2023.
