 Entering Gaussian System, Link 0=/home/ubuntu/g16/g16
 Input=/home/ubuntu/products/molecule_10.gjf
 Output=/home/ubuntu/products/molecule_10.log
 Initial command:
 /home/ubuntu/g16/l1.exe "/home/ubuntu/Scratch/Gau-37693.inp" -scrdir="/home/ubuntu/Scratch/"
 Entering Link 1 = /home/ubuntu/g16/l1.exe PID=     37695.
  
 Copyright (c) 1988-2017, Gaussian, Inc.  All Rights Reserved.
  
 This is part of the Gaussian(R) 16 program.  It is based on
 the Gaussian(R) 09 system (copyright 2009, Gaussian, Inc.),
 the Gaussian(R) 03 system (copyright 2003, Gaussian, Inc.),
 the Gaussian(R) 98 system (copyright 1998, Gaussian, Inc.),
 the Gaussian(R) 94 system (copyright 1995, Gaussian, Inc.),
 the Gaussian 92(TM) system (copyright 1992, Gaussian, Inc.),
 the Gaussian 90(TM) system (copyright 1990, Gaussian, Inc.),
 the Gaussian 88(TM) system (copyright 1988, Gaussian, Inc.),
 the Gaussian 86(TM) system (copyright 1986, Carnegie Mellon
 University), and the Gaussian 82(TM) system (copyright 1983,
 Carnegie Mellon University). Gaussian is a federally registered
 trademark of Gaussian, Inc.
  
 This software contains proprietary and confidential information,
 including trade secrets, belonging to Gaussian, Inc.
  
 This software is provided under written license and may be
 used, copied, transmitted, or stored only in accord with that
 written license.
  
 The following legend is applicable only to US Government
 contracts under FAR:
  
                    RESTRICTED RIGHTS LEGEND
  
 Use, reproduction and disclosure by the US Government is
 subject to restrictions as set forth in subparagraphs (a)
 and (c) of the Commercial Computer Software - Restricted
 Rights clause in FAR 52.227-19.
  
 Gaussian, Inc.
 340 Quinnipiac St., Bldg. 40, Wallingford CT 06492
  
  
 ---------------------------------------------------------------
 Warning -- This program may not be used in any manner that
 competes with the business of Gaussian, Inc. or will provide
 assistance to any competitor of Gaussian, Inc.  The licensee
 of this program is prohibited from giving any competitor of
 Gaussian, Inc. access to this program.  By using this program,
 the user acknowledges that Gaussian, Inc. is engaged in the
 business of creating and licensing software in the field of
 computational chemistry and represents and warrants to the
 licensee that it is not a competitor of Gaussian, Inc. and that
 it will not use this program in any manner prohibited above.
 ---------------------------------------------------------------
  

 Cite this work as:
 Gaussian 16, Revision B.01,
 M. J. Frisch, G. W. Trucks, H. B. Schlegel, G. E. Scuseria, 
 M. A. Robb, J. R. Cheeseman, G. Scalmani, V. Barone, 
 G. A. Petersson, H. Nakatsuji, X. Li, M. Caricato, A. V. Marenich, 
 J. Bloino, B. G. Janesko, R. Gomperts, B. Mennucci, H. P. Hratchian, 
 J. V. Ortiz, A. F. Izmaylov, J. L. Sonnenberg, D. Williams-Young, 
 F. Ding, F. Lipparini, F. Egidi, J. Goings, B. Peng, A. Petrone, 
 T. Henderson, D. Ranasinghe, V. G. Zakrzewski, J. Gao, N. Rega, 
 G. Zheng, W. Liang, M. Hada, M. Ehara, K. Toyota, R. Fukuda, 
 J. Hasegawa, M. Ishida, T. Nakajima, Y. Honda, O. Kitao, H. Nakai, 
 T. Vreven, K. Throssell, J. A. Montgomery, Jr., J. E. Peralta, 
 F. Ogliaro, M. J. Bearpark, J. J. Heyd, E. N. Brothers, K. N. Kudin, 
 V. N. Staroverov, T. A. Keith, R. Kobayashi, J. Normand, 
 K. Raghavachari, A. P. Rendell, J. C. Burant, S. S. Iyengar, 
 J. Tomasi, M. Cossi, J. M. Millam, M. Klene, C. Adamo, R. Cammi, 
 J. W. Ochterski, R. L. Martin, K. Morokuma, O. Farkas, 
 J. B. Foresman, and D. J. Fox, Gaussian, Inc., Wallingford CT, 2016.
 
 ******************************************
 Gaussian 16:  EM64L-G16RevB.01 20-Dec-2017
                17-Sep-2023 
 ******************************************
 %nprocshared=30
 Will use up to   30 processors via shared memory.
 %mem=30GB
 %chk=molecule_10.chk
 ---------------------------------------------------------
 # opt freq b3lyp/6-31+g(d) empiricaldispersion=gd3 volume
 ---------------------------------------------------------
 1/18=20,19=15,26=3,38=1/1,3;
 2/9=110,12=2,17=6,18=5,40=1/2;
 3/5=1,6=6,7=11,11=2,25=1,30=1,71=1,74=-5,124=31/1,2,3;
 4//1;
 5/5=2,38=5/2;
 6/7=2,8=2,9=2,10=2,28=1,44=1/1,4;
 7//1,2,3,16;
 1/18=20,19=15,26=3/3(2);
 2/9=110/2;
 99//99;
 2/9=110/2;
 3/5=1,6=6,7=11,11=2,25=1,30=1,71=1,74=-5,124=31/1,2,3;
 4/5=5,16=3,69=1/1;
 5/5=2,38=5/2;
 7//1,2,3,16;
 1/18=20,19=15,26=3/3(-5);
 2/9=110/2;
 6/7=2,8=2,9=2,10=2,19=2,28=1,44=1/1,4;
 99/9=1/99;
 -------------------
 Title Card Required
 -------------------
 Symbolic Z-matrix:
 Charge =  0 Multiplicity = 1
 C                    -3.91026  -0.97885   1.0873 
 C                    -3.24353  -0.49817  -0.05029 
 C                    -3.96927  -0.06568  -1.15526 
 C                    -5.36722  -0.03465  -1.10341 
 C                    -6.03529  -0.47585   0.04315 
 H                    -3.33932  -1.35081   1.9443 
 H                    -3.4475    0.28095  -2.05001 
 H                    -5.9376    0.33606  -1.95976 
 H                    -7.12782  -0.45137   0.08272 
 C                    -1.70232  -0.51098  -0.00174 
 C                    -0.50316  -0.51544   0.00061 
 C                     1.03814  -0.52118   0.00361 
 C                     1.73324  -0.49899   1.21632 
 C                     1.73531  -0.50038  -1.20582 
 C                     3.13124  -0.50192   1.21672 
 H                     1.18549  -0.5016    2.1622 
 C                     3.13359  -0.50384  -1.20525 
 H                     1.18944  -0.5035   -2.1542 
 C                     3.82894  -0.50274   0.00634 
 H                     3.67742  -0.50148   2.16417 
 H                     3.6812   -0.50459  -2.15173 
 H                     4.89832  -0.50317   0.00733 
 N                    -5.30642  -0.95004   1.13808 
 

 GradGradGradGradGradGradGradGradGradGradGradGradGradGradGradGradGradGrad
 Berny optimization.
 Initialization pass.
                           ----------------------------
                           !    Initial Parameters    !
                           ! (Angstroms and Degrees)  !
 --------------------------                            --------------------------
 ! Name  Definition              Value          Derivative Info.                !
 --------------------------------------------------------------------------------
 ! R1    R(1,2)                  1.4035         estimate D2E/DX2                !
 ! R2    R(1,6)                  1.0949         estimate D2E/DX2                !
 ! R3    R(1,23)                 1.3974         estimate D2E/DX2                !
 ! R4    R(2,3)                  1.3909         estimate D2E/DX2                !
 ! R5    R(2,10)                 1.542          estimate D2E/DX2                !
 ! R6    R(3,4)                  1.3993         estimate D2E/DX2                !
 ! R7    R(3,7)                  1.0922         estimate D2E/DX2                !
 ! R8    R(4,5)                  1.3984         estimate D2E/DX2                !
 ! R9    R(4,8)                  1.0937         estimate D2E/DX2                !
 ! R10   R(5,9)                  1.0935         estimate D2E/DX2                !
 ! R11   R(5,23)                 1.3982         estimate D2E/DX2                !
 ! R12   R(10,11)                1.1992         estimate D2E/DX2                !
 ! R13   R(11,12)                1.5413         estimate D2E/DX2                !
 ! R14   R(12,13)                1.398          estimate D2E/DX2                !
 ! R15   R(12,14)                1.3961         estimate D2E/DX2                !
 ! R16   R(13,15)                1.398          estimate D2E/DX2                !
 ! R17   R(13,16)                1.093          estimate D2E/DX2                !
 ! R18   R(14,17)                1.3983         estimate D2E/DX2                !
 ! R19   R(14,18)                1.0943         estimate D2E/DX2                !
 ! R20   R(15,19)                1.3971         estimate D2E/DX2                !
 ! R21   R(15,20)                1.0936         estimate D2E/DX2                !
 ! R22   R(17,19)                1.3969         estimate D2E/DX2                !
 ! R23   R(17,21)                1.0935         estimate D2E/DX2                !
 ! R24   R(19,22)                1.0694         estimate D2E/DX2                !
 ! A1    A(2,1,6)              120.204          estimate D2E/DX2                !
 ! A2    A(2,1,23)             119.8047         estimate D2E/DX2                !
 ! A3    A(6,1,23)             119.971          estimate D2E/DX2                !
 ! A4    A(1,2,3)              120.1683         estimate D2E/DX2                !
 ! A5    A(1,2,10)             116.5157         estimate D2E/DX2                !
 ! A6    A(3,2,10)             123.304          estimate D2E/DX2                !
 ! A7    A(2,3,4)              119.9162         estimate D2E/DX2                !
 ! A8    A(2,3,7)              120.0131         estimate D2E/DX2                !
 ! A9    A(4,3,7)              120.0388         estimate D2E/DX2                !
 ! A10   A(3,4,5)              120.0444         estimate D2E/DX2                !
 ! A11   A(3,4,8)              119.9699         estimate D2E/DX2                !
 ! A12   A(5,4,8)              119.9857         estimate D2E/DX2                !
 ! A13   A(4,5,9)              119.9936         estimate D2E/DX2                !
 ! A14   A(4,5,23)             120.0015         estimate D2E/DX2                !
 ! A15   A(9,5,23)             120.0048         estimate D2E/DX2                !
 ! A16   A(11,12,13)           119.9238         estimate D2E/DX2                !
 ! A17   A(11,12,14)           119.8422         estimate D2E/DX2                !
 ! A18   A(13,12,14)           120.1945         estimate D2E/DX2                !
 ! A19   A(12,13,15)           119.8308         estimate D2E/DX2                !
 ! A20   A(12,13,16)           120.098          estimate D2E/DX2                !
 ! A21   A(15,13,16)           120.0575         estimate D2E/DX2                !
 ! A22   A(12,14,17)           119.9314         estimate D2E/DX2                !
 ! A23   A(12,14,18)           120.108          estimate D2E/DX2                !
 ! A24   A(17,14,18)           119.947          estimate D2E/DX2                !
 ! A25   A(13,15,19)           119.944          estimate D2E/DX2                !
 ! A26   A(13,15,20)           119.9792         estimate D2E/DX2                !
 ! A27   A(19,15,20)           120.0767         estimate D2E/DX2                !
 ! A28   A(14,17,19)           119.8756         estimate D2E/DX2                !
 ! A29   A(14,17,21)           120.0284         estimate D2E/DX2                !
 ! A30   A(19,17,21)           120.0958         estimate D2E/DX2                !
 ! A31   A(15,19,17)           120.1873         estimate D2E/DX2                !
 ! A32   A(15,19,22)           119.9076         estimate D2E/DX2                !
 ! A33   A(17,19,22)           119.9051         estimate D2E/DX2                !
 ! A34   A(1,23,5)             119.958          estimate D2E/DX2                !
 ! A35   L(2,10,11,6,-1)       181.6583         estimate D2E/DX2                !
 ! A36   L(10,11,12,18,-1)     179.9996         estimate D2E/DX2                !
 ! A37   L(2,10,11,6,-2)       179.4663         estimate D2E/DX2                !
 ! A38   L(10,11,12,18,-2)     179.9998         estimate D2E/DX2                !
 ! D1    D(6,1,2,3)            177.9414         estimate D2E/DX2                !
 ! D2    D(6,1,2,10)            -0.8433         estimate D2E/DX2                !
 ! D3    D(23,1,2,3)            -3.6992         estimate D2E/DX2                !
 ! D4    D(23,1,2,10)          177.5162         estimate D2E/DX2                !
 ! D5    D(2,1,23,5)             1.6809         estimate D2E/DX2                !
 ! D6    D(6,1,23,5)          -179.9557         estimate D2E/DX2                !
 ! D7    D(1,2,3,4)              3.816          estimate D2E/DX2                !
 ! D8    D(1,2,3,7)           -178.2399         estimate D2E/DX2                !
 ! D9    D(10,2,3,4)          -177.4853         estimate D2E/DX2                !
 ! D10   D(10,2,3,7)             0.4589         estimate D2E/DX2                !
 ! D11   D(1,2,12,13)          -24.1431         estimate D2E/DX2                !
 ! D12   D(1,2,12,14)          158.2445         estimate D2E/DX2                !
 ! D13   D(3,2,12,13)          157.4038         estimate D2E/DX2                !
 ! D14   D(3,2,12,14)          -20.2086         estimate D2E/DX2                !
 ! D15   D(2,3,4,5)             -1.9249         estimate D2E/DX2                !
 ! D16   D(2,3,4,8)            178.0            estimate D2E/DX2                !
 ! D17   D(7,3,4,5)           -179.8685         estimate D2E/DX2                !
 ! D18   D(7,3,4,8)              0.0564         estimate D2E/DX2                !
 ! D19   D(3,4,5,9)           -179.9913         estimate D2E/DX2                !
 ! D20   D(3,4,5,23)            -0.0841         estimate D2E/DX2                !
 ! D21   D(8,4,5,9)              0.0838         estimate D2E/DX2                !
 ! D22   D(8,4,5,23)           179.991          estimate D2E/DX2                !
 ! D23   D(4,5,23,1)             0.1967         estimate D2E/DX2                !
 ! D24   D(9,5,23,1)          -179.8961         estimate D2E/DX2                !
 ! D25   D(11,12,13,15)       -179.8905         estimate D2E/DX2                !
 ! D26   D(11,12,13,16)          1.4544         estimate D2E/DX2                !
 ! D27   D(14,12,13,15)         -2.1768         estimate D2E/DX2                !
 ! D28   D(14,12,13,16)        179.1681         estimate D2E/DX2                !
 ! D29   D(11,12,14,17)        179.9195         estimate D2E/DX2                !
 ! D30   D(11,12,14,18)         -1.4191         estimate D2E/DX2                !
 ! D31   D(13,12,14,17)          2.2039         estimate D2E/DX2                !
 ! D32   D(13,12,14,18)       -179.1347         estimate D2E/DX2                !
 ! D33   D(12,13,15,19)          1.1475         estimate D2E/DX2                !
 ! D34   D(12,13,15,20)       -178.9793         estimate D2E/DX2                !
 ! D35   D(16,13,15,19)        179.8032         estimate D2E/DX2                !
 ! D36   D(16,13,15,20)         -0.3236         estimate D2E/DX2                !
 ! D37   D(12,14,17,19)         -1.1998         estimate D2E/DX2                !
 ! D38   D(12,14,17,21)        178.9699         estimate D2E/DX2                !
 ! D39   D(18,14,17,19)       -179.8633         estimate D2E/DX2                !
 ! D40   D(18,14,17,21)          0.3064         estimate D2E/DX2                !
 ! D41   D(13,15,19,17)         -0.1518         estimate D2E/DX2                !
 ! D42   D(13,15,19,22)        179.8876         estimate D2E/DX2                !
 ! D43   D(20,15,19,17)        179.9751         estimate D2E/DX2                !
 ! D44   D(20,15,19,22)          0.0145         estimate D2E/DX2                !
 ! D45   D(14,17,19,15)          0.1766         estimate D2E/DX2                !
 ! D46   D(14,17,19,22)       -179.8628         estimate D2E/DX2                !
 ! D47   D(21,17,19,15)       -179.9932         estimate D2E/DX2                !
 ! D48   D(21,17,19,22)         -0.0326         estimate D2E/DX2                !
 --------------------------------------------------------------------------------
 Trust Radius=3.00D-01 FncErr=1.00D-07 GrdErr=1.00D-06 EigMax=2.50D+02 EigMin=1.00D-04
 Number of steps in this run=    120 maximum allowed number of steps=    138.
 GradGradGradGradGradGradGradGradGradGradGradGradGradGradGradGradGradGrad

                          Input orientation:                          
 ---------------------------------------------------------------------
 Center     Atomic      Atomic             Coordinates (Angstroms)
 Number     Number       Type             X           Y           Z
 ---------------------------------------------------------------------
      1          6           0       -3.910257   -0.978854    1.087296
      2          6           0       -3.243530   -0.498173   -0.050288
      3          6           0       -3.969271   -0.065678   -1.155262
      4          6           0       -5.367223   -0.034654   -1.103412
      5          6           0       -6.035290   -0.475849    0.043153
      6          1           0       -3.339319   -1.350808    1.944296
      7          1           0       -3.447499    0.280946   -2.050008
      8          1           0       -5.937596    0.336059   -1.959755
      9          1           0       -7.127821   -0.451371    0.082722
     10          6           0       -1.702325   -0.510980   -0.001736
     11          6           0       -0.503164   -0.515444    0.000607
     12          6           0        1.038137   -0.521178    0.003607
     13          6           0        1.733241   -0.498994    1.216317
     14          6           0        1.735313   -0.500380   -1.205823
     15          6           0        3.131236   -0.501924    1.216721
     16          1           0        1.185494   -0.501600    2.162198
     17          6           0        3.133594   -0.503838   -1.205245
     18          1           0        1.189441   -0.503497   -2.154202
     19          6           0        3.828940   -0.502741    0.006338
     20          1           0        3.677424   -0.501477    2.164168
     21          1           0        3.681197   -0.504590   -2.151735
     22          1           0        4.898318   -0.503165    0.007326
     23          7           0       -5.306420   -0.950037    1.138085
 ---------------------------------------------------------------------
                    Distance matrix (angstroms):
                    1          2          3          4          5
     1  C    0.000000
     2  C    1.403451   0.000000
     3  C    2.422073   1.390941   0.000000
     4  C    2.795257   2.415365   1.399257   0.000000
     5  C    2.420541   2.793413   2.423402   1.398420   0.000000
     6  H    1.094883   2.171296   3.414038   3.890139   3.412940
     7  H    3.412318   2.155808   1.092229   2.163558   3.413316
     8  H    3.888910   3.405877   2.164002   1.093653   2.163419
     9  H    3.411763   3.886849   3.414353   2.163394   1.093521
    10  C    2.505965   1.542023   2.582240   3.856430   4.333341
    11  C    3.606095   2.740893   3.681334   5.010897   5.532432
    12  C    5.086300   4.282068   5.159902   6.518499   7.073683
    13  C    5.665332   5.135421   6.191187   7.484206   7.856649
    14  C    6.112265   5.111179   5.721346   7.118525   7.870376
    15  C    7.058812   6.499459   7.498920   8.821857   9.241382
    16  H    5.229709   4.950895   6.145499   7.336235   7.525340
    17  C    7.422750   6.480869   7.116542   8.514363   9.253525
    18  H    6.061368   4.906905   5.272748   6.656861   7.551548
    19  C    7.828813   7.072698   7.896355   9.274699   9.864335
    20  H    7.678571   7.266598   8.347484   9.628117   9.941639
    21  H    8.267189   7.236571   7.727564   9.121058   9.961349
    22  H    8.887272   8.142054   8.954168  10.336081  10.933701
    23  N    1.397384   2.423205   2.798124   2.421968   1.398207
                    6          7          8          9         10
     6  H    0.000000
     7  H    4.316107   0.000000
     8  H    4.983792   2.492341   0.000000
     9  H    4.315923   4.316201   2.491665   0.000000
    10  C    2.678077   2.805031   4.742240   5.426481   0.000000
    11  C    3.538295   3.675373   5.839617   6.625476   1.199171
    12  C    4.859699   4.998166   7.297294   8.166640   2.740486
    13  C    5.194844   6.173917   8.344249   8.933406   3.645121
    14  C    6.033106   5.308923   7.755100   8.956444   3.642429
    15  C    6.566433   7.386755   9.645513  10.321665   4.984779
    16  H    4.608966   6.310283   8.272277   8.569594   3.608627
    17  C    7.248142   6.681339   9.141181  10.342062   4.983432
    18  H    6.166464   4.703979   7.178949   8.612978   3.604924
    19  C    7.473876   7.601926   9.997716  10.957147   5.531276
    20  H    7.071378   8.314806  10.495562  11.004011   5.799390
    21  H    8.171976   7.172567   9.657366  11.037685   5.796968
    22  H    8.504646   8.631345  11.044941  12.026487   6.600654
    23  N    2.163349   3.890352   3.413069   2.163322   3.805452
                   11         12         13         14         15
    11  C    0.000000
    12  C    1.541315   0.000000
    13  C    2.545531   1.397972   0.000000
    14  C    2.542927   1.396141   2.422141   0.000000
    15  C    3.832490   2.419314   1.397998   2.795948   0.000000
    16  H    2.743033   2.163703   1.093035   3.412604   2.163294
    17  C    3.831478   2.419207   2.797315   1.398285   2.421968
    18  H    2.740120   2.163180   3.414109   1.094262   3.890205
    19  C    4.332126   2.790865   2.419920   2.419217   1.397075
    20  H    4.707283   3.410902   2.162932   3.889555   1.093608
    21  H    4.705483   3.410504   3.890801   2.163615   3.413057
    22  H    5.401500   3.860225   3.388124   3.387674   2.141312
    23  N    4.955199   6.459440   7.054530   7.435193   8.449913
                   16         17         18         19         20
    16  H    0.000000
    17  C    3.890343   0.000000
    18  H    4.316402   2.163389   0.000000
    19  C    3.411091   1.396940   3.410995   0.000000
    20  H    2.491931   3.413020   4.983813   2.163144   0.000000
    21  H    4.983830   1.093486   2.491757   2.163125   4.315906
    22  H    4.292848   2.141163   4.292782   1.069379   2.478418
    23  N    6.587476   8.770639   7.296215   9.216058   9.053370
                   21         22         23
    21  H    0.000000
    22  H    2.478493   0.000000
    23  N    9.581158  10.276915   0.000000
 Stoichiometry    C13H9N
 Framework group  C1[X(C13H9N)]
 Deg. of freedom    63
 Full point group                 C1      NOp   1
 Largest Abelian subgroup         C1      NOp   1
 Largest concise Abelian subgroup C1      NOp   1
                         Standard orientation:                         
 ---------------------------------------------------------------------
 Center     Atomic      Atomic             Coordinates (Angstroms)
 Number     Number       Type             X           Y           Z
 ---------------------------------------------------------------------
      1          6           0       -2.805144   -1.183719   -0.272692
      2          6           0       -2.146393    0.027453   -0.010419
      3          6           0       -2.879739    1.189089    0.207574
      4          6           0       -4.277471    1.135340    0.244689
      5          6           0       -4.937641   -0.077325    0.022880
      6          1           0       -2.228188   -2.091404   -0.477628
      7          1           0       -2.364139    2.135852    0.382955
      8          1           0       -4.853854    2.042152    0.448529
      9          1           0       -6.030006   -0.118352    0.051937
     10          6           0       -0.604905   -0.013185   -0.010663
     11          6           0        0.594258   -0.008965   -0.012035
     12          6           0        2.135562   -0.003529   -0.013795
     13          6           0        2.837400   -1.186697    0.234925
     14          6           0        2.825854    1.192943   -0.216680
     15          6           0        4.235377   -1.179068    0.235128
     16          1           0        2.294992   -2.119919    0.407015
     17          6           0        4.224119    1.200305   -0.216962
     18          1           0        2.274669    2.120852   -0.397209
     19          6           0        4.926261    0.014326    0.010830
     20          1           0        4.786881   -2.106555    0.412861
     21          1           0        4.766390    2.133501   -0.392464
     22          1           0        5.995624    0.019833    0.012897
     23          7           0       -4.201085   -1.236825   -0.237939
 ---------------------------------------------------------------------
 Rotational constants (GHZ):           2.8616216           0.2344937           0.2179711
 Standard basis: 6-31+G(d) (6D, 7F)
 There are   284 symmetry adapted cartesian basis functions of A   symmetry.
 There are   284 symmetry adapted basis functions of A   symmetry.
   284 basis functions,   484 primitive gaussians,   284 cartesian basis functions
    47 alpha electrons       47 beta electrons
       nuclear repulsion energy       685.0590209408 Hartrees.
 NAtoms=   23 NActive=   23 NUniq=   23 SFac= 1.00D+00 NAtFMM=   60 NAOKFM=F Big=F
 Integral buffers will be    131072 words long.
 Raffenetti 2 integral format.
 Two-electron integral symmetry is turned on.
 Nuclear repulsion after empirical dispersion term =      685.0454749957 Hartrees.
 One-electron integrals computed using PRISM.
 NBasis=   284 RedAO= T EigKep=  1.40D-06  NBF=   284
 NBsUse=   282 1.00D-06 EigRej=  9.39D-08 NBFU=   282
 ExpMin= 4.38D-02 ExpMax= 4.17D+03 ExpMxC= 6.27D+02 IAcc=3 IRadAn=         5 AccDes= 0.00D+00
 Harris functional with IExCor=  402 and IRadAn=       5 diagonalized for initial guess.
 HarFok:  IExCor=  402 AccDes= 0.00D+00 IRadAn=         5 IDoV= 1 UseB2=F ITyADJ=14
 ICtDFT=  3500011 ScaDFX=  1.000000  1.000000  1.000000  1.000000
 FoFCou: FMM=F IPFlag=           0 FMFlag=      100000 FMFlg1=           0
         NFxFlg=           0 DoJE=T BraDBF=F KetDBF=T FulRan=T
         wScrn=  0.000000 ICntrl=       500 IOpCl=  0 I1Cent=   200000004 NGrid=           0
         NMat0=    1 NMatS0=      1 NMatT0=    0 NMatD0=    1 NMtDS0=    0 NMtDT0=    0
 Petite list used in FoFCou.
 Requested convergence on RMS density matrix=1.00D-08 within 128 cycles.
 Requested convergence on MAX density matrix=1.00D-06.
 Requested convergence on             energy=1.00D-06.
 No special actions if energy rises.
 SCF Done:  E(RB3LYP) =  -555.507329813     A.U. after   15 cycles
            NFock= 15  Conv=0.82D-08     -V/T= 2.0110

 **********************************************************************

            Population analysis using the SCF Density.

 **********************************************************************

 Orbital symmetries:
       Occupied  (A) (A) (A) (A) (A) (A) (A) (A) (A) (A) (A) (A)
                 (A) (A) (A) (A) (A) (A) (A) (A) (A) (A) (A) (A)
                 (A) (A) (A) (A) (A) (A) (A) (A) (A) (A) (A) (A)
                 (A) (A) (A) (A) (A) (A) (A) (A) (A) (A) (A)
       Virtual   (A) (A) (A) (A) (A) (A) (A) (A) (A) (A) (A) (A)
                 (A) (A) (A) (A) (A) (A) (A) (A) (A) (A) (A) (A)
                 (A) (A) (A) (A) (A) (A) (A) (A) (A) (A) (A) (A)
                 (A) (A) (A) (A) (A) (A) (A) (A) (A) (A) (A) (A)
                 (A) (A) (A) (A) (A) (A) (A) (A) (A) (A) (A) (A)
                 (A) (A) (A) (A) (A) (A) (A) (A) (A) (A) (A) (A)
                 (A) (A) (A) (A) (A) (A) (A) (A) (A) (A) (A) (A)
                 (A) (A) (A) (A) (A) (A) (A) (A) (A) (A) (A) (A)
                 (A) (A) (A) (A) (A) (A) (A) (A) (A) (A) (A) (A)
                 (A) (A) (A) (A) (A) (A) (A) (A) (A) (A) (A) (A)
                 (A) (A) (A) (A) (A) (A) (A) (A) (A) (A) (A) (A)
                 (A) (A) (A) (A) (A) (A) (A) (A) (A) (A) (A) (A)
                 (A) (A) (A) (A) (A) (A) (A) (A) (A) (A) (A) (A)
                 (A) (A) (A) (A) (A) (A) (A) (A) (A) (A) (A) (A)
                 (A) (A) (A) (A) (A) (A) (A) (A) (A) (A) (A) (A)
                 (A) (A) (A) (A) (A) (A) (A) (A) (A) (A) (A) (A)
                 (A) (A) (A) (A) (A) (A) (A) (A) (A) (A) (A) (A)
                 (A) (A) (A) (A) (A) (A) (A) (A) (A) (A) (A) (A)
                 (A) (A) (A) (A) (A) (A) (A) (A) (A) (A) (A) (A)
                 (A) (A) (A) (A) (A) (A) (A)
 The electronic state is 1-A.
 Alpha  occ. eigenvalues --  -14.35604 -10.24773 -10.24693 -10.24586 -10.23987
 Alpha  occ. eigenvalues --  -10.22760 -10.21894 -10.21196 -10.21175 -10.20997
 Alpha  occ. eigenvalues --  -10.20978 -10.20972 -10.20707 -10.20705  -0.93125
 Alpha  occ. eigenvalues --   -0.87468  -0.82135  -0.79158  -0.77786  -0.76253
 Alpha  occ. eigenvalues --   -0.73738  -0.64959  -0.64109  -0.62160  -0.62130
 Alpha  occ. eigenvalues --   -0.55119  -0.53752  -0.50550  -0.49286  -0.48360
 Alpha  occ. eigenvalues --   -0.46791  -0.45514  -0.44564  -0.43753  -0.41476
 Alpha  occ. eigenvalues --   -0.40594  -0.39258  -0.38930  -0.36977  -0.36431
 Alpha  occ. eigenvalues --   -0.32947  -0.29994  -0.29155  -0.28022  -0.26890
 Alpha  occ. eigenvalues --   -0.26330  -0.24138
 Alpha virt. eigenvalues --   -0.05978  -0.04591  -0.02531  -0.02194  -0.00321
 Alpha virt. eigenvalues --    0.00360   0.01935   0.02074   0.03089   0.03630
 Alpha virt. eigenvalues --    0.03998   0.04414   0.04602   0.05458   0.05535
 Alpha virt. eigenvalues --    0.05923   0.06723   0.06815   0.07311   0.08029
 Alpha virt. eigenvalues --    0.08280   0.08697   0.09259   0.09725   0.10412
 Alpha virt. eigenvalues --    0.10878   0.12181   0.12371   0.12945   0.13410
 Alpha virt. eigenvalues --    0.13755   0.14061   0.14461   0.14825   0.15077
 Alpha virt. eigenvalues --    0.15665   0.15779   0.16298   0.16417   0.16919
 Alpha virt. eigenvalues --    0.17260   0.17973   0.18893   0.19391   0.19599
 Alpha virt. eigenvalues --    0.20569   0.20620   0.20930   0.21153   0.21269
 Alpha virt. eigenvalues --    0.21999   0.22556   0.23226   0.23388   0.23895
 Alpha virt. eigenvalues --    0.24523   0.25029   0.25531   0.25756   0.26379
 Alpha virt. eigenvalues --    0.26492   0.27065   0.27539   0.27828   0.28039
 Alpha virt. eigenvalues --    0.29290   0.29907   0.31011   0.31817   0.32145
 Alpha virt. eigenvalues --    0.32559   0.33032   0.33270   0.34887   0.34978
 Alpha virt. eigenvalues --    0.36472   0.37424   0.38489   0.41543   0.42539
 Alpha virt. eigenvalues --    0.48946   0.53599   0.55014   0.56225   0.59372
 Alpha virt. eigenvalues --    0.64000   0.65735   0.66603   0.67171   0.67915
 Alpha virt. eigenvalues --    0.68247   0.69089   0.70152   0.70404   0.70737
 Alpha virt. eigenvalues --    0.71142   0.71511   0.72647   0.72985   0.73889
 Alpha virt. eigenvalues --    0.74100   0.74526   0.75163   0.76099   0.77536
 Alpha virt. eigenvalues --    0.77877   0.80482   0.80681   0.82446   0.84135
 Alpha virt. eigenvalues --    0.85317   0.85555   0.89149   0.90807   0.91440
 Alpha virt. eigenvalues --    0.92104   0.92474   0.93390   0.94326   0.95300
 Alpha virt. eigenvalues --    0.95375   0.97503   1.00301   1.00686   1.00804
 Alpha virt. eigenvalues --    1.02063   1.06429   1.07781   1.10519   1.11734
 Alpha virt. eigenvalues --    1.12392   1.13093   1.15023   1.16531   1.17660
 Alpha virt. eigenvalues --    1.18167   1.19740   1.20879   1.21704   1.23464
 Alpha virt. eigenvalues --    1.23991   1.25424   1.25648   1.29379   1.30513
 Alpha virt. eigenvalues --    1.34912   1.36532   1.40453   1.41631   1.42627
 Alpha virt. eigenvalues --    1.43477   1.45138   1.45746   1.45747   1.46419
 Alpha virt. eigenvalues --    1.46954   1.47582   1.49240   1.51823   1.54698
 Alpha virt. eigenvalues --    1.55889   1.57947   1.68184   1.77354   1.78929
 Alpha virt. eigenvalues --    1.80721   1.81518   1.84948   1.86160   1.86702
 Alpha virt. eigenvalues --    1.87896   1.89873   1.93049   1.94588   1.95430
 Alpha virt. eigenvalues --    1.97059   1.97715   2.05000   2.07695   2.08534
 Alpha virt. eigenvalues --    2.09744   2.12078   2.13896   2.14086   2.14205
 Alpha virt. eigenvalues --    2.15497   2.16515   2.17932   2.18328   2.19795
 Alpha virt. eigenvalues --    2.26905   2.28698   2.29051   2.29370   2.29487
 Alpha virt. eigenvalues --    2.33496   2.47200   2.47711   2.49322   2.55415
 Alpha virt. eigenvalues --    2.58601   2.60403   2.61126   2.62475   2.63263
 Alpha virt. eigenvalues --    2.64768   2.69568   2.70764   2.73349   2.73973
 Alpha virt. eigenvalues --    2.75458   2.77308   2.81131   2.81686   2.88208
 Alpha virt. eigenvalues --    2.93127   3.03312   3.15175   3.27134   3.36695
 Alpha virt. eigenvalues --    3.54705   4.14316   4.18605   4.21916   4.23113
 Alpha virt. eigenvalues --    4.24307   4.25678   4.31408   4.34692   4.36626
 Alpha virt. eigenvalues --    4.39172   4.51133   4.59401   4.71470   4.87665
          Condensed to atoms (all electrons):
               1          2          3          4          5          6
     1  C    8.486641   0.136591  -3.767952   1.073175  -0.475912   0.544205
     2  C    0.136591  10.908511  -3.453031   1.274874  -0.092144  -0.205017
     3  C   -3.767952  -3.453031  14.599382  -3.280788   0.885187  -0.067884
     4  C    1.073175   1.274874  -3.280788   7.433388  -0.452075   0.009594
     5  C   -0.475912  -0.092144   0.885187  -0.452075   5.805122   0.003444
     6  H    0.544205  -0.205017  -0.067884   0.009594   0.003444   0.519064
     7  H   -0.004241  -0.019816   0.273520  -0.008068  -0.014298  -0.000145
     8  H    0.009179   0.021785  -0.064571   0.321646   0.022330   0.000019
     9  H   -0.004918  -0.015303   0.084954  -0.164630   0.439985  -0.000005
    10  C    0.463257  -2.762850   1.002504  -0.304039  -0.104853   0.050648
    11  C   -0.086175   1.096833  -0.323556  -0.011032   0.011790   0.006804
    12  C   -0.018347  -1.997048   0.396543  -0.087599  -0.000601   0.004288
    13  C   -0.091767   0.076006   0.175322  -0.033200   0.006906  -0.000777
    14  C    0.076893   0.293716  -0.212440   0.041005  -0.005735   0.000371
    15  C    0.018592  -0.072642  -0.023357  -0.002701  -0.000352  -0.000646
    16  H    0.000444   0.008136  -0.000083   0.000034   0.000001   0.000002
    17  C   -0.021996  -0.057635   0.046886   0.001425   0.000346   0.000082
    18  H   -0.000103   0.008767   0.000938   0.000062   0.000018   0.000000
    19  C    0.000740  -0.001054   0.000991   0.000248   0.000022   0.000006
    20  H    0.000004  -0.000137  -0.000002  -0.000001   0.000000   0.000000
    21  H    0.000001  -0.000093   0.000000   0.000001   0.000000   0.000000
    22  H    0.000000   0.000038   0.000000   0.000000   0.000000   0.000000
    23  N    0.053561   0.165715   0.067503  -0.019536   0.290365  -0.070196
               7          8          9         10         11         12
     1  C   -0.004241   0.009179  -0.004918   0.463257  -0.086175  -0.018347
     2  C   -0.019816   0.021785  -0.015303  -2.762850   1.096833  -1.997048
     3  C    0.273520  -0.064571   0.084954   1.002504  -0.323556   0.396543
     4  C   -0.008068   0.321646  -0.164630  -0.304039  -0.011032  -0.087599
     5  C   -0.014298   0.022330   0.439985  -0.104853   0.011790  -0.000601
     6  H   -0.000145   0.000019  -0.000005   0.050648   0.006804   0.004288
     7  H    0.513758  -0.004672  -0.000137   0.037526   0.017592   0.003308
     8  H   -0.004672   0.519442  -0.000962  -0.016319  -0.002369  -0.000377
     9  H   -0.000137  -0.000962   0.533098   0.003155   0.000625   0.000064
    10  C    0.037526  -0.016319   0.003155   8.120107  -0.898440   1.635279
    11  C    0.017592  -0.002369   0.000625  -0.898440   9.526389  -4.583949
    12  C    0.003308  -0.000377   0.000064   1.635279  -4.583949  14.493005
    13  C   -0.000150  -0.000008  -0.000002  -0.388723   0.643360  -2.751978
    14  C    0.001175   0.000024   0.000001  -0.619118   2.778175  -4.755492
    15  C    0.000072  -0.000002   0.000000   0.041957  -0.559050   1.317894
    16  H    0.000000   0.000000   0.000000   0.007555   0.051451  -0.056682
    17  C   -0.000258   0.000002   0.000000   0.131014  -1.039131   1.748395
    18  H    0.000000   0.000000   0.000000   0.005525   0.058668  -0.064238
    19  C    0.000015   0.000000   0.000000   0.023774  -0.189246   0.195652
    20  H    0.000000   0.000000   0.000000  -0.000775  -0.007942   0.005529
    21  H    0.000000   0.000000   0.000000  -0.000533  -0.006156   0.002066
    22  H    0.000000   0.000000   0.000000   0.000412   0.002474  -0.002307
    23  N    0.000835   0.004226  -0.070228  -0.065552  -0.012787  -0.007846
              13         14         15         16         17         18
     1  C   -0.091767   0.076893   0.018592   0.000444  -0.021996  -0.000103
     2  C    0.076006   0.293716  -0.072642   0.008136  -0.057635   0.008767
     3  C    0.175322  -0.212440  -0.023357  -0.000083   0.046886   0.000938
     4  C   -0.033200   0.041005  -0.002701   0.000034   0.001425   0.000062
     5  C    0.006906  -0.005735  -0.000352   0.000001   0.000346   0.000018
     6  H   -0.000777   0.000371  -0.000646   0.000002   0.000082   0.000000
     7  H   -0.000150   0.001175   0.000072   0.000000  -0.000258   0.000000
     8  H   -0.000008   0.000024  -0.000002   0.000000   0.000002   0.000000
     9  H   -0.000002   0.000001   0.000000   0.000000   0.000000   0.000000
    10  C   -0.388723  -0.619118   0.041957   0.007555   0.131014   0.005525
    11  C    0.643360   2.778175  -0.559050   0.051451  -1.039131   0.058668
    12  C   -2.751978  -4.755492   1.317894  -0.056682   1.748395  -0.064238
    13  C   26.982375 -15.639194  -7.314400   0.313654   4.891800   0.022070
    14  C  -15.639194  27.492180   4.718134   0.024729  -7.617075   0.322419
    15  C   -7.314400   4.718134   8.841613  -0.063449  -1.843164  -0.007581
    16  H    0.313654   0.024729  -0.063449   0.522294  -0.007602  -0.000142
    17  C    4.891800  -7.617075  -1.843164  -0.007602   8.891060  -0.068765
    18  H    0.022070   0.322419  -0.007581  -0.000142  -0.068765   0.524499
    19  C   -0.456265  -0.531423   0.709595   0.006798   0.730765   0.006719
    20  H   -0.032607  -0.002927   0.303382  -0.004467   0.007358   0.000015
    21  H   -0.000906  -0.029237   0.005566   0.000015   0.298025  -0.004491
    22  H    0.015039   0.009949  -0.010858  -0.000148  -0.009879  -0.000149
    23  N   -0.002466   0.001755   0.000233  -0.000001  -0.000001   0.000000
              19         20         21         22         23
     1  C    0.000740   0.000004   0.000001   0.000000   0.053561
     2  C   -0.001054  -0.000137  -0.000093   0.000038   0.165715
     3  C    0.000991  -0.000002   0.000000   0.000000   0.067503
     4  C    0.000248  -0.000001   0.000001   0.000000  -0.019536
     5  C    0.000022   0.000000   0.000000   0.000000   0.290365
     6  H    0.000006   0.000000   0.000000   0.000000  -0.070196
     7  H    0.000015   0.000000   0.000000   0.000000   0.000835
     8  H    0.000000   0.000000   0.000000   0.000000   0.004226
     9  H    0.000000   0.000000   0.000000   0.000000  -0.070228
    10  C    0.023774  -0.000775  -0.000533   0.000412  -0.065552
    11  C   -0.189246  -0.007942  -0.006156   0.002474  -0.012787
    12  C    0.195652   0.005529   0.002066  -0.002307  -0.007846
    13  C   -0.456265  -0.032607  -0.000906   0.015039  -0.002466
    14  C   -0.531423  -0.002927  -0.029237   0.009949   0.001755
    15  C    0.709595   0.303382   0.005566  -0.010858   0.000233
    16  H    0.006798  -0.004467   0.000015  -0.000148  -0.000001
    17  C    0.730765   0.007358   0.298025  -0.009879  -0.000001
    18  H    0.006719   0.000015  -0.004491  -0.000149   0.000000
    19  C    5.375103   0.021930   0.024984   0.286651  -0.000029
    20  H    0.021930   0.529464  -0.000154  -0.004947   0.000000
    21  H    0.024984  -0.000154   0.530107  -0.004940   0.000000
    22  H    0.286651  -0.004947  -0.004940   0.537332   0.000000
    23  N   -0.000029   0.000000   0.000000   0.000000   6.828782
 Mulliken charges:
               1
     1  C   -0.391871
     2  C    0.685798
     3  C   -0.340069
     4  C    0.208217
     5  C   -0.319547
     6  H    0.206144
     7  H    0.203986
     8  H    0.190624
     9  H    0.194301
    10  C   -0.361513
    11  C   -0.474327
    12  C    0.524442
    13  C   -0.414091
    14  C   -0.347886
    15  C   -0.058834
    16  H    0.197459
    17  C   -0.081651
    18  H    0.195768
    19  C   -0.205974
    20  H    0.186276
    21  H    0.185746
    22  H    0.181332
    23  N   -0.164331
 Sum of Mulliken charges =   0.00000
 Mulliken charges with hydrogens summed into heavy atoms:
               1
     1  C   -0.185727
     2  C    0.685798
     3  C   -0.136083
     4  C    0.398841
     5  C   -0.125246
    10  C   -0.361513
    11  C   -0.474327
    12  C    0.524442
    13  C   -0.216632
    14  C   -0.152117
    15  C    0.127442
    17  C    0.104095
    19  C   -0.024642
    23  N   -0.164331
 Electronic spatial extent (au):  <R**2>=           4670.2321
 Charge=              0.0000 electrons
 Dipole moment (field-independent basis, Debye):
    X=              1.6164    Y=              2.0957    Z=              0.4253  Tot=              2.6806
 Quadrupole moment (field-independent basis, Debye-Ang):
   XX=            -69.7873   YY=            -75.8725   ZZ=            -87.3755
   XY=            -11.0938   XZ=             -2.3827   YZ=             -0.8551
 Traceless Quadrupole moment (field-independent basis, Debye-Ang):
   XX=              7.8911   YY=              1.8059   ZZ=             -9.6971
   XY=            -11.0938   XZ=             -2.3827   YZ=             -0.8551
 Octapole moment (field-independent basis, Debye-Ang**2):
  XXX=             35.5238  YYY=              9.7639  ZZZ=             -0.4128  XYY=             20.9653
  XXY=             53.7968  XXZ=             12.8081  XZZ=             -5.2395  YZZ=             -0.5273
  YYZ=              2.0701  XYZ=             -6.8316
 Hexadecapole moment (field-independent basis, Debye-Ang**3):
 XXXX=          -5264.6703 YYYY=           -548.1107 ZZZZ=           -128.4832 XXXY=           -256.1866
 XXXZ=            -62.5066 YYYX=            -51.2884 YYYZ=             -3.9930 ZZZX=              0.9406
 ZZZY=              0.3609 XXYY=          -1074.0563 XXZZ=          -1104.5725 YYZZ=           -125.5622
 XXYZ=            -23.6981 YYXZ=            -11.0170 ZZXY=              0.4556
 N-N= 6.850454749957D+02 E-N=-2.655376945420D+03  KE= 5.494509674678D+02
 Evaluate density.
 Using the total density.
 Monte-Carlo method of calculating molar volume:
 based on  0.001 e/bohr**3 density envelope.
 Number of points per bohr**3 =   20 CutOff= 1.00D-04
 Using the SCF density.
 There are       396 points.  Will hold       396 in memory.
 LenV=  4026336852 MDV=  4026531840.
 Box volume = 7775.936 fraction occupied=0.199
 Integrated density= 6.8880095286053503D+01 error=-2.5119904713946497D+01
 Molar volume = 1551.260 bohr**3/mol (138.433 cm**3/mol)
 Recommended a0 for SCRF calculation =  4.68 angstrom (  8.85 bohr)
 Calling FoFJK, ICntrl=      2127 FMM=F ISym2X=0 I1Cent= 0 IOpClX= 0 NMat=1 NMatS=1 NMatT=0.
 ***** Axes restored to original set *****
 -------------------------------------------------------------------
 Center     Atomic                   Forces (Hartrees/Bohr)
 Number     Number              X              Y              Z
 -------------------------------------------------------------------
      1        6          -0.056965400    0.012544047   -0.015052772
      2        6           0.065996065   -0.009718005    0.014679389
      3        6          -0.002185746    0.008036290   -0.009053840
      4        6          -0.002542004   -0.000006189   -0.003650346
      5        6           0.044729581   -0.011483093    0.025500021
      6        1          -0.009975855    0.001232213   -0.002109967
      7        1          -0.001385253   -0.001309984    0.003886279
      8        1           0.002587329   -0.001962792    0.002756295
      9        1           0.005921811   -0.003151394    0.007991004
     10        6          -0.088734217    0.002319057   -0.010265193
     11        6           0.088522244   -0.000724368    0.000594266
     12        6          -0.061032824    0.004439702    0.001593171
     13        6           0.001371801   -0.003018134    0.010016664
     14        6           0.001479079   -0.002733661   -0.012125109
     15        6          -0.000903664    0.000752841    0.003177724
     16        1           0.001613169    0.000231597   -0.004708948
     17        6          -0.000947002    0.000853121   -0.002702045
     18        1           0.001902034    0.000131711    0.005385994
     19        6          -0.008566534   -0.000364855   -0.000099652
     20        1          -0.002722660    0.000260547   -0.003793271
     21        1          -0.002744347    0.000228525    0.003712846
     22        1           0.012681489   -0.000130584    0.000030584
     23        7           0.011900904    0.003573406   -0.015763096
 -------------------------------------------------------------------
 Cartesian Forces:  Max     0.088734217 RMS     0.021567149

 GradGradGradGradGradGradGradGradGradGradGradGradGradGradGradGradGradGrad
 Berny optimization.
 FormGI is forming the generalized inverse of G from B-inverse, IUseBI=4.
 Internal  Forces:  Max     0.058357592 RMS     0.011818950
 Search for a local minimum.
 Step number   1 out of a maximum of  120
 All quantities printed in internal units (Hartrees-Bohrs-Radians)
 Mixed Optimization -- RFO/linear search
 Second derivative matrix not updated -- first step.
 ITU=  0
     Eigenvalues ---    0.00230   0.00230   0.00230   0.01515   0.01650
     Eigenvalues ---    0.01801   0.01938   0.01982   0.02056   0.02104
     Eigenvalues ---    0.02116   0.02117   0.02119   0.02122   0.02124
     Eigenvalues ---    0.02126   0.02128   0.02132   0.02138   0.02163
     Eigenvalues ---    0.03989   0.04701   0.15990   0.15995   0.15996
     Eigenvalues ---    0.15996   0.16000   0.16000   0.16000   0.16000
     Eigenvalues ---    0.16000   0.21992   0.21994   0.22000   0.23180
     Eigenvalues ---    0.23471   0.23476   0.24980   0.24994   0.28340
     Eigenvalues ---    0.28403   0.34254   0.34325   0.34394   0.34399
     Eigenvalues ---    0.34409   0.34413   0.34464   0.34556   0.37309
     Eigenvalues ---    0.41553   0.41750   0.42025   0.42632   0.45389
     Eigenvalues ---    0.45833   0.45928   0.45974   0.45996   0.46091
     Eigenvalues ---    0.46204   0.46793   1.05241
 RFO step:  Lambda=-4.11605784D-02 EMin= 2.30000000D-03
 Linear search not attempted -- first point.
 Maximum step size (   0.300) exceeded in Quadratic search.
    -- Step size scaled by   0.867
 Iteration  1 RMS(Cart)=  0.08796016 RMS(Int)=  0.00109124
 Iteration  2 RMS(Cart)=  0.00215472 RMS(Int)=  0.00009351
 Iteration  3 RMS(Cart)=  0.00000233 RMS(Int)=  0.00009351
 Iteration  4 RMS(Cart)=  0.00000000 RMS(Int)=  0.00009351
 Variable       Old X    -DE/DX   Delta X   Delta X   Delta X     New X
                                 (Linear)    (Quad)   (Total)
    R1        2.65214   0.00211   0.00000   0.00388   0.00385   2.65599
    R2        2.06903  -0.00727   0.00000  -0.01643  -0.01643   2.05260
    R3        2.64067  -0.05222   0.00000  -0.09355  -0.09362   2.54705
    R4        2.62850  -0.00120   0.00000   0.00139   0.00143   2.62993
    R5        2.91400  -0.05836   0.00000  -0.15581  -0.15581   2.75819
    R6        2.64421  -0.00998   0.00000  -0.01397  -0.01390   2.63031
    R7        2.06401  -0.00426   0.00000  -0.00955  -0.00955   2.05446
    R8        2.64263  -0.00053   0.00000  -0.00106  -0.00104   2.64159
    R9        2.06671  -0.00417   0.00000  -0.00939  -0.00939   2.05731
   R10        2.06646  -0.00570   0.00000  -0.01282  -0.01282   2.05364
   R11        2.64223  -0.04826   0.00000  -0.08710  -0.08714   2.55509
   R12        2.26611   0.03066   0.00000   0.02429   0.02429   2.29040
   R13        2.91266  -0.05787   0.00000  -0.15422  -0.15422   2.75845
   R14        2.64178   0.00357   0.00000   0.00635   0.00635   2.64813
   R15        2.63832   0.00472   0.00000   0.00831   0.00831   2.64663
   R16        2.64183  -0.00159   0.00000  -0.00278  -0.00278   2.63906
   R17        2.06554  -0.00488   0.00000  -0.01097  -0.01097   2.05457
   R18        2.64238  -0.00162   0.00000  -0.00278  -0.00277   2.63960
   R19        2.06786  -0.00562   0.00000  -0.01266  -0.01266   2.05519
   R20        2.64009   0.00218   0.00000   0.00356   0.00357   2.64366
   R21        2.06662  -0.00465   0.00000  -0.01045  -0.01045   2.05617
   R22        2.63983   0.00213   0.00000   0.00351   0.00351   2.64335
   R23        2.06639  -0.00459   0.00000  -0.01032  -0.01032   2.05607
   R24        2.02083   0.01268   0.00000   0.02653   0.02653   2.04736
    A1        2.09796  -0.00169   0.00000   0.00502   0.00503   2.10299
    A2        2.09099   0.01841   0.00000   0.05497   0.05482   2.14581
    A3        2.09389  -0.01669   0.00000  -0.05958  -0.05957   2.03432
    A4        2.09733  -0.00743   0.00000  -0.01567  -0.01567   2.08166
    A5        2.03358   0.01277   0.00000   0.03482   0.03482   2.06840
    A6        2.15206  -0.00534   0.00000  -0.01905  -0.01905   2.13301
    A7        2.09293  -0.01386   0.00000  -0.03254  -0.03246   2.06047
    A8        2.09462   0.00617   0.00000   0.01318   0.01309   2.10772
    A9        2.09507   0.00773   0.00000   0.01982   0.01973   2.11481
   A10        2.09517  -0.00602   0.00000  -0.01370  -0.01360   2.08157
   A11        2.09387   0.00248   0.00000   0.00458   0.00453   2.09840
   A12        2.09414   0.00354   0.00000   0.00912   0.00907   2.10322
   A13        2.09428  -0.00056   0.00000   0.01063   0.01064   2.10493
   A14        2.09442   0.01917   0.00000   0.05650   0.05647   2.15090
   A15        2.09448  -0.01861   0.00000  -0.06713  -0.06712   2.02736
   A16        2.09307  -0.00013   0.00000  -0.00064  -0.00065   2.09241
   A17        2.09164  -0.00033   0.00000  -0.00124  -0.00126   2.09039
   A18        2.09779   0.00049   0.00000   0.00228   0.00225   2.10004
   A19        2.09144  -0.00105   0.00000  -0.00312  -0.00314   2.08830
   A20        2.09611  -0.00046   0.00000  -0.00264  -0.00264   2.09347
   A21        2.09540   0.00153   0.00000   0.00593   0.00592   2.10132
   A22        2.09320  -0.00141   0.00000  -0.00414  -0.00416   2.08904
   A23        2.09628  -0.00036   0.00000  -0.00248  -0.00248   2.09380
   A24        2.09347   0.00178   0.00000   0.00677   0.00677   2.10024
   A25        2.09342   0.00138   0.00000   0.00421   0.00420   2.09762
   A26        2.09403  -0.00117   0.00000  -0.00417  -0.00417   2.08986
   A27        2.09573  -0.00021   0.00000  -0.00003  -0.00003   2.09570
   A28        2.09222   0.00151   0.00000   0.00481   0.00480   2.09703
   A29        2.09489  -0.00129   0.00000  -0.00470  -0.00470   2.09019
   A30        2.09607  -0.00022   0.00000  -0.00010  -0.00010   2.09597
   A31        2.09766  -0.00089   0.00000  -0.00359  -0.00359   2.09407
   A32        2.09278   0.00043   0.00000   0.00172   0.00172   2.09450
   A33        2.09274   0.00046   0.00000   0.00188   0.00188   2.09462
   A34        2.09366  -0.01019   0.00000  -0.04833  -0.04853   2.04513
   A35        3.17054  -0.00350   0.00000  -0.03462  -0.03464   3.13589
   A36        3.14159   0.00141   0.00000   0.02872   0.02869   3.17028
   A37        3.13228   0.00082   0.00000   0.00825   0.00812   3.14040
   A38        3.14159  -0.00005   0.00000   0.00101   0.00112   3.14271
    D1        3.10566   0.00031   0.00000   0.00526   0.00517   3.11084
    D2       -0.01472   0.00001   0.00000   0.00010   0.00007  -0.01465
    D3       -0.06456   0.00115   0.00000   0.02073   0.02106  -0.04350
    D4        3.09824   0.00085   0.00000   0.01558   0.01596   3.11420
    D5        0.02934  -0.00074   0.00000  -0.01153  -0.01144   0.01790
    D6       -3.14082   0.00035   0.00000   0.00497   0.00485  -3.13597
    D7        0.06660  -0.00206   0.00000  -0.02360  -0.02322   0.04338
    D8       -3.11087  -0.00089   0.00000  -0.00853  -0.00829  -3.11916
    D9       -3.09770  -0.00152   0.00000  -0.01740  -0.01724  -3.11494
   D10        0.00801  -0.00035   0.00000  -0.00233  -0.00231   0.00570
   D11       -0.42138   0.00102   0.00000   0.01593   0.01595  -0.40542
   D12        2.76189  -0.00002   0.00000   0.00040   0.00054   2.76243
   D13        2.74721   0.00016   0.00000   0.00244   0.00231   2.74952
   D14       -0.35271  -0.00088   0.00000  -0.01309  -0.01311  -0.36581
   D15       -0.03360   0.00072   0.00000   0.01243   0.01256  -0.02104
   D16        3.10669   0.00091   0.00000   0.01299   0.01295   3.11964
   D17       -3.13930  -0.00043   0.00000  -0.00250  -0.00229  -3.14159
   D18        0.00098  -0.00024   0.00000  -0.00195  -0.00190  -0.00092
   D19       -3.14144  -0.00002   0.00000  -0.00226  -0.00245   3.13929
   D20       -0.00147  -0.00015   0.00000  -0.00267  -0.00281  -0.00428
   D21        0.00146  -0.00021   0.00000  -0.00282  -0.00284  -0.00138
   D22        3.14144  -0.00034   0.00000  -0.00323  -0.00320   3.13824
   D23        0.00343   0.00044   0.00000   0.00302   0.00274   0.00617
   D24       -3.13978   0.00032   0.00000   0.00269   0.00247  -3.13731
   D25       -3.13968   0.00020   0.00000   0.00175   0.00170  -3.13798
   D26        0.02538  -0.00043   0.00000  -0.00686  -0.00688   0.01850
   D27       -0.03799   0.00089   0.00000   0.01313   0.01316  -0.02484
   D28        3.12707   0.00027   0.00000   0.00452   0.00457   3.13165
   D29        3.14019  -0.00020   0.00000  -0.00185  -0.00181   3.13838
   D30       -0.02477   0.00038   0.00000   0.00612   0.00614  -0.01863
   D31        0.03847  -0.00090   0.00000  -0.01324  -0.01326   0.02521
   D32       -3.12649  -0.00032   0.00000  -0.00527  -0.00531  -3.13180
   D33        0.02003  -0.00048   0.00000  -0.00699  -0.00699   0.01304
   D34       -3.12378  -0.00047   0.00000  -0.00677  -0.00677  -3.13055
   D35        3.13816   0.00011   0.00000   0.00150   0.00152   3.13967
   D36       -0.00565   0.00012   0.00000   0.00172   0.00173  -0.00392
   D37       -0.02094   0.00050   0.00000   0.00716   0.00716  -0.01378
   D38        3.12361   0.00045   0.00000   0.00643   0.00643   3.13004
   D39       -3.13921  -0.00005   0.00000  -0.00067  -0.00068  -3.13989
   D40        0.00535  -0.00010   0.00000  -0.00140  -0.00142   0.00393
   D41       -0.00265   0.00007   0.00000   0.00091   0.00092  -0.00173
   D42        3.13963   0.00007   0.00000   0.00097   0.00096   3.14060
   D43        3.14116   0.00006   0.00000   0.00070   0.00071  -3.14132
   D44        0.00025   0.00006   0.00000   0.00075   0.00075   0.00101
   D45        0.00308  -0.00007   0.00000  -0.00098  -0.00098   0.00210
   D46       -3.13920  -0.00007   0.00000  -0.00103  -0.00103  -3.14023
   D47       -3.14147  -0.00003   0.00000  -0.00025  -0.00026   3.14146
   D48       -0.00057  -0.00002   0.00000  -0.00030  -0.00030  -0.00087
         Item               Value     Threshold  Converged?
 Maximum Force            0.058358     0.000450     NO 
 RMS     Force            0.011819     0.000300     NO 
 Maximum Displacement     0.295280     0.001800     NO 
 RMS     Displacement     0.088731     0.001200     NO 
 Predicted change in Energy=-2.213003D-02
 GradGradGradGradGradGradGradGradGradGradGradGradGradGradGradGradGradGrad

                          Input orientation:                          
 ---------------------------------------------------------------------
 Center     Atomic      Atomic             Coordinates (Angstroms)
 Number     Number       Type             X           Y           Z
 ---------------------------------------------------------------------
      1          6           0       -3.838488   -0.949182    1.054524
      2          6           0       -3.167435   -0.479726   -0.087713
      3          6           0       -3.909205   -0.042774   -1.181182
      4          6           0       -5.296870   -0.041801   -1.072663
      5          6           0       -5.890325   -0.498610    0.107668
      6          1           0       -3.279430   -1.321523    1.908120
      7          1           0       -3.415216    0.305663   -2.084796
      8          1           0       -5.911028    0.312115   -1.898972
      9          1           0       -6.971566   -0.505373    0.216636
     10          6           0       -1.707889   -0.487655   -0.090751
     11          6           0       -0.495912   -0.498009   -0.087368
     12          6           0        0.963006   -0.511971   -0.041435
     13          6           0        1.622834   -0.500101    1.194776
     14          6           0        1.696435   -0.502789   -1.234541
     15          6           0        3.018812   -0.509159    1.232921
     16          1           0        1.047302   -0.497956    2.117178
     17          6           0        3.092465   -0.512279   -1.188662
     18          1           0        1.178273   -0.502865   -2.190731
     19          6           0        3.754946   -0.514205    0.043309
     20          1           0        3.532570   -0.510393    2.192066
     21          1           0        3.663230   -0.516067   -2.114952
     22          1           0        4.837845   -0.520295    0.076280
     23          7           0       -5.181733   -0.953273    1.165655
 ---------------------------------------------------------------------
                    Distance matrix (angstroms):
                    1          2          3          4          5
     1  C    0.000000
     2  C    1.405491   0.000000
     3  C    2.413495   1.391698   0.000000
     4  C    2.734070   2.386713   1.391902   0.000000
     5  C    2.304254   2.729956   2.407023   1.397871   0.000000
     6  H    1.086191   2.168989   3.402294   3.820055   3.276521
     7  H    3.407216   2.160226   1.087176   2.164663   3.402928
     8  H    3.822228   3.381564   2.156030   1.088684   2.164326
     9  H    3.273408   3.816372   3.397933   2.163746   1.086739
    10  C    2.462542   1.459571   2.496547   3.747495   4.187155
    11  C    3.560940   2.671586   3.613065   4.922208   5.397938
    12  C    4.944353   4.130826   5.025694   6.361645   6.854966
    13  C    5.481550   4.959019   6.038027   7.296137   7.591401
    14  C    6.006201   4.997297   5.624736   7.010351   7.704574
    15  C    6.873719   6.325709   7.351382   8.642031   8.979924
    16  H    5.020337   4.756668   5.971041   7.115594   7.222798
    17  C    7.298005   6.356060   7.017398   8.403318   9.075857
    18  H    5.991558   4.827877   5.207043   6.587119   7.432882
    19  C    7.672810   6.923707   7.775657   9.132576   9.645499
    20  H    7.471214   7.077316   8.183977   9.425341   9.650690
    21  H    8.155301   7.125237   7.644455   9.032977   9.808708
    22  H    8.741834   8.007062   8.849865  10.210851  10.728238
    23  N    1.347840   2.419209   2.820635   2.419526   1.352094
                    6          7          8          9         10
     6  H    0.000000
     7  H    4.313879   0.000000
     8  H    4.907956   2.502728   0.000000
     9  H    4.142353   4.313003   2.503762   0.000000
    10  C    2.675923   2.742359   4.644962   5.272674   0.000000
    11  C    3.522517   3.627388   5.767295   6.482790   1.212026
    12  C    4.738608   4.900273   7.168116   7.938770   2.671460
    13  C    5.021532   6.065212   8.184744   8.649884   3.570217
    14  C    5.941875   5.244569   7.679780   8.788638   3.591365
    15  C    6.386210   7.284772   9.498699  10.041937   4.908592
    16  H    4.409374   6.181947   8.074901   8.241017   3.530742
    17  C    7.130637   6.619819   9.069016  10.161675   4.924369
    18  H    6.110802   4.665307   7.141953   8.497958   3.569324
    19  C    7.322003   7.524111   9.893751  10.727916   5.464545
    20  H    6.865996   8.199344  10.324469  10.688275   5.716134
    21  H    8.064390   7.126047   9.612436  10.887391   5.739957
    22  H    8.359890   8.571200  10.960510  11.810254   6.547946
    23  N    2.074999   3.907804   3.394851   2.074790   3.723298
                   11         12         13         14         15
    11  C    0.000000
    12  C    1.459707   0.000000
    13  C    2.476486   1.401332   0.000000
    14  C    2.474350   1.400537   2.430433   0.000000
    15  C    3.754540   2.418746   1.396528   2.799480   0.000000
    16  H    2.691010   2.160304   1.087230   3.414003   2.160761
    17  C    3.753598   2.418828   2.800132   1.396817   2.422704
    18  H    2.688317   2.160068   3.414571   1.087562   3.887031
    19  C    4.252897   2.793228   2.423216   2.422912   1.398962
    20  H    4.628676   3.404584   2.154481   3.887556   1.088076
    21  H    4.627081   3.404512   3.888157   2.154897   3.409336
    22  H    5.336313   3.876636   3.404076   3.403971   2.155649
    23  N    4.871781   6.277709   6.819703   7.298840   8.212838
                   16         17         18         19         20
    16  H    0.000000
    17  C    3.887348   0.000000
    18  H    4.309902   2.160639   0.000000
    19  C    3.410650   1.398798   3.410324   0.000000
    20  H    2.486427   3.409255   4.975106   2.160237   0.000000
    21  H    4.975372   1.088026   2.486147   2.160210   4.309003
    22  H    4.305111   2.155572   4.304893   1.083417   2.486039
    23  N    6.317720   8.613921   7.205406   9.017576   8.785713
                   21         22         23
    21  H    0.000000
    22  H    2.486209   0.000000
    23  N    9.443881  10.087921   0.000000
 Stoichiometry    C13H9N
 Framework group  C1[X(C13H9N)]
 Deg. of freedom    63
 Full point group                 C1      NOp   1
 Largest Abelian subgroup         C1      NOp   1
 Largest concise Abelian subgroup C1      NOp   1
                         Standard orientation:                         
 ---------------------------------------------------------------------
 Center     Atomic      Atomic             Coordinates (Angstroms)
 Number     Number       Type             X           Y           Z
 ---------------------------------------------------------------------
      1          6           0       -2.742400   -1.148270   -0.256937
      2          6           0       -2.076887    0.063391   -0.003212
      3          6           0       -2.823890    1.215727    0.222470
      4          6           0       -4.211203    1.103925    0.238414
      5          6           0       -4.799054   -0.142556    0.004405
      6          1           0       -2.179124   -2.053644   -0.463893
      7          1           0       -2.334187    2.169901    0.400504
      8          1           0       -4.829414    1.978877    0.432081
      9          1           0       -5.879912   -0.255049    0.013925
     10          6           0       -0.617337    0.070509   -0.006331
     11          6           0        0.594678    0.069921   -0.011540
     12          6           0        2.053776    0.027791   -0.011583
     13          6           0        2.717384   -1.182607    0.229859
     14          6           0        2.783452    1.205027   -0.219407
     15          6           0        4.113499   -1.216421    0.232979
     16          1           0        2.144715   -2.091073    0.399586
     17          6           0        4.179646    1.163532   -0.215290
     18          1           0        2.262329    2.142896   -0.397237
     19          6           0        4.845951   -0.045226    0.011821
     20          1           0        4.630234   -2.157453    0.410049
     21          1           0        4.747543    2.075499   -0.387364
     22          1           0        5.928963   -0.074607    0.015784
     23          7           0       -4.085264   -1.263401   -0.245332
 ---------------------------------------------------------------------
 Rotational constants (GHZ):           2.8592627           0.2452434           0.2271980
 Standard basis: 6-31+G(d) (6D, 7F)
 There are   284 symmetry adapted cartesian basis functions of A   symmetry.
 There are   284 symmetry adapted basis functions of A   symmetry.
   284 basis functions,   484 primitive gaussians,   284 cartesian basis functions
    47 alpha electrons       47 beta electrons
       nuclear repulsion energy       694.3312327152 Hartrees.
 NAtoms=   23 NActive=   23 NUniq=   23 SFac= 1.00D+00 NAtFMM=   60 NAOKFM=F Big=F
 Integral buffers will be    131072 words long.
 Raffenetti 2 integral format.
 Two-electron integral symmetry is turned on.
 Nuclear repulsion after empirical dispersion term =      694.3175004104 Hartrees.
 One-electron integrals computed using PRISM.
 NBasis=   284 RedAO= T EigKep=  1.04D-06  NBF=   284
 NBsUse=   282 1.00D-06 EigRej=  5.20D-08 NBFU=   282
 Initial guess from the checkpoint file:  "molecule_10.chk"
 B after Tr=     0.000000    0.000000    0.000000
         Rot=    0.999999   -0.000903    0.000399    0.000814 Ang=  -0.15 deg.
 ExpMin= 4.38D-02 ExpMax= 4.17D+03 ExpMxC= 6.27D+02 IAcc=3 IRadAn=         5 AccDes= 0.00D+00
 Harris functional with IExCor=  402 and IRadAn=       5 diagonalized for initial guess.
 HarFok:  IExCor=  402 AccDes= 0.00D+00 IRadAn=         5 IDoV= 1 UseB2=F ITyADJ=14
 ICtDFT=  3500011 ScaDFX=  1.000000  1.000000  1.000000  1.000000
 FoFCou: FMM=F IPFlag=           0 FMFlag=      100000 FMFlg1=           0
         NFxFlg=           0 DoJE=T BraDBF=F KetDBF=T FulRan=T
         wScrn=  0.000000 ICntrl=       500 IOpCl=  0 I1Cent=   200000004 NGrid=           0
         NMat0=    1 NMatS0=      1 NMatT0=    0 NMatD0=    1 NMtDS0=    0 NMtDT0=    0
 Petite list used in FoFCou.
 Requested convergence on RMS density matrix=1.00D-08 within 128 cycles.
 Requested convergence on MAX density matrix=1.00D-06.
 Requested convergence on             energy=1.00D-06.
 No special actions if energy rises.
 SCF Done:  E(RB3LYP) =  -555.530505005     A.U. after   15 cycles
            NFock= 15  Conv=0.66D-08     -V/T= 2.0101
 Calling FoFJK, ICntrl=      2127 FMM=F ISym2X=0 I1Cent= 0 IOpClX= 0 NMat=1 NMatS=1 NMatT=0.
 ***** Axes restored to original set *****
 -------------------------------------------------------------------
 Center     Atomic                   Forces (Hartrees/Bohr)
 Number     Number              X              Y              Z
 -------------------------------------------------------------------
      1        6          -0.018947607    0.002897166    0.000367391
      2        6           0.035926440   -0.005982654    0.006894002
      3        6          -0.006085705    0.004431777   -0.004541255
      4        6          -0.002962081    0.000516600   -0.003360711
      5        6           0.007206707   -0.002505796    0.006426091
      6        1           0.000439145    0.000187629    0.000236680
      7        1           0.000197168   -0.000287566    0.001228334
      8        1          -0.000145746   -0.001029974    0.001491197
      9        1          -0.000505440   -0.000151384    0.000707115
     10        6          -0.028171866    0.000485641   -0.002909241
     11        6           0.026802850   -0.000751945    0.002314971
     12        6          -0.029843753    0.003426864   -0.001615552
     13        6           0.005730293   -0.002158134    0.004294784
     14        6           0.006661208   -0.001750409   -0.004402388
     15        6          -0.000902174    0.000491664    0.000773741
     16        1          -0.000037373    0.000161520   -0.001267245
     17        6          -0.000933421    0.000562048   -0.000785963
     18        1          -0.000045022    0.000093164    0.001442254
     19        6          -0.001508781   -0.000253920   -0.000079124
     20        1          -0.000414324    0.000157088   -0.000701703
     21        1          -0.000416192    0.000127077    0.000647889
     22        1           0.002395573   -0.000073777    0.000077439
     23        7           0.005560101    0.001407321   -0.007238706
 -------------------------------------------------------------------
 Cartesian Forces:  Max     0.035926440 RMS     0.008165866

 GradGradGradGradGradGradGradGradGradGradGradGradGradGradGradGradGradGrad
 Berny optimization.
 Using GEDIIS/GDIIS optimizer.
 FormGI is forming the generalized inverse of G from B-inverse, IUseBI=4.
 Internal  Forces:  Max     0.020680861 RMS     0.003548210
 Search for a local minimum.
 Step number   2 out of a maximum of  120
 All quantities printed in internal units (Hartrees-Bohrs-Radians)
 Mixed Optimization -- RFO/linear search
 Update second derivatives using D2CorX and points    1    2
 DE= -2.32D-02 DEPred=-2.21D-02 R= 1.05D+00
 TightC=F SS=  1.41D+00  RLast= 3.05D-01 DXNew= 5.0454D-01 9.1615D-01
 Trust test= 1.05D+00 RLast= 3.05D-01 DXMaxT set to 5.05D-01
 ITU=  1  0
 Use linear search instead of GDIIS.
     Eigenvalues ---    0.00230   0.00230   0.00231   0.01493   0.01652
     Eigenvalues ---    0.01805   0.01942   0.01988   0.02052   0.02104
     Eigenvalues ---    0.02116   0.02117   0.02119   0.02122   0.02124
     Eigenvalues ---    0.02126   0.02128   0.02132   0.02137   0.02162
     Eigenvalues ---    0.03944   0.04727   0.15951   0.15997   0.15998
     Eigenvalues ---    0.15999   0.16000   0.16000   0.16000   0.16000
     Eigenvalues ---    0.16319   0.21764   0.21998   0.22004   0.22242
     Eigenvalues ---    0.23471   0.23950   0.24973   0.25086   0.26600
     Eigenvalues ---    0.28394   0.34294   0.34330   0.34384   0.34399
     Eigenvalues ---    0.34411   0.34456   0.34539   0.34595   0.37339
     Eigenvalues ---    0.41017   0.41437   0.41765   0.42371   0.45396
     Eigenvalues ---    0.45772   0.45931   0.45950   0.46050   0.46105
     Eigenvalues ---    0.46281   0.49958   1.04903
 RFO step:  Lambda=-3.82621042D-03 EMin= 2.29984273D-03
 Quartic linear search produced a step of  0.28268.
 Maximum step size (   0.505) exceeded in Quadratic search.
    -- Step size scaled by   0.974
 Iteration  1 RMS(Cart)=  0.19786009 RMS(Int)=  0.02885155
 Iteration  2 RMS(Cart)=  0.18725983 RMS(Int)=  0.01043236
 Iteration  3 RMS(Cart)=  0.08751104 RMS(Int)=  0.00138746
 Iteration  4 RMS(Cart)=  0.00306468 RMS(Int)=  0.00083200
 Iteration  5 RMS(Cart)=  0.00000111 RMS(Int)=  0.00083200
 Iteration  6 RMS(Cart)=  0.00000001 RMS(Int)=  0.00083200
 Variable       Old X    -DE/DX   Delta X   Delta X   Delta X     New X
                                 (Linear)    (Quad)   (Total)
    R1        2.65599   0.00338   0.00109   0.00871   0.00983   2.66582
    R2        2.05260   0.00035  -0.00464   0.00589   0.00125   2.05385
    R3        2.54705  -0.01059  -0.02647  -0.00522  -0.03168   2.51537
    R4        2.62993   0.00894   0.00040   0.02459   0.02503   2.65496
    R5        2.75819  -0.02068  -0.04404  -0.04321  -0.08729   2.67090
    R6        2.63031   0.00131  -0.00393   0.00828   0.00435   2.63466
    R7        2.05446  -0.00102  -0.00270  -0.00097  -0.00367   2.05079
    R8        2.64159  -0.00051  -0.00029  -0.00152  -0.00184   2.63975
    R9        2.05731  -0.00138  -0.00265  -0.00233  -0.00498   2.05233
   R10        2.05364   0.00057  -0.00362   0.00568   0.00205   2.05569
   R11        2.55509  -0.00894  -0.02463  -0.00294  -0.02760   2.52749
   R12        2.29040   0.00749   0.00687   0.00342   0.01026   2.30065
   R13        2.75845  -0.01936  -0.04359  -0.03780  -0.08132   2.67712
   R14        2.64813   0.00492   0.00179   0.01210   0.01390   2.66203
   R15        2.64663   0.00553   0.00235   0.01316   0.01551   2.66214
   R16        2.63906  -0.00085  -0.00078  -0.00160  -0.00238   2.63667
   R17        2.05457  -0.00106  -0.00310  -0.00069  -0.00379   2.05077
   R18        2.63960  -0.00093  -0.00078  -0.00178  -0.00257   2.63703
   R19        2.05519  -0.00125  -0.00358  -0.00092  -0.00450   2.05069
   R20        2.64366   0.00033   0.00101  -0.00056   0.00045   2.64411
   R21        2.05617  -0.00081  -0.00296   0.00002  -0.00293   2.05323
   R22        2.64335   0.00028   0.00099  -0.00065   0.00035   2.64369
   R23        2.05607  -0.00077  -0.00292   0.00014  -0.00277   2.05330
   R24        2.04736   0.00240   0.00750   0.00065   0.00815   2.05551
    A1        2.10299  -0.00215   0.00142  -0.01521  -0.01381   2.08918
    A2        2.14581   0.00369   0.01550   0.00132   0.01679   2.16260
    A3        2.03432  -0.00154  -0.01684   0.01395  -0.00291   2.03141
    A4        2.08166  -0.00667  -0.00443  -0.02411  -0.02870   2.05297
    A5        2.06840   0.00654   0.00984   0.01950   0.02934   2.09774
    A6        2.13301   0.00014  -0.00539   0.00489  -0.00053   2.13248
    A7        2.06047   0.00030  -0.00918   0.01814   0.00892   2.06939
    A8        2.10772  -0.00091   0.00370  -0.01352  -0.00986   2.09786
    A9        2.11481   0.00062   0.00558  -0.00441   0.00113   2.11593
   A10        2.08157  -0.00199  -0.00384  -0.00492  -0.00883   2.07274
   A11        2.09840   0.00213   0.00128   0.01202   0.01333   2.11173
   A12        2.10322  -0.00015   0.00256  -0.00710  -0.00450   2.09871
   A13        2.10493  -0.00034   0.00301  -0.00406  -0.00101   2.10392
   A14        2.15090   0.00203   0.01596  -0.01101   0.00486   2.15576
   A15        2.02736  -0.00169  -0.01897   0.01507  -0.00385   2.02351
   A16        2.09241   0.00132  -0.00018   0.00614   0.00574   2.09815
   A17        2.09039   0.00242  -0.00035   0.01172   0.01132   2.10170
   A18        2.10004  -0.00372   0.00064  -0.01733  -0.01671   2.08333
   A19        2.08830   0.00121  -0.00089   0.00842   0.00749   2.09579
   A20        2.09347  -0.00132  -0.00075  -0.00804  -0.00879   2.08468
   A21        2.10132   0.00012   0.00167  -0.00028   0.00139   2.10271
   A22        2.08904   0.00117  -0.00117   0.00870   0.00748   2.09652
   A23        2.09380  -0.00133  -0.00070  -0.00824  -0.00894   2.08486
   A24        2.10024   0.00016   0.00191  -0.00036   0.00155   2.10179
   A25        2.09762   0.00069   0.00119   0.00098   0.00215   2.09976
   A26        2.08986  -0.00038  -0.00118   0.00002  -0.00115   2.08872
   A27        2.09570  -0.00031  -0.00001  -0.00100  -0.00100   2.09470
   A28        2.09703   0.00063   0.00136   0.00058   0.00191   2.09894
   A29        2.09019  -0.00033  -0.00133   0.00046  -0.00085   2.08934
   A30        2.09597  -0.00030  -0.00003  -0.00104  -0.00106   2.09491
   A31        2.09407   0.00004  -0.00102  -0.00101  -0.00206   2.09201
   A32        2.09450  -0.00003   0.00049   0.00050   0.00100   2.09550
   A33        2.09462  -0.00002   0.00053   0.00051   0.00106   2.09567
   A34        2.04513   0.00268  -0.01372   0.02154   0.00772   2.05285
   A35        3.13589   0.00029  -0.00979   0.03385   0.02341   3.15930
   A36        3.17028  -0.00173   0.00811  -0.49282  -0.48507   2.68521
   A37        3.14040   0.00013   0.00230  -0.00130  -0.00254   3.13785
   A38        3.14271  -0.00021   0.00032  -0.04689  -0.04191   3.10080
    D1        3.11084   0.00053   0.00146   0.01972   0.02041   3.13124
    D2       -0.01465   0.00006   0.00002   0.00023   0.00103  -0.01361
    D3       -0.04350   0.00108   0.00595   0.02575   0.03097  -0.01254
    D4        3.11420   0.00061   0.00451   0.00626   0.01160   3.12580
    D5        0.01790  -0.00041  -0.00323  -0.01027  -0.01348   0.00442
    D6       -3.13597   0.00012   0.00137  -0.00466  -0.00332  -3.13929
    D7        0.04338  -0.00116  -0.00656  -0.02516  -0.03068   0.01270
    D8       -3.11916  -0.00052  -0.00234  -0.01330  -0.01471  -3.13387
    D9       -3.11494  -0.00062  -0.00487  -0.00479  -0.01062  -3.12557
   D10        0.00570   0.00003  -0.00065   0.00707   0.00535   0.01105
   D11       -0.40542   0.00054   0.00451   0.00116   0.00545  -0.39997
   D12        2.76243   0.00012   0.00015   0.01419   0.01774   2.78017
   D13        2.74952   0.00023   0.00065   0.04351   0.04046   2.78998
   D14       -0.36581  -0.00019  -0.00370   0.05654   0.05274  -0.31307
   D15       -0.02104   0.00053   0.00355   0.01171   0.01522  -0.00582
   D16        3.11964   0.00057   0.00366   0.01246   0.01607   3.13570
   D17       -3.14159  -0.00009  -0.00065  -0.00008  -0.00079   3.14080
   D18       -0.00092  -0.00006  -0.00054   0.00066   0.00006  -0.00086
   D19        3.13929  -0.00006  -0.00069   0.00028  -0.00047   3.13882
   D20       -0.00428  -0.00007  -0.00079   0.00260   0.00171  -0.00256
   D21       -0.00138  -0.00010  -0.00080  -0.00048  -0.00132  -0.00271
   D22        3.13824  -0.00011  -0.00090   0.00184   0.00086   3.13910
   D23        0.00617   0.00006   0.00077  -0.00350  -0.00280   0.00338
   D24       -3.13731   0.00004   0.00070  -0.00129  -0.00070  -3.13802
   D25       -3.13798  -0.00005   0.00048  -0.00554  -0.00604   3.13917
   D26        0.01850  -0.00044  -0.00194  -0.01369  -0.01678   0.00173
   D27       -0.02484   0.00069   0.00372   0.01609   0.02074  -0.00409
   D28        3.13165   0.00029   0.00129   0.00794   0.01000  -3.14153
   D29        3.13838   0.00003  -0.00051   0.00548   0.00604  -3.13876
   D30       -0.01863   0.00039   0.00174   0.01274   0.01543  -0.00320
   D31        0.02521  -0.00069  -0.00375  -0.01604  -0.02071   0.00450
   D32       -3.13180  -0.00032  -0.00150  -0.00878  -0.01132   3.14006
   D33        0.01304  -0.00032  -0.00198  -0.00791  -0.01038   0.00266
   D34       -3.13055  -0.00031  -0.00192  -0.00692  -0.00919  -3.13974
   D35        3.13967   0.00006   0.00043   0.00021   0.00038   3.14006
   D36       -0.00392   0.00008   0.00049   0.00120   0.00158  -0.00234
   D37       -0.01378   0.00032   0.00203   0.00781   0.01030  -0.00348
   D38        3.13004   0.00028   0.00182   0.00629   0.00838   3.13842
   D39       -3.13989  -0.00003  -0.00019   0.00059   0.00091  -3.13898
   D40        0.00393  -0.00007  -0.00040  -0.00092  -0.00101   0.00292
   D41       -0.00173   0.00004   0.00026   0.00014   0.00014  -0.00159
   D42        3.14060   0.00004   0.00027   0.00093   0.00129  -3.14130
   D43       -3.14132   0.00003   0.00020  -0.00085  -0.00105   3.14081
   D44        0.00101   0.00002   0.00021  -0.00006   0.00009   0.00110
   D45        0.00210  -0.00004  -0.00028  -0.00009  -0.00010   0.00200
   D46       -3.14023  -0.00004  -0.00029  -0.00087  -0.00125  -3.14148
   D47        3.14146   0.00000  -0.00007   0.00144   0.00183  -3.13990
   D48       -0.00087   0.00000  -0.00009   0.00065   0.00068  -0.00019
         Item               Value     Threshold  Converged?
 Maximum Force            0.020681     0.000450     NO 
 RMS     Force            0.003548     0.000300     NO 
 Maximum Displacement     1.539060     0.001800     NO 
 RMS     Displacement     0.464458     0.001200     NO 
 Predicted change in Energy=-3.894777D-03
 GradGradGradGradGradGradGradGradGradGradGradGradGradGradGradGradGradGrad

                          Input orientation:                          
 ---------------------------------------------------------------------
 Center     Atomic      Atomic             Coordinates (Angstroms)
 Number     Number       Type             X           Y           Z
 ---------------------------------------------------------------------
      1          6           0       -4.030975   -0.941976    1.105542
      2          6           0       -3.073911   -0.523935    0.157216
      3          6           0       -3.543745   -0.078092   -1.089519
      4          6           0       -4.919406   -0.058180   -1.315272
      5          6           0       -5.773838   -0.488196   -0.297258
      6          1           0       -3.704263   -1.302386    2.077453
      7          1           0       -2.843522    0.246304   -1.852529
      8          1           0       -5.325797    0.284082   -2.262480
      9          1           0       -6.852086   -0.482420   -0.441178
     10          6           0       -1.697039   -0.557681    0.474579
     11          6           0       -0.506309   -0.582313    0.727067
     12          6           0        0.867011   -0.536876    0.382262
     13          6           0        1.851366   -0.538404    1.389953
     14          6           0        1.261873   -0.487738   -0.969118
     15          6           0        3.203203   -0.496514    1.047092
     16          1           0        1.548587   -0.576285    2.431393
     17          6           0        2.616457   -0.446552   -1.301846
     18          1           0        0.504803   -0.487942   -1.746589
     19          6           0        3.589669   -0.449585   -0.296860
[...]
 01533,-0.00004419,-0.00015348,0.00001177,0.00005032,0.00003255,0.00001
 009,-0.00000668,-0.00001822,0.00000643,0.00000582,0.00001650,0.0000082
 8,0.00001009,0.00001204,0.00000475,0.00000185,-0.00001124,0.00000026,0
 .00182553,0.00210547,0.00060704,-0.00291335,0.00146498,-0.00111210,-0.
 01611821,-0.06913538,0.03310593,0.00259131,0.00684573,0.01025133,-0.01
 299835,0.14916050,-0.00073663,-0.00007202,0.00057074,0.00306714,0.0000
 6778,-0.00040364,-0.00096319,0.00003429,-0.00030361,0.00027243,0.00000
 943,-0.00022092,-0.00029778,0.00001212,-0.00001909,0.00003374,0.000005
 73,-0.00005206,-0.00003410,0.00000845,-0.00002886,-0.00005195,0.000005
 14,-0.00001374,-0.00000922,0.00000028,-0.00001212,-0.01079677,0.000721
 14,-0.00133723,0.01920420,-0.00101006,0.00600680,0.09806828,0.03265493
 ,-0.25714622,-0.01777379,0.01062214,-0.05155948,0.04354099,-0.09656325
 ,0.68619749,-0.00039715,-0.00004656,0.00028453,0.00128906,-0.00001856,
 0.00000934,-0.00028096,0.00006030,-0.00032695,0.00014393,0.00001091,-0
 .00007347,-0.00011731,0.00001113,-0.00005582,0.00000065,-0.00000110,0.
 00000556,0.00000807,-0.00000189,0.00000996,-0.00000005,0.00000019,-0.0
 0000109,0.00000242,-0.00000043,0.00000064,-0.00363291,-0.00010173,0.00
 072438,0.00762171,0.00039556,-0.00219425,-0.02948620,0.01257908,-0.070
 55974,-0.34420537,-0.00229560,0.02898316,-0.04957835,-0.00401688,0.025
 56611,0.68694887,0.00000092,-0.00010673,0.00003574,0.00010468,-0.00044
 075,-0.00014500,-0.00001999,0.00008813,-0.00000004,0.00001257,-0.00004
 800,0.00000294,-0.00003172,0.00003409,-0.00000075,0.00000039,-0.000011
 66,-0.00000657,-0.00000474,-0.00000715,-0.00000541,-0.00000013,0.00000
 019,-0.00000158,-0.00000103,-0.00003017,-0.00000607,-0.00006751,-0.001
 16312,-0.00021869,0.00081768,0.00883373,0.00240230,0.00503881,0.005396
 68,-0.00377364,0.00848336,-0.06350903,0.01130197,-0.00428192,-0.006289
 99,0.00136349,-0.01087828,0.15060382,0.00001167,0.00003843,-0.00032238
 ,-0.00070064,-0.00013868,0.00036994,0.00013571,-0.00000458,0.00010650,
 -0.00008303,0.00000306,-0.00006035,0.00019114,-0.00000304,0.00004088,-
 0.00000302,-0.00000647,0.00002464,0.00002643,-0.00000558,0.00002259,0.
 00000077,-0.00000160,0.00000906,0.00000411,-0.00000613,0.00000375,0.00
 052693,-0.00021438,0.00001694,-0.00462220,0.00242247,-0.00445926,-0.02
 712250,-0.00419193,0.03046494,-0.03311964,0.01190261,-0.12819751,0.027
 09382,0.00134864,-0.01537456,0.03181955,-0.09947880,0.70460839,-0.0000
 2027,0.00000899,-0.00004901,-0.00010468,-0.00000690,0.00005577,0.00004
 995,0.00000539,-0.00003540,0.00002629,-0.00000211,0.00001074,-0.000004
 13,-0.00000305,0.00001798,-0.00002491,-0.00000492,0.00003114,-0.000009
 31,0.00000038,-0.00000120,0.00001357,-0.00000108,0.00000559,0.00001063
 ,-0.00000059,0.00000338,0.00002622,-0.00002936,0.00016861,0.00110639,0
 .00012836,-0.00100135,0.01056815,0.00254651,-0.01507574,-0.13422742,-0
 .02054705,0.12382603,-0.00139261,0.00058109,-0.00293334,-0.01075040,-0
 .00475426,0.02818724,0.14003959,0.00001261,0.00002370,0.00001341,0.000
 00040,0.00020166,0.00003490,-0.00000210,-0.00003005,0.00000720,-0.0000
 0585,0.00000145,-0.00000398,0.00000589,0.00000239,-0.00000179,0.000003
 31,0.00002687,-0.00000385,0.00000072,0.00000872,0.00000072,-0.00000197
 ,0.00000255,-0.00000024,-0.00000139,0.00001070,0.00000120,0.00014339,-
 0.00004123,-0.00005552,-0.00024986,-0.00340968,-0.00064538,-0.00278235
 ,0.00262734,0.00390164,-0.02025471,-0.04280556,0.03777924,0.00079069,0
 .00578429,0.00152592,0.00056923,0.00361058,-0.00049929,0.02164098,0.03
 214102,-0.00007020,0.00001364,-0.00004853,0.00001509,0.00003529,0.0000
 0373,0.00000772,0.00000679,-0.00006835,0.00003233,-0.00000418,0.000023
 02,-0.00003363,-0.00000130,0.00001147,-0.00001629,-0.00000341,0.000046
 72,-0.00000317,0.00000074,0.00000477,0.00001073,-0.00000029,0.00000357
 ,0.00000803,0.00000115,0.00000383,-0.00083097,-0.00004617,0.00026082,0
 .00118250,-0.00066601,0.00024993,0.01562382,0.00360500,-0.01836309,0.1
 2214180,0.03779505,-0.26100098,-0.00414068,0.00153750,-0.00257117,-0.0
 0248340,-0.00020253,0.00483496,-0.13108820,-0.04209783,0.27488833,-0.0
 0026414,-0.00005195,0.00032157,0.00129133,-0.00000897,-0.00004994,-0.0
 0040559,0.00005297,-0.00028714,0.00022463,0.00002080,-0.00012356,-0.00
 010478,-0.00000533,0.00003477,0.00000922,0.00000162,-0.00001049,0.0000
 0190,-0.00000010,-0.00000155,0.00000070,0.00000078,-0.00000453,0.00000
 173,0.00000018,-0.00000037,-0.00363809,0.00015398,-0.00073275,0.007462
 12,-0.00042101,0.00248585,-0.03206872,-0.01162724,0.06906927,-0.048146
 31,0.00497278,-0.02631048,-0.34413428,0.00857366,-0.03361648,0.0641125
 8,0.00306634,-0.02081768,-0.00054125,0.00013110,-0.00076224,0.68862836
 ,0.00003560,0.00013808,0.00000158,-0.00014521,-0.00054148,-0.00014846,
 0.00000834,-0.00008830,0.00003271,-0.00002396,0.00015537,0.00000913,0.
 00003485,-0.00002764,-0.00000707,0.00000333,-0.00001088,-0.00000658,-0
 .00000160,-0.00003527,-0.00000830,-0.00000221,-0.00000041,0.00000129,0
 .00000065,0.00001230,0.00000170,0.00013641,-0.00073701,-0.00012903,-0.
 00084930,0.00807399,0.00219453,-0.00407018,0.00622028,-0.00542296,0.00
 522347,-0.00653939,0.00207547,-0.00221209,-0.06311727,0.01195474,-0.00
 467908,0.00570679,0.01096493,0.00012813,-0.00064300,-0.00014349,0.0006
 1586,0.14989301,-0.00018257,0.00000642,0.00011174,0.00073353,-0.000156
 24,0.00029048,-0.00002994,0.00003018,-0.00025494,0.00013421,0.00000667
 ,0.00011098,-0.00019668,-0.00000489,0.00001015,-0.00002037,-0.00000648
 ,0.00002643,0.00000704,-0.00000839,0.00001121,0.00001266,0.00000112,-0
 .00000735,-0.00000307,0.00000174,0.00000286,-0.00062358,-0.00012948,0.
 00002415,0.00494602,0.00217072,-0.00433592,0.02552762,-0.00500264,0.03
 263587,-0.02775283,0.00208942,-0.01661979,0.02852644,0.01135376,-0.128
 06612,0.02380693,0.01053325,-0.05445038,-0.00074520,-0.00014371,0.0002
 0281,-0.03452610,-0.09863160,0.70297149,0.00005154,-0.00001102,0.00005
 825,-0.00011718,0.00001037,-0.00004197,0.00002555,-0.00000579,0.000032
 77,0.00001644,0.00000319,-0.00002119,0.00000138,-0.00000182,0.00001090
 ,-0.00000916,0.00000014,0.00000021,-0.00003211,0.00000473,-0.00002332,
 0.00001194,-0.00000111,0.00000598,0.00001064,0.00000014,-0.00000166,0.
 00001124,0.00002821,-0.00016661,0.00111440,-0.00021353,0.00097282,0.01
 056071,-0.00281191,0.01579369,-0.00157575,-0.00044549,0.00299182,-0.12
 753127,0.02164962,-0.11965610,-0.00058290,-0.00012579,0.00072015,0.000
 59191,-0.00014513,0.00082642,-0.01005573,0.00509113,-0.02857691,0.1329
 1943,0.00000141,-0.00004431,0.00000807,0.00000612,0.00019727,0.0000350
 1,-0.00000490,0.00001022,0.00000734,0.00000191,-0.00003075,-0.00000820
 ,-0.00000399,0.00000776,0.00000314,-0.00000047,0.00000894,0.00000030,-
 0.00000399,0.00003780,0.00000069,0.00000086,0.00000405,0.00000098,0.00
 000101,-0.00000410,-0.00000122,-0.00014753,-0.00004397,-0.00005258,0.0
 0016219,-0.00340166,-0.00066938,0.00252139,0.00259684,0.00360249,-0.00
 065838,0.00581695,0.00144221,0.02136066,-0.04366076,0.04107742,-0.0001
 2906,-0.00063695,-0.00016375,0.00013561,0.00037460,0.00023342,-0.00023
 724,0.00348208,0.00016168,-0.02303730,0.03309972,-0.00001338,0.0000087
 8,-0.00009267,-0.00001754,0.00003473,0.00000402,0.00002741,0.00000738,
 -0.00003266,-0.00001376,-0.00000826,0.00001622,0.00002346,0.00000302,-
 0.00001043,0.00000373,0.00000027,0.00000722,0.00002686,0.00000020,0.00
 003524,-0.00000538,0.00000109,-0.00000176,-0.00000666,-0.00000117,0.00
 000283,0.00084579,-0.00006196,0.00025748,-0.00119157,-0.00064902,0.000
 28663,-0.01493510,0.00389942,-0.01838761,0.00421824,0.00143043,-0.0024
 1529,-0.11799144,0.04106191,-0.26633384,0.00073904,-0.00016393,0.00023
 649,-0.00079104,0.00024906,-0.00097443,0.00212349,-0.00013547,0.004169
 72,0.12671746,-0.04560476,0.28065911,0.00006599,0.00004936,-0.00028858
 ,-0.00028580,0.00000691,-0.00001482,0.00008924,-0.00004758,0.00026931,
 -0.00011143,-0.00003122,0.00018484,-0.00012374,0.00000464,-0.00002026,
 0.00001565,-0.00000013,0.00000026,0.00001598,0.00000040,-0.00000280,-0
 .00003298,0.00000368,-0.00001944,-0.00002336,0.00000131,-0.00000584,0.
 00214767,-0.00001259,-0.00002786,-0.00384600,0.00001879,-0.00001411,0.
 00326392,-0.00023223,0.00085001,-0.02898349,-0.00455937,0.02828351,-0.
 02622536,0.00547568,-0.02969183,-0.18281699,-0.01969266,0.12018865,-0.
 00548354,0.00024744,-0.00071280,-0.17808289,0.02145475,-0.11714278,-0.
 00554904,0.00002911,0.00054867,0.74110999,0.00000827,-0.00001101,0.000
 00039,0.00000661,0.00015352,0.00002446,-0.00001001,0.00000075,-0.00000
 325,0.00000843,-0.00001762,-0.00000905,0.00000178,-0.00000151,0.000008
 75,-0.00000022,0.00000576,0.00000107,-0.00000008,0.00000720,0.00000135
 ,0.00000040,-0.00000133,-0.00000010,0.00000028,0.00000374,0.00000083,-
 0.00002320,0.00032923,-0.00007765,0.00002461,-0.00208056,-0.00014461,-
 0.00024146,-0.00722571,0.01000707,-0.01243584,0.00810009,-0.00475640,0
 .01336724,0.00760785,-0.00378536,-0.00858400,-0.06816226,0.03568130,0.
 00042550,0.00713396,0.00097936,0.01034781,-0.06877021,0.03867907,-0.00
 015437,0.00713695,0.00095448,-0.00590545,0.14769434,-0.00005203,-0.000
 00190,0.00000297,-0.00001342,0.00002447,0.00001753,0.00005269,-0.00000
 116,0.00000375,-0.00004347,-0.00000685,0.00002278,-0.00000327,0.000008
 57,-0.00004913,0.00000075,0.00000105,-0.00000017,0.,0.00000133,-0.0000
 0023,-0.00000053,-0.00000028,0.00000029,-0.00000013,0.00000078,-0.0000
 0058,0.00003102,-0.00007820,0.00076514,-0.00004437,-0.00014440,-0.0012
 7179,0.00090364,0.01000666,-0.06319465,0.07366314,-0.00519519,0.032981
 85,-0.07515910,-0.00334563,0.03054458,0.05618609,0.03630044,-0.2743283
 3,-0.00173888,0.00098930,0.00170516,-0.05315017,0.03805995,-0.27828177
 ,0.00160549,0.00094424,0.00177124,0.00009712,-0.08901733,0.64505995,-0
 .00008516,0.00001450,-0.00007836,0.00015179,-0.00001895,0.00010201,-0.
 00004484,-0.00000350,0.00002180,-0.00001111,-0.00000106,0.00000651,-0.
 00001662,0.00000189,-0.00001010,0.00001206,0.00000040,-0.00000274,0.00
 001421,-0.00000164,0.00000887,-0.00001208,0.00000092,-0.00000453,-0.00
 000763,0.00000026,-0.00000097,-0.00042645,-0.00000094,0.00001428,-0.00
 032031,0.00023823,-0.00132253,-0.00508480,-0.00012586,0.00141017,-0.01
 079253,0.00517806,-0.02905998,-0.00076002,-0.00014091,0.00081811,-0.12
 581301,0.02109085,-0.11655053,0.00061502,-0.00010678,0.00034995,-0.001
 28479,-0.00046370,0.00312740,0.00010506,0.00000444,-0.00009466,0.01230
 983,-0.00276635,0.01543061,0.13025887,0.00000352,0.00000697,0.00000541
 ,-0.00001412,0.00002125,0.00000530,0.00000372,-0.00001358,-0.00000394,
 0.00000080,-0.00000424,-0.00000409,0.00000373,-0.00000080,0.00000155,-
 0.00000105,0.00000373,0.00000111,-0.00000124,0.00000359,-0.00000003,0.
 00000112,0.00000135,0.00000104,0.00000107,0.00000082,0.00000030,-0.000
 00019,-0.00025720,-0.00004228,0.00000553,0.00056131,0.00010107,-0.0000
 3451,0.00705111,0.00088931,-0.00016289,0.00305565,0.00018465,-0.000140
 12,-0.00062118,-0.00015717,0.02110073,-0.04401157,0.04093373,0.0000131
 4,-0.00399858,-0.00084472,-0.00064967,0.00662301,0.00161890,0.00000556
 ,-0.00110224,-0.00018968,0.00259465,0.00255605,0.00353781,-0.02275433,
 0.03370751,-0.00001509,0.00000480,-0.00001886,0.00007420,0.00000566,-0
 .00001417,-0.00001971,-0.00000354,0.00000726,-0.00000426,-0.00000398,0
 .00001825,-0.00002056,0.00000163,-0.00000884,0.00000559,0.00000103,-0.
 00000235,0.00000655,-0.00000001,0.00000326,-0.00000568,0.00000105,-0.0
 0000418,-0.00000572,0.00000035,-0.00000081,0.00001018,-0.00004265,-0.0
 0002176,0.00001825,0.00008866,0.00007022,0.00088340,0.00089418,0.00200
 284,0.00171229,-0.00011308,0.00364182,0.00081338,-0.00015716,0.0002101
 5,-0.11660779,0.04093433,-0.26604948,-0.00034087,-0.00083801,0.0007022
 0,0.00419928,0.00160856,-0.00260386,-0.00010109,-0.00018962,-0.0000369
 9,-0.01545703,0.00383659,-0.01804828,0.12526781,-0.04546487,0.28056365
 ,-0.00003945,0.00000520,-0.00002849,0.00016163,0.00001673,-0.00010541,
 -0.00008475,-0.00000847,0.00005370,-0.00001241,0.00000156,-0.00000785,
 -0.00001635,0.00000142,-0.00000746,0.00001284,0.00000168,-0.00001021,0
 .00001149,-0.00000091,0.00000480,-0.00001859,0.00000107,-0.00000504,-0
 .00000836,0.00000044,-0.00000196,-0.00042885,0.00000577,-0.00002216,-0
 .00035115,-0.00022046,0.00132001,-0.00501999,0.00039245,-0.00157874,-0
 .00071732,0.00014661,-0.00084094,-0.01152155,-0.00484358,0.02871983,-0
 .00108263,0.00060419,-0.00303646,0.00010139,-0.00002848,0.00009529,-0.
 13223255,-0.01999473,0.12052517,0.00061614,0.00001979,-0.00037924,0.01
 227901,0.00245160,-0.01463165,0.00046510,0.00013800,-0.00080979,0.1371
 5892,-0.00000263,-0.00001269,-0.00000325,0.00001079,-0.00000414,0.0000
 0146,-0.00000174,0.00000470,0.00000277,-0.00000113,0.00000660,0.000003
 87,-0.00000299,-0.00000206,-0.00000156,0.00000082,0.00000321,-0.000000
 10,0.00000103,0.00000383,0.00000091,-0.00000091,0.00000157,-0.00000045
 ,-0.00000091,0.00000150,0.00000015,0.00000534,-0.00021337,-0.00003207,
 0.00001293,0.00051967,0.00006109,0.00029584,0.00706288,0.00093013,0.00
 014728,-0.00062757,-0.00013435,0.00050281,0.00315569,-0.00048162,0.000
 79448,0.00659190,0.00170809,-0.00002943,-0.00110058,-0.00019250,-0.020
 00962,-0.04300167,0.03768553,-0.00010230,-0.00399620,-0.00083758,-0.00
 290992,0.00254870,0.00382570,-0.00015035,0.00016419,0.00021706,0.02141
 352,0.03264539,0.00001661,-0.00000369,0.00000705,-0.00007123,0.0000011
 4,-0.00000622,0.00001502,0.00000315,-0.00001383,0.00000759,0.00000372,
 -0.00001461,0.00001799,-0.00000179,0.00000705,-0.00000527,-0.00000015,
 0.00000435,-0.00000635,0.00000101,-0.00000148,0.00000638,-0.00000056,0
 .00000437,0.00000577,0.00000007,0.00000075,-0.00001908,-0.00003208,-0.
 00003308,-0.00002521,0.00007404,0.00010498,-0.00102211,0.00092476,0.00
 195632,-0.00084476,-0.00013436,0.00017173,-0.00208269,-0.00018352,0.00
 425053,-0.00413297,0.00171872,-0.00277610,0.00010073,-0.00019254,-0.00
 003053,0.12060998,0.03768452,-0.26049336,0.00032426,-0.00084441,0.0007
 0442,0.01625881,0.00352699,-0.01804214,0.00085153,0.00020100,-0.001005
 10,-0.12959194,-0.04197430,0.27462224,-0.00001855,0.00000181,-0.000009
 12,0.00010273,0.00000052,-0.00000596,-0.00002467,-0.00000120,0.0000082
 2,-0.00000854,-0.00000216,0.00001286,-0.00001068,0.00000205,-0.0000112
 5,0.00000859,0.00000129,-0.00000792,0.00001043,-0.00000113,0.00000599,
 -0.00000785,0.00000097,-0.00000508,-0.00000765,0.00000021,-0.00000073,
 -0.00011404,0.00000010,0.00000657,0.00011588,-0.00000902,-0.00000893,0
 .00073144,-0.00001952,0.00002110,0.00060897,-0.00049054,0.00318191,0.0
 0075110,0.00058426,-0.00301793,-0.01162808,0.00061480,-0.00270983,-0.0
 0065915,0.00004624,-0.00022256,-0.01092065,-0.00026774,0.00233435,-0.0
 0062831,-0.00002765,0.00020184,-0.33955871,0.00348506,-0.00318055,0.00
 076501,-0.00011706,0.00041560,0.00076534,0.00003009,-0.00043224,0.3597
 5748,0.00000153,0.00000417,0.00000348,-0.00000103,0.00005002,0.0000103
 2,0.00000004,-0.00000114,0.00000156,-0.00000031,-0.00000092,-0.0000012
 3,0.00000036,0.00000042,0.00000034,0.00000025,-0.00000046,-0.00000080,
 -0.00000067,0.00000158,-0.00000041,0.00000003,0.00000136,0.00000030,0.
 00000008,0.00000034,-0.00000010,0.00000149,0.00001447,-0.00000239,-0.0
 0000989,-0.00094584,-0.00019994,-0.00001979,-0.00091970,0.00005542,-0.
 00031001,0.00666414,0.00194369,0.00040315,0.00665246,0.00202445,-0.004
 74374,0.00340332,-0.00029916,-0.00023676,0.00012979,0.00000310,0.00508
 956,0.00327779,-0.00024508,0.00025507,0.00013098,0.00000648,0.00348818
 ,-0.03699584,0.00409648,0.00001290,-0.00374617,-0.00077977,-0.00010051
 ,-0.00374710,-0.00077101,-0.00382934,0.02602940,-0.00000749,0.00000347
 ,-0.00001476,0.00000307,0.00001026,-0.00000733,0.00000109,0.00000163,-
 0.00001030,0.00000218,-0.00000113,0.00000526,-0.00000142,0.00000024,-0
 .00000082,-0.00000198,-0.00000085,0.00000443,0.00000333,-0.00000039,0.
 00000354,0.00000033,0.00000024,0.,-0.00000002,-0.00000011,0.00000096,-
 0.00000146,-0.00000241,0.00002740,-0.00000395,-0.00019985,0.00017181,0
 .00002262,0.00005539,-0.00123085,0.00214235,0.00195371,-0.00437736,-0.
 00197407,0.00201431,-0.00448809,0.02816322,-0.00059774,0.00518025,0.00
 140795,-0.00001268,0.00012257,-0.02853240,0.00005348,0.00456656,-0.001
 42711,0.00002225,0.00008601,-0.00319839,0.00409662,-0.05967622,-0.0003
 3319,-0.00077252,0.00058812,0.00032016,-0.00077828,0.00058436,0.003410
 28,-0.00584416,0.05845957,-0.35389818,0.00351752,-0.00422870,-0.045106
 17,-0.01463012,0.08787988,-0.05972626,0.00579465,-0.03051212,0.0702936
 0,0.00741186,-0.04535485,-0.17899319,0.01422426,-0.07568800,-0.0281020
 9,0.00068447,-0.00262608,-0.00015851,0.00004501,-0.00046151,-0.0000321
 0,-0.00046383,0.00309656,-0.01783369,0.00639643,-0.03608356,0.00921365
 ,-0.00064089,0.00364250,-0.00505415,0.00019632,-0.00089342,0.00194954,
 0.00001295,-0.00020055,-0.00064331,0.00006616,-0.00035003,-0.00048164,
 -0.00004481,0.00028825,0.00024499,0.00002344,-0.00014063,0.00006859,-0
 .00001338,0.00007047,0.00014720,-0.00002271,0.00011865,0.00004508,0.00
 000600,-0.00003621,-0.00017395,-0.00000660,0.00004700,-0.00003761,0.00
 000364,-0.00001893,-0.00003792,-0.00000300,0.00001918,-0.00003011,-0.0
 0000059,0.00000490,0.60834622,-0.00161889,-0.06616714,0.01039974,-0.00
 398468,0.02126835,-0.00386957,0.00637831,-0.00824383,0.00123389,-0.003
 39784,0.01916793,0.01627858,0.01947057,-0.07247497,0.03697169,0.005222
 82,-0.00386463,-0.00225973,0.00002957,-0.00375720,-0.00069434,-0.00055
 421,0.00730034,0.00214688,0.00177741,-0.00394267,-0.00010693,-0.000724
 58,0.00793575,0.00229894,0.00007047,-0.00068889,-0.00013049,-0.0000760
 1,-0.00031720,-0.00011828,-0.00002017,-0.00009635,0.00004111,0.0000128
 7,0.00006580,-0.00001799,-0.00002469,0.00014816,0.00001012,0.00000143,
 -0.00005094,-0.00000859,-0.00001629,-0.00007016,-0.00000997,0.00000741
 ,0.00001677,-0.00000542,0.00001625,-0.00001210,-0.00000583,-0.00000808
 ,-0.00000095,-0.00000123,-0.00000288,-0.00000445,-0.00000069,-0.000002
 07,-0.00000306,-0.00000148,-0.02255676,0.10379146,0.02534018,0.0101169
 7,-0.12403430,0.02656874,-0.00328347,0.03798884,-0.03387193,0.00126575
 ,-0.01338459,0.01689332,0.01567832,-0.06926751,-0.10590347,0.03726691,
 -0.27468102,-0.02875618,-0.00200828,0.00894750,-0.00037528,-0.00069478
 ,0.00014687,0.00361715,0.00214107,-0.00486386,-0.00946740,-0.00036403,
 -0.00132714,0.00412404,0.00229537,-0.00511055,-0.00016545,-0.00013776,
 0.00008844,0.00031156,-0.00012312,0.00035447,0.00014664,0.00003622,-0.
 00030691,-0.00004421,-0.00001486,0.00015047,0.00013696,0.00000756,0.00
 009902,-0.00001494,-0.00000778,-0.00000681,0.00008166,-0.00000963,-0.0
 0002098,-0.00004426,-0.00000531,0.00004907,-0.00008465,-0.00000460,0.0
 0001804,0.00004854,-0.00000188,0.00000690,0.00001838,-0.00000068,-0.00
 000170,0.00001340,-0.00000156,0.00000491,0.10142720,-0.06215041,0.4451
 5085\\0.00002571,-0.00000159,-0.00001399,-0.00001415,0.00000182,0.0000
 2856,-0.00000062,0.00000172,-0.00001271,0.00000410,0.00000602,-0.00000
 462,0.00000343,-0.00002272,0.00000914,-0.00000344,-0.00000269,0.000001
 04,0.00000039,-0.00000277,0.00000126,-0.00000076,0.00000202,0.00000091
 ,-0.00000222,0.00000518,-0.00000081,-0.00000572,-0.00000548,-0.0000052
 3,0.00000262,0.00001025,-0.00000180,0.00001376,-0.00000553,0.00000224,
 -0.00000595,0.00000111,-0.00000282,-0.00000944,0.00000076,0.00000199,0
 .00000179,-0.00000002,-0.00000022,0.00000065,-0.00000028,-0.00000012,0
 .00000464,-0.00000103,0.00000105,0.00000169,-0.00000043,0.00000049,-0.
 00000225,0.00000032,-0.00000104,0.00000083,0.,0.00000017,0.00000049,0.
 00000017,-0.00000002,-0.00000105,0.00000007,0.00000043,-0.00001454,0.0
 0001312,-0.00000389\\\@


 Discoveries are often made by not following instructions,
 by going off the main road, by trying the untried.
 -- Frank Tyger
 Job cpu time:       0 days  1 hours 28 minutes 58.8 seconds.
 Elapsed time:       0 days  0 hours  2 minutes 58.0 seconds.
 File lengths (MBytes):  RWF=    193 Int=      0 D2E=      0 Chk=      8 Scr=      1
 Normal termination of Gaussian 16 at Sun Sep 17 16:19:09 2023.
