 Entering Gaussian System, Link 0=/home/ubuntu/g16/g16
 Input=/home/ubuntu/products/molecule_51.gjf
 Output=/home/ubuntu/products/molecule_51.log
 Initial command:
 /home/ubuntu/g16/l1.exe "/home/ubuntu/Scratch/Gau-44650.inp" -scrdir="/home/ubuntu/Scratch/"
 Entering Link 1 = /home/ubuntu/g16/l1.exe PID=     44652.
  
 Copyright (c) 1988-2017, Gaussian, Inc.  All Rights Reserved.
  
 This is part of the Gaussian(R) 16 program.  It is based on
 the Gaussian(R) 09 system (copyright 2009, Gaussian, Inc.),
 the Gaussian(R) 03 system (copyright 2003, Gaussian, Inc.),
 the Gaussian(R) 98 system (copyright 1998, Gaussian, Inc.),
 the Gaussian(R) 94 system (copyright 1995, Gaussian, Inc.),
 the Gaussian 92(TM) system (copyright 1992, Gaussian, Inc.),
 the Gaussian 90(TM) system (copyright 1990, Gaussian, Inc.),
 the Gaussian 88(TM) system (copyright 1988, Gaussian, Inc.),
 the Gaussian 86(TM) system (copyright 1986, Carnegie Mellon
 University), and the Gaussian 82(TM) system (copyright 1983,
 Carnegie Mellon University). Gaussian is a federally registered
 trademark of Gaussian, Inc.
  
 This software contains proprietary and confidential information,
 including trade secrets, belonging to Gaussian, Inc.
  
 This software is provided under written license and may be
 used, copied, transmitted, or stored only in accord with that
 written license.
  
 The following legend is applicable only to US Government
 contracts under FAR:
  
                    RESTRICTED RIGHTS LEGEND
  
 Use, reproduction and disclosure by the US Government is
 subject to restrictions as set forth in subparagraphs (a)
 and (c) of the Commercial Computer Software - Restricted
 Rights clause in FAR 52.227-19.
  
 Gaussian, Inc.
 340 Quinnipiac St., Bldg. 40, Wallingford CT 06492
  
  
 ---------------------------------------------------------------
 Warning -- This program may not be used in any manner that
 competes with the business of Gaussian, Inc. or will provide
 assistance to any competitor of Gaussian, Inc.  The licensee
 of this program is prohibited from giving any competitor of
 Gaussian, Inc. access to this program.  By using this program,
 the user acknowledges that Gaussian, Inc. is engaged in the
 business of creating and licensing software in the field of
 computational chemistry and represents and warrants to the
 licensee that it is not a competitor of Gaussian, Inc. and that
 it will not use this program in any manner prohibited above.
 ---------------------------------------------------------------
  

 Cite this work as:
 Gaussian 16, Revision B.01,
 M. J. Frisch, G. W. Trucks, H. B. Schlegel, G. E. Scuseria, 
 M. A. Robb, J. R. Cheeseman, G. Scalmani, V. Barone, 
 G. A. Petersson, H. Nakatsuji, X. Li, M. Caricato, A. V. Marenich, 
 J. Bloino, B. G. Janesko, R. Gomperts, B. Mennucci, H. P. Hratchian, 
 J. V. Ortiz, A. F. Izmaylov, J. L. Sonnenberg, D. Williams-Young, 
 F. Ding, F. Lipparini, F. Egidi, J. Goings, B. Peng, A. Petrone, 
 T. Henderson, D. Ranasinghe, V. G. Zakrzewski, J. Gao, N. Rega, 
 G. Zheng, W. Liang, M. Hada, M. Ehara, K. Toyota, R. Fukuda, 
 J. Hasegawa, M. Ishida, T. Nakajima, Y. Honda, O. Kitao, H. Nakai, 
 T. Vreven, K. Throssell, J. A. Montgomery, Jr., J. E. Peralta, 
 F. Ogliaro, M. J. Bearpark, J. J. Heyd, E. N. Brothers, K. N. Kudin, 
 V. N. Staroverov, T. A. Keith, R. Kobayashi, J. Normand, 
 K. Raghavachari, A. P. Rendell, J. C. Burant, S. S. Iyengar, 
 J. Tomasi, M. Cossi, J. M. Millam, M. Klene, C. Adamo, R. Cammi, 
 J. W. Ochterski, R. L. Martin, K. Morokuma, O. Farkas, 
 J. B. Foresman, and D. J. Fox, Gaussian, Inc., Wallingford CT, 2016.
 
 ******************************************
 Gaussian 16:  EM64L-G16RevB.01 20-Dec-2017
                18-Sep-2023 
 ******************************************
 %nprocshared=30
 Will use up to   30 processors via shared memory.
 %mem=30GB
 %chk=molecule_51.chk
 ----------------------------------------------------------------------
 # opt freq b3lyp/6-31+g(d) geom=connectivity empiricaldispersion=gd3 v
 olume
 ----------------------------------------------------------------------
 1/18=20,19=15,26=3,38=1,57=2/1,3;
 2/9=110,12=2,17=6,18=5,40=1/2;
 3/5=1,6=6,7=11,11=2,25=1,30=1,71=1,74=-5,124=31/1,2,3;
 4//1;
 5/5=2,38=5/2;
 6/7=2,8=2,9=2,10=2,28=1,44=1/1,4;
 7//1,2,3,16;
 1/18=20,19=15,26=3/3(2);
 2/9=110/2;
 99//99;
 2/9=110/2;
 3/5=1,6=6,7=11,11=2,25=1,30=1,71=1,74=-5,124=31/1,2,3;
 4/5=5,16=3,69=1/1;
 5/5=2,38=5/2;
 7//1,2,3,16;
 1/18=20,19=15,26=3/3(-5);
 2/9=110/2;
 6/7=2,8=2,9=2,10=2,19=2,28=1,44=1/1,4;
 99/9=1/99;
 -------------------
 Title Card Required
 -------------------
 Symbolic Z-matrix:
 Charge =  0 Multiplicity = 1
 C                     5.46604  -0.99812   0.01628 
 C                     3.31781   0.13568  -0.00057 
 C                     3.97691   1.37538  -0.05227 
 C                     5.367     1.42719  -0.05903 
 C                     6.11343   0.24529  -0.03105 
 H                     6.02246  -1.92592   0.03498 
 H                     3.40134   2.29385  -0.0899 
 H                     5.88373   2.38102  -0.085 
 C                     1.88912   0.07655   0.00597 
 C                     0.67404   0.02794   0.01046 
 C                    -0.67256  -0.02906   0.01543 
 C                    -1.88778  -0.08075   0.02028 
 C                    -3.31695  -0.13993   0.02374 
 C                    -4.06972   1.04193   0.09832 
 C                    -5.46479   0.99479   0.08641 
 H                    -3.56404   1.99925   0.16592 
 C                    -5.3703   -1.4276   -0.05086 
 C                    -6.11474  -0.24537   0.00659 
 H                    -6.02035   1.92196   0.13796 
 H                    -5.88828  -2.37962  -0.1013 
 C                     4.07094  -1.04629   0.03972 
 H                     3.56648  -2.0052    0.09164 
 C                    -3.9802   -1.37718  -0.0448 
 H                    -3.40724  -2.29671  -0.09228 
 O                    -7.48472  -0.41983  -0.01626 
 C                    -8.31824   0.73837  -0.0582 
 H                    -9.33769   0.35681  -0.122 
 H                    -8.21467   1.34028   0.85167 
 H                    -8.10483   1.35286  -0.94025 
 O                     7.48323   0.42336  -0.05635 
 C                     8.32113  -0.72786   0.0545 
 H                     9.34165  -0.34458   0.03102 
 H                     8.15109  -1.25455   1.00051 
 H                     8.1754   -1.41344  -0.7876 
 

 GradGradGradGradGradGradGradGradGradGradGradGradGradGradGradGradGradGrad
 Berny optimization.
 Initialization pass.
                           ----------------------------
                           !    Initial Parameters    !
                           ! (Angstroms and Degrees)  !
 --------------------------                            --------------------------
 ! Name  Definition              Value          Derivative Info.                !
 --------------------------------------------------------------------------------
 ! R1    R(1,5)                  1.4026         estimate D2E/DX2                !
 ! R2    R(1,6)                  1.082          estimate D2E/DX2                !
 ! R3    R(1,21)                 1.3961         estimate D2E/DX2                !
 ! R4    R(2,3)                  1.405          estimate D2E/DX2                !
 ! R5    R(2,9)                  1.4299         estimate D2E/DX2                !
 ! R6    R(2,21)                 1.4021         estimate D2E/DX2                !
 ! R7    R(3,4)                  1.3911         estimate D2E/DX2                !
 ! R8    R(3,7)                  1.0846         estimate D2E/DX2                !
 ! R9    R(4,5)                  1.3981         estimate D2E/DX2                !
 ! R10   R(4,8)                  1.0851         estimate D2E/DX2                !
 ! R11   R(5,30)                 1.3816         estimate D2E/DX2                !
 ! R12   R(9,10)                 1.2161         estimate D2E/DX2                !
 ! R13   R(10,11)                1.3478         estimate D2E/DX2                !
 ! R14   R(11,12)                1.2163         estimate D2E/DX2                !
 ! R15   R(12,13)                1.4304         estimate D2E/DX2                !
 ! R16   R(13,14)                1.4032         estimate D2E/DX2                !
 ! R17   R(13,23)                1.4055         estimate D2E/DX2                !
 ! R18   R(14,15)                1.3959         estimate D2E/DX2                !
 ! R19   R(14,16)                1.0848         estimate D2E/DX2                !
 ! R20   R(15,18)                1.4024         estimate D2E/DX2                !
 ! R21   R(15,19)                1.0821         estimate D2E/DX2                !
 ! R22   R(17,18)                1.3983         estimate D2E/DX2                !
 ! R23   R(17,20)                1.085          estimate D2E/DX2                !
 ! R24   R(17,23)                1.391          estimate D2E/DX2                !
 ! R25   R(18,25)                1.3812         estimate D2E/DX2                !
 ! R26   R(21,22)                1.0848         estimate D2E/DX2                !
 ! R27   R(23,24)                1.0845         estimate D2E/DX2                !
 ! R28   R(25,26)                1.4276         estimate D2E/DX2                !
 ! R29   R(26,27)                1.0904         estimate D2E/DX2                !
 ! R30   R(26,28)                1.0959         estimate D2E/DX2                !
 ! R31   R(26,29)                1.096          estimate D2E/DX2                !
 ! R32   R(30,31)                1.4282         estimate D2E/DX2                !
 ! R33   R(31,32)                1.0904         estimate D2E/DX2                !
 ! R34   R(31,33)                1.096          estimate D2E/DX2                !
 ! R35   R(31,34)                1.0956         estimate D2E/DX2                !
 ! A1    A(5,1,6)              121.5585         estimate D2E/DX2                !
 ! A2    A(5,1,21)             119.496          estimate D2E/DX2                !
 ! A3    A(6,1,21)             118.9455         estimate D2E/DX2                !
 ! A4    A(3,2,9)              120.3554         estimate D2E/DX2                !
 ! A5    A(3,2,21)             119.5322         estimate D2E/DX2                !
 ! A6    A(9,2,21)             120.112          estimate D2E/DX2                !
 ! A7    A(2,3,4)              120.1209         estimate D2E/DX2                !
 ! A8    A(2,3,7)              119.971          estimate D2E/DX2                !
 ! A9    A(4,3,7)              119.9079         estimate D2E/DX2                !
 ! A10   A(3,4,5)              120.1267         estimate D2E/DX2                !
 ! A11   A(3,4,8)              120.5787         estimate D2E/DX2                !
 ! A12   A(5,4,8)              119.2946         estimate D2E/DX2                !
 ! A13   A(1,5,4)              120.2406         estimate D2E/DX2                !
 ! A14   A(1,5,30)             124.9241         estimate D2E/DX2                !
 ! A15   A(4,5,30)             114.8352         estimate D2E/DX2                !
 ! A16   A(12,13,14)           120.085          estimate D2E/DX2                !
 ! A17   A(12,13,23)           120.5173         estimate D2E/DX2                !
 ! A18   A(14,13,23)           119.3976         estimate D2E/DX2                !
 ! A19   A(13,14,15)           120.4802         estimate D2E/DX2                !
 ! A20   A(13,14,16)           119.7706         estimate D2E/DX2                !
 ! A21   A(15,14,16)           119.7492         estimate D2E/DX2                !
 ! A22   A(14,15,18)           119.5721         estimate D2E/DX2                !
 ! A23   A(14,15,19)           118.9311         estimate D2E/DX2                !
 ! A24   A(18,15,19)           121.4968         estimate D2E/DX2                !
 ! A25   A(18,17,20)           119.315          estimate D2E/DX2                !
 ! A26   A(18,17,23)           120.0813         estimate D2E/DX2                !
 ! A27   A(20,17,23)           120.6037         estimate D2E/DX2                !
 ! A28   A(15,18,17)           120.2158         estimate D2E/DX2                !
 ! A29   A(15,18,25)           124.9113         estimate D2E/DX2                !
 ! A30   A(17,18,25)           114.8723         estimate D2E/DX2                !
 ! A31   A(1,21,2)             120.4759         estimate D2E/DX2                !
 ! A32   A(1,21,22)            119.7369         estimate D2E/DX2                !
 ! A33   A(2,21,22)            119.7871         estimate D2E/DX2                !
 ! A34   A(13,23,17)           120.2453         estimate D2E/DX2                !
 ! A35   A(13,23,24)           119.9491         estimate D2E/DX2                !
 ! A36   A(17,23,24)           119.8056         estimate D2E/DX2                !
 ! A37   A(18,25,26)           118.4983         estimate D2E/DX2                !
 ! A38   A(25,26,27)           105.2899         estimate D2E/DX2                !
 ! A39   A(25,26,28)           111.4715         estimate D2E/DX2                !
 ! A40   A(25,26,29)           111.3977         estimate D2E/DX2                !
 ! A41   A(27,26,28)           109.2172         estimate D2E/DX2                !
 ! A42   A(27,26,29)           109.3399         estimate D2E/DX2                !
 ! A43   A(28,26,29)           109.9904         estimate D2E/DX2                !
 ! A44   A(5,30,31)            118.4499         estimate D2E/DX2                !
 ! A45   A(30,31,32)           105.313          estimate D2E/DX2                !
 ! A46   A(30,31,33)           111.3052         estimate D2E/DX2                !
 ! A47   A(30,31,34)           111.5129         estimate D2E/DX2                !
 ! A48   A(32,31,33)           109.4329         estimate D2E/DX2                !
 ! A49   A(32,31,34)           109.1411         estimate D2E/DX2                !
 ! A50   A(33,31,34)           110.0031         estimate D2E/DX2                !
 ! A51   L(2,9,10,22,-1)       180.0809         estimate D2E/DX2                !
 ! A52   L(9,10,11,22,-1)      179.8673         estimate D2E/DX2                !
 ! A53   L(10,11,12,16,-1)     180.0108         estimate D2E/DX2                !
 ! A54   L(11,12,13,16,-1)     179.9414         estimate D2E/DX2                !
 ! A55   L(2,9,10,22,-2)       180.0581         estimate D2E/DX2                !
 ! A56   L(9,10,11,22,-2)      180.0105         estimate D2E/DX2                !
 ! A57   L(10,11,12,16,-2)     180.0305         estimate D2E/DX2                !
 ! A58   L(11,12,13,16,-2)     179.8829         estimate D2E/DX2                !
 ! D1    D(6,1,5,4)            179.774          estimate D2E/DX2                !
 ! D2    D(6,1,5,30)            -0.0956         estimate D2E/DX2                !
 ! D3    D(21,1,5,4)            -0.212          estimate D2E/DX2                !
 ! D4    D(21,1,5,30)          179.9185         estimate D2E/DX2                !
 ! D5    D(5,1,21,2)             0.7998         estimate D2E/DX2                !
 ! D6    D(5,1,21,22)         -179.0678         estimate D2E/DX2                !
 ! D7    D(6,1,21,2)          -179.1866         estimate D2E/DX2                !
 ! D8    D(6,1,21,22)            0.9458         estimate D2E/DX2                !
 ! D9    D(9,2,3,4)           -179.9697         estimate D2E/DX2                !
 ! D10   D(9,2,3,7)             -0.148          estimate D2E/DX2                !
 ! D11   D(21,2,3,4)            -0.2036         estimate D2E/DX2                !
 ! D12   D(21,2,3,7)           179.6181         estimate D2E/DX2                !
 ! D13   D(3,2,13,14)           -5.7208         estimate D2E/DX2                !
 ! D14   D(3,2,13,23)          174.3093         estimate D2E/DX2                !
 ! D15   D(21,2,13,14)         174.5755         estimate D2E/DX2                !
 ! D16   D(21,2,13,23)          -5.3943         estimate D2E/DX2                !
 ! D17   D(3,2,21,1)            -0.5948         estimate D2E/DX2                !
 ! D18   D(3,2,21,22)          179.2727         estimate D2E/DX2                !
 ! D19   D(9,2,21,1)           179.1719         estimate D2E/DX2                !
 ! D20   D(9,2,21,22)           -0.9606         estimate D2E/DX2                !
 ! D21   D(2,3,4,5)              0.7887         estimate D2E/DX2                !
 ! D22   D(2,3,4,8)           -179.1513         estimate D2E/DX2                !
 ! D23   D(7,3,4,5)           -179.0331         estimate D2E/DX2                !
 ! D24   D(7,3,4,8)              1.0269         estimate D2E/DX2                !
 ! D25   D(3,4,5,1)             -0.5819         estimate D2E/DX2                !
 ! D26   D(3,4,5,30)           179.3002         estimate D2E/DX2                !
 ! D27   D(8,4,5,1)            179.3589         estimate D2E/DX2                !
 ! D28   D(8,4,5,30)            -0.759          estimate D2E/DX2                !
 ! D29   D(1,5,30,31)           -4.0107         estimate D2E/DX2                !
 ! D30   D(4,5,30,31)          176.1135         estimate D2E/DX2                !
 ! D31   D(12,13,14,15)        179.243          estimate D2E/DX2                !
 ! D32   D(12,13,14,16)         -0.7697         estimate D2E/DX2                !
 ! D33   D(23,13,14,15)         -0.8694         estimate D2E/DX2                !
 ! D34   D(23,13,14,16)        179.1179         estimate D2E/DX2                !
 ! D35   D(12,13,23,17)       -179.5318         estimate D2E/DX2                !
 ! D36   D(12,13,23,24)          0.5235         estimate D2E/DX2                !
 ! D37   D(14,13,23,17)          0.5812         estimate D2E/DX2                !
 ! D38   D(14,13,23,24)       -179.3635         estimate D2E/DX2                !
 ! D39   D(13,14,15,18)          0.3497         estimate D2E/DX2                !
 ! D40   D(13,14,15,19)       -179.5671         estimate D2E/DX2                !
 ! D41   D(16,14,15,18)       -179.6376         estimate D2E/DX2                !
 ! D42   D(16,14,15,19)          0.4457         estimate D2E/DX2                !
 ! D43   D(14,15,18,17)          0.464          estimate D2E/DX2                !
 ! D44   D(14,15,18,25)       -179.8311         estimate D2E/DX2                !
 ! D45   D(19,15,18,17)       -179.6214         estimate D2E/DX2                !
 ! D46   D(19,15,18,25)          0.0835         estimate D2E/DX2                !
 ! D47   D(20,17,18,15)        179.3292         estimate D2E/DX2                !
 ! D48   D(20,17,18,25)         -0.404          estimate D2E/DX2                !
 ! D49   D(23,17,18,15)         -0.7517         estimate D2E/DX2                !
 ! D50   D(23,17,18,25)        179.515          estimate D2E/DX2                !
 ! D51   D(18,17,23,13)          0.2243         estimate D2E/DX2                !
 ! D52   D(18,17,23,24)       -179.8309         estimate D2E/DX2                !
 ! D53   D(20,17,23,13)       -179.8577         estimate D2E/DX2                !
 ! D54   D(20,17,23,24)          0.0871         estimate D2E/DX2                !
 ! D55   D(15,18,25,26)          4.7184         estimate D2E/DX2                !
 ! D56   D(17,18,25,26)       -175.5627         estimate D2E/DX2                !
 ! D57   D(18,25,26,27)        177.1472         estimate D2E/DX2                !
 ! D58   D(18,25,26,28)        -64.5452         estimate D2E/DX2                !
 ! D59   D(18,25,26,29)         58.7315         estimate D2E/DX2                !
 ! D60   D(5,30,31,32)        -178.8886         estimate D2E/DX2                !
 ! D61   D(5,30,31,33)         -60.3966         estimate D2E/DX2                !
 ! D62   D(5,30,31,34)          62.8593         estimate D2E/DX2                !
 --------------------------------------------------------------------------------
 Trust Radius=3.00D-01 FncErr=1.00D-07 GrdErr=1.00D-06 EigMax=2.50D+02 EigMin=1.00D-04
 Number of steps in this run=    165 maximum allowed number of steps=    204.
 GradGradGradGradGradGradGradGradGradGradGradGradGradGradGradGradGradGrad

                          Input orientation:                          
 ---------------------------------------------------------------------
 Center     Atomic      Atomic             Coordinates (Angstroms)
 Number     Number       Type             X           Y           Z
 ---------------------------------------------------------------------
      1          6           0        5.466043   -0.998115    0.016282
      2          6           0        3.317814    0.135678   -0.000567
      3          6           0        3.976909    1.375381   -0.052269
      4          6           0        5.366995    1.427188   -0.059034
      5          6           0        6.113426    0.245291   -0.031048
      6          1           0        6.022459   -1.925923    0.034981
      7          1           0        3.401343    2.293849   -0.089904
      8          1           0        5.883733    2.381018   -0.084997
      9          6           0        1.889122    0.076554    0.005968
     10          6           0        0.674038    0.027944    0.010462
     11          6           0       -0.672564   -0.029055    0.015425
     12          6           0       -1.887782   -0.080748    0.020283
     13          6           0       -3.316946   -0.139927    0.023743
     14          6           0       -4.069716    1.041926    0.098316
     15          6           0       -5.464785    0.994785    0.086409
     16          1           0       -3.564042    1.999251    0.165923
     17          6           0       -5.370298   -1.427596   -0.050858
     18          6           0       -6.114741   -0.245373    0.006593
     19          1           0       -6.020350    1.921955    0.137959
     20          1           0       -5.888284   -2.379617   -0.101295
     21          6           0        4.070943   -1.046293    0.039720
     22          1           0        3.566478   -2.005200    0.091635
     23          6           0       -3.980200   -1.377183   -0.044801
     24          1           0       -3.407244   -2.296711   -0.092282
     25          8           0       -7.484722   -0.419830   -0.016259
     26          6           0       -8.318243    0.738369   -0.058203
     27          1           0       -9.337685    0.356806   -0.121995
     28          1           0       -8.214666    1.340277    0.851673
     29          1           0       -8.104835    1.352856   -0.940249
     30          8           0        7.483230    0.423355   -0.056352
     31          6           0        8.321130   -0.727859    0.054496
     32          1           0        9.341652   -0.344577    0.031021
     33          1           0        8.151095   -1.254554    1.000513
     34          1           0        8.175405   -1.413443   -0.787604
 ---------------------------------------------------------------------
                    Distance matrix (angstroms):
                    1          2          3          4          5
     1  C    0.000000
     2  C    2.429127   0.000000
     3  C    2.802803   1.404971   0.000000
     4  C    2.428493   2.422924   1.391068   0.000000
     5  C    1.402642   2.797926   2.417076   1.398150   0.000000
     6  H    1.082024   3.400966   3.884649   3.417869   2.174122
     7  H    3.887324   2.161634   1.084563   2.148451   3.399331
     8  H    3.406356   3.410663   2.156004   1.085119   2.148720
     9  C    3.734887   1.429930   2.459512   3.731493   4.227835
    10  C    4.900627   2.645993   3.567699   4.897607   5.443887
    11  C    6.214626   3.993809   4.857430   6.213088   6.791692
    12  C    7.410825   5.210135   6.043193   7.410260   8.008013
    13  C    8.824819   6.640526   7.449984   8.824598   9.438396
    14  C    9.751882   7.443565   8.054939   9.445883  10.215074
    15  C   11.111236   8.824946   9.450379  10.841383  11.603039
    16  H    9.515725   7.131659   7.569859   8.952166   9.837101
    17  C   10.845056   8.827777   9.758430  11.110325  11.604950
    18  C   11.605226   9.440251  10.221140  11.603104  12.238065
    19  H   11.852377   9.508485  10.013996  11.399791  12.250236
    20  H   11.438667   9.544061  10.555778  11.881703  12.285606
    21  C    1.396128   1.402099   2.425244   2.794210   2.417630
    22  H    2.151336   2.157242   3.408444   3.878898   3.400986
    23  C    9.454043   7.453302   8.419753   9.758830  10.223204
    24  H    8.968465   7.152016   8.246913   9.531831   9.854374
    25  O   12.963710  10.816821  11.601425  12.983834  13.614413
    26  C   13.893432  11.651797  12.311644  13.702562  14.440115
    27  H   14.866247  12.658013  13.353680  14.743721  15.451781
    28  H   13.904235  11.626498  12.225091  13.612438  14.396958
    29  H   13.806185  11.525686  12.114353  13.500825  14.290287
    30  O    2.468784   4.175711   3.633271   2.342251   1.381561
    31  C    2.868104   5.077588   4.827761   3.658419   2.414186
    32  H    3.930353   6.043035   5.634329   4.352604   3.282261
    33  H    2.871232   5.127915   5.044674   4.008191   2.732352
    34  H    2.856462   5.159011   5.093685   4.060439   2.752369
                    6          7          8          9         10
     6  H    0.000000
     7  H    4.969137   0.000000
     8  H    4.310845   2.483925   0.000000
     9  C    4.592954   2.685591   4.612564   0.000000
    10  C    5.694190   3.547195   5.717254   1.216064   0.000000
    11  C    6.958579   4.690810   6.985955   2.563879   1.347817
    12  C    8.122610   5.798767   8.152780   3.780205   2.564144
    13  C    9.508648   7.146439   9.540413   5.210597   3.994535
    14  C   10.519702   7.577563  10.044796   6.037236   4.851709
    15  C   11.852846   8.962526  11.434154   7.411448   6.214958
    16  H   10.359785   6.976304   9.458814   5.784405   4.676702
    17  C   11.403973   9.528503  11.881074   7.413830   6.217423
    18  C   12.253027   9.849508  12.282903   8.010335   6.794280
    19  H   12.643023   9.431783  11.915017   8.122972   6.958331
    20  H   11.920160  10.398970  12.698200   8.156735   6.990916
    21  C    2.140604   3.409064   3.879204   2.454031   3.562837
    22  H    2.457913   4.306048   4.963847   2.674801   3.536449
    23  C   10.018017   8.244130  10.555703   6.046889   4.862033
    24  H    9.437848   8.211584  10.402089   5.804613   4.698025
    25  O   13.590985  11.219442  13.658882   9.387004   8.171082
    26  C   14.586393  11.822403  14.296683  10.228999   9.020562
    27  H   15.529634  12.885496  15.355467  11.231033  10.017998
    28  H   14.629791  11.693055  14.167757  10.217570   9.024351
    29  H   14.535539  11.575867  14.052352  10.119459   8.929046
    30  O    2.767905   4.490175   2.528172   5.605194   6.820990
    31  C    2.592224   5.775455   3.952908   6.482296   7.684477
    32  H    3.676644   6.501014   4.404490   7.464461   8.675640
    33  H    2.431888   6.028293   4.420028   6.478678   7.650581
    34  H    2.361029   6.084609   4.488135   6.509009   7.680170
                   11         12         13         14         15
    11  C    0.000000
    12  C    1.216327   0.000000
    13  C    2.646718   1.430393   0.000000
    14  C    3.562936   2.455060   1.403211   0.000000
    15  C    4.900885   3.735786   2.429961   1.395916   0.000000
    16  H    3.535155   2.675342   2.158090   1.084780   2.151302
    17  C    4.901940   3.734565   2.424853   2.795050   2.428106
    18  C    5.446482   4.230186   2.799834   2.418197   1.402428
    19  H    5.693880   4.593777   3.401881   2.140326   1.082106
    20  H    5.722106   4.615582   3.412276   3.879947   3.406049
    21  C    4.851414   6.036477   7.443296   8.404429   9.751835
    22  H    4.677653   5.784251   7.131997   8.221708   9.516494
    23  C    3.572329   2.462355   1.405492   2.424992   2.801328
    24  H    3.554200   2.689224   2.161789   3.409061   3.885788
    25  O    6.823431   5.607321   4.177356   3.716467   2.468162
    26  C    7.684450   6.482896   5.078493   4.262233   2.868603
    27  H    8.674797   7.464097   6.042953   5.316900   3.930624
    28  H    7.710881   6.537582   5.183062   4.223407   2.875211
    29  H    7.619819   6.452100   5.107011   4.178215   2.855189
    30  O    8.168648   9.384874  10.815152  11.570528  12.961404
    31  C    9.020886  10.229458  11.652958  12.516674  13.893163
    32  H   10.019198  11.232538  12.660254  13.483016  14.866995
    33  H    8.962656  10.154690  11.563409  12.467398  13.830665
    34  H    8.991548  10.183147  11.591128  12.520251  13.878697
                   16         17         18         19         20
    16  H    0.000000
    17  C    3.879798   0.000000
    18  C    3.401439   1.398266   0.000000
    19  H    2.457683   3.417267   2.173356   0.000000
    20  H    4.964674   1.084987   2.148935   4.310244   0.000000
    21  C    8.220965   9.449372  10.217178  10.519237  10.049072
    22  H    8.178353   8.956556   9.840235  10.360114   9.464139
    23  C    3.408504   1.391025   2.416589   3.883288   2.156119
    24  H    4.306570   2.147244   3.398280   4.967744   2.482441
    25  O    4.610518   2.342558   1.381233   2.766248   2.529152
    26  C    4.923666   3.658119   2.413994   2.592232   3.953276
    27  H    6.009615   4.350783   3.281238   3.677224   4.403045
    28  H    4.746873   4.070149   2.763717   2.379655   4.489745
    29  H    4.718076   3.999953   2.722374   2.414847   4.421346
    30  O   11.161320  12.986117  13.614550  13.587871  13.662213
    31  C   12.194542  13.709702  14.444011  14.584462  14.305944
    32  H   13.117495  14.751987  15.456731  15.528674  15.365866
    33  H   12.187216  13.563311  14.335983  14.548679  14.127417
    34  H   12.262557  13.565731  14.359784  14.611674  14.113535
                   21         22         23         24         25
    21  C    0.000000
    22  H    1.084750   0.000000
    23  C    8.058383   7.573993   0.000000
    24  H    7.583156   6.982235   1.084465   0.000000
    25  O   11.572769  11.164858   3.633045   4.489353   0.000000
    26  C   12.517449  12.198205   4.826423   5.773282   1.427565
    27  H   13.482809  13.120295   5.631636   6.497089   2.011918
    28  H   12.541578  12.270502   5.110671   6.101642   2.093824
    29  H   12.448527  12.188555   5.026684   6.008806   2.093015
    30  O    3.716557   4.610935  11.603978  11.225082  14.991736
    31  C    4.262125   4.923382  12.318856  11.833748  15.809012
    32  H    5.317222   6.009491  13.362027  12.898077  16.826609
    33  H    4.196920   4.733734  12.176865  11.656564  15.691060
    34  H    4.203079   4.729212  12.178333  11.637070  15.710564
                   26         27         28         29         30
    26  C    0.000000
    27  H    1.090377   0.000000
    28  H    1.095854   1.782250   0.000000
    29  H    1.095966   1.783697   1.795329   0.000000
    30  O   15.804613  16.821175  15.750847  15.640749   0.000000
    31  C   16.704229  17.692976  16.683681  16.587080   1.428166
    32  H   17.693293  18.693127  17.656061  17.555756   2.012731
    33  H   16.623228  17.598691  16.570861  16.577708   2.092459
    34  H   16.649407  17.614912  16.700438  16.514295   2.094675
                   31         32         33         34
    31  C    0.000000
    32  H    1.090377   0.000000
    33  H    1.096024   1.784769   0.000000
    34  H    1.095625   1.781222   1.795327   0.000000
 Stoichiometry    C18H14O2
 Framework group  C1[X(C18H14O2)]
 Deg. of freedom    96
 Full point group                 C1      NOp   1
 Largest Abelian subgroup         C1      NOp   1
 Largest concise Abelian subgroup C1      NOp   1
                         Standard orientation:                         
 ---------------------------------------------------------------------
 Center     Atomic      Atomic             Coordinates (Angstroms)
 Number     Number       Type             X           Y           Z
 ---------------------------------------------------------------------
      1          6           0       -5.466043    0.998115    0.016282
      2          6           0       -3.317814   -0.135678   -0.000567
      3          6           0       -3.976909   -1.375381   -0.052269
      4          6           0       -5.366995   -1.427188   -0.059034
      5          6           0       -6.113426   -0.245291   -0.031048
      6          1           0       -6.022459    1.925923    0.034981
      7          1           0       -3.401343   -2.293849   -0.089904
      8          1           0       -5.883733   -2.381018   -0.084997
      9          6           0       -1.889122   -0.076554    0.005968
     10          6           0       -0.674038   -0.027944    0.010462
     11          6           0        0.672564    0.029055    0.015425
     12          6           0        1.887782    0.080748    0.020283
     13          6           0        3.316946    0.139927    0.023743
     14          6           0        4.069716   -1.041926    0.098316
     15          6           0        5.464785   -0.994785    0.086409
     16          1           0        3.564042   -1.999251    0.165923
     17          6           0        5.370298    1.427596   -0.050858
     18          6           0        6.114741    0.245373    0.006593
     19          1           0        6.020350   -1.921955    0.137959
     20          1           0        5.888284    2.379617   -0.101295
     21          6           0       -4.070943    1.046293    0.039720
     22          1           0       -3.566478    2.005200    0.091635
     23          6           0        3.980200    1.377183   -0.044801
     24          1           0        3.407244    2.296711   -0.092282
     25          8           0        7.484722    0.419830   -0.016259
     26          6           0        8.318243   -0.738369   -0.058203
     27          1           0        9.337685   -0.356806   -0.121995
     28          1           0        8.214666   -1.340277    0.851673
     29          1           0        8.104835   -1.352856   -0.940249
     30          8           0       -7.483230   -0.423355   -0.056352
     31          6           0       -8.321130    0.727859    0.054496
     32          1           0       -9.341652    0.344577    0.031021
     33          1           0       -8.151095    1.254554    1.000513
     34          1           0       -8.175405    1.413443   -0.787604
 ---------------------------------------------------------------------
 Rotational constants (GHZ):           2.3648104           0.0670508           0.0652674
 Standard basis: 6-31+G(d) (6D, 7F)
 There are   408 symmetry adapted cartesian basis functions of A   symmetry.
 There are   408 symmetry adapted basis functions of A   symmetry.
   408 basis functions,   696 primitive gaussians,   408 cartesian basis functions
    69 alpha electrons       69 beta electrons
       nuclear repulsion energy      1189.8940429952 Hartrees.
 NAtoms=   34 NActive=   34 NUniq=   34 SFac= 1.00D+00 NAtFMM=   60 NAOKFM=F Big=F
 Integral buffers will be    131072 words long.
 Raffenetti 2 integral format.
 Two-electron integral symmetry is turned on.
 Nuclear repulsion after empirical dispersion term =     1189.8702179018 Hartrees.
 One-electron integrals computed using PRISM.
 NBasis=   408 RedAO= T EigKep=  1.15D-06  NBF=   408
 NBsUse=   402 1.00D-06 EigRej=  5.50D-07 NBFU=   402
 ExpMin= 4.38D-02 ExpMax= 5.48D+03 ExpMxC= 8.25D+02 IAcc=3 IRadAn=         5 AccDes= 0.00D+00
 Harris functional with IExCor=  402 and IRadAn=       5 diagonalized for initial guess.
 HarFok:  IExCor=  402 AccDes= 0.00D+00 IRadAn=         5 IDoV= 1 UseB2=F ITyADJ=14
 ICtDFT=  3500011 ScaDFX=  1.000000  1.000000  1.000000  1.000000
 FoFCou: FMM=F IPFlag=           0 FMFlag=      100000 FMFlg1=           0
         NFxFlg=           0 DoJE=T BraDBF=F KetDBF=T FulRan=T
         wScrn=  0.000000 ICntrl=       500 IOpCl=  0 I1Cent=   200000004 NGrid=           0
         NMat0=    1 NMatS0=      1 NMatT0=    0 NMatD0=    1 NMtDS0=    0 NMtDT0=    0
 Petite list used in FoFCou.
 Requested convergence on RMS density matrix=1.00D-08 within 128 cycles.
 Requested convergence on MAX density matrix=1.00D-06.
 Requested convergence on             energy=1.00D-06.
 No special actions if energy rises.
 SCF Done:  E(RB3LYP) =  -844.721769107     A.U. after   15 cycles
            NFock= 15  Conv=0.33D-08     -V/T= 2.0096

 **********************************************************************

            Population analysis using the SCF Density.

 **********************************************************************

 Orbital symmetries:
       Occupied  (A) (A) (A) (A) (A) (A) (A) (A) (A) (A) (A) (A)
                 (A) (A) (A) (A) (A) (A) (A) (A) (A) (A) (A) (A)
                 (A) (A) (A) (A) (A) (A) (A) (A) (A) (A) (A) (A)
                 (A) (A) (A) (A) (A) (A) (A) (A) (A) (A) (A) (A)
                 (A) (A) (A) (A) (A) (A) (A) (A) (A) (A) (A) (A)
                 (A) (A) (A) (A) (A) (A) (A) (A) (A)
       Virtual   (A) (A) (A) (A) (A) (A) (A) (A) (A) (A) (A) (A)
                 (A) (A) (A) (A) (A) (A) (A) (A) (A) (A) (A) (A)
                 (A) (A) (A) (A) (A) (A) (A) (A) (A) (A) (A) (A)
                 (A) (A) (A) (A) (A) (A) (A) (A) (A) (A) (A) (A)
                 (A) (A) (A) (A) (A) (A) (A) (A) (A) (A) (A) (A)
                 (A) (A) (A) (A) (A) (A) (A) (A) (A) (A) (A) (A)
                 (A) (A) (A) (A) (A) (A) (A) (A) (A) (A) (A) (A)
                 (A) (A) (A) (A) (A) (A) (A) (A) (A) (A) (A) (A)
                 (A) (A) (A) (A) (A) (A) (A) (A) (A) (A) (A) (A)
                 (A) (A) (A) (A) (A) (A) (A) (A) (A) (A) (A) (A)
                 (A) (A) (A) (A) (A) (A) (A) (A) (A) (A) (A) (A)
                 (A) (A) (A) (A) (A) (A) (A) (A) (A) (A) (A) (A)
                 (A) (A) (A) (A) (A) (A) (A) (A) (A) (A) (A) (A)
                 (A) (A) (A) (A) (A) (A) (A) (A) (A) (A) (A) (A)
                 (A) (A) (A) (A) (A) (A) (A) (A) (A) (A) (A) (A)
                 (A) (A) (A) (A) (A) (A) (A) (A) (A) (A) (A) (A)
                 (A) (A) (A) (A) (A) (A) (A) (A) (A) (A) (A) (A)
                 (A) (A) (A) (A) (A) (A) (A) (A) (A) (A) (A) (A)
                 (A) (A) (A) (A) (A) (A) (A) (A) (A) (A) (A) (A)
                 (A) (A) (A) (A) (A) (A) (A) (A) (A) (A) (A) (A)
                 (A) (A) (A) (A) (A) (A) (A) (A) (A) (A) (A) (A)
                 (A) (A) (A) (A) (A) (A) (A) (A) (A) (A) (A) (A)
                 (A) (A) (A) (A) (A) (A) (A) (A) (A) (A) (A) (A)
                 (A) (A) (A) (A) (A) (A) (A) (A) (A) (A) (A) (A)
                 (A) (A) (A) (A) (A) (A) (A) (A) (A) (A) (A) (A)
                 (A) (A) (A) (A) (A) (A) (A) (A) (A) (A) (A) (A)
                 (A) (A) (A) (A) (A) (A) (A) (A) (A) (A) (A) (A)
                 (A) (A) (A) (A) (A) (A) (A) (A) (A)
 The electronic state is 1-A.
 Alpha  occ. eigenvalues --  -19.19531 -19.19530 -10.26463 -10.26461 -10.25113
 Alpha  occ. eigenvalues --  -10.25112 -10.22051 -10.22031 -10.20962 -10.20956
 Alpha  occ. eigenvalues --  -10.20759 -10.20759 -10.20565 -10.20556 -10.20261
 Alpha  occ. eigenvalues --  -10.20221 -10.20035 -10.20002 -10.20001 -10.19998
 Alpha  occ. eigenvalues --   -1.07235  -1.07212  -0.87222  -0.87184  -0.80533
 Alpha  occ. eigenvalues --   -0.79001  -0.76983  -0.76473  -0.76236  -0.73435
 Alpha  occ. eigenvalues --   -0.71428  -0.69935  -0.63685  -0.62729  -0.62478
 Alpha  occ. eigenvalues --   -0.61249  -0.58652  -0.55196  -0.54718  -0.52182
 Alpha  occ. eigenvalues --   -0.51305  -0.49562  -0.49532  -0.47869  -0.47865
 Alpha  occ. eigenvalues --   -0.46109  -0.46081  -0.43974  -0.43961  -0.42945
 Alpha  occ. eigenvalues --   -0.42895  -0.40045  -0.39887  -0.39761  -0.39546
 Alpha  occ. eigenvalues --   -0.37707  -0.37578  -0.36321  -0.34835  -0.34459
 Alpha  occ. eigenvalues --   -0.34213  -0.33703  -0.32252  -0.27851  -0.26761
 Alpha  occ. eigenvalues --   -0.26673  -0.24484  -0.23963  -0.20097
 Alpha virt. eigenvalues --   -0.05677  -0.02250  -0.02199  -0.01502  -0.00813
 Alpha virt. eigenvalues --   -0.00020   0.00091   0.01366   0.02062   0.02263
 Alpha virt. eigenvalues --    0.02267   0.03330   0.03668   0.03795   0.03913
 Alpha virt. eigenvalues --    0.04338   0.04957   0.05461   0.05514   0.05771
 Alpha virt. eigenvalues --    0.06750   0.06976   0.07589   0.07838   0.08331
 Alpha virt. eigenvalues --    0.08922   0.09023   0.09302   0.09418   0.10246
 Alpha virt. eigenvalues --    0.10427   0.10593   0.11004   0.12410   0.12680
 Alpha virt. eigenvalues --    0.13090   0.13664   0.13738   0.13866   0.13957
 Alpha virt. eigenvalues --    0.14239   0.14775   0.14874   0.15085   0.15190
 Alpha virt. eigenvalues --    0.15260   0.15435   0.16109   0.16522   0.16616
 Alpha virt. eigenvalues --    0.17446   0.18026   0.18170   0.18436   0.18915
 Alpha virt. eigenvalues --    0.19272   0.19305   0.19736   0.20283   0.21208
 Alpha virt. eigenvalues --    0.21348   0.21408   0.21860   0.22184   0.22189
 Alpha virt. eigenvalues --    0.22771   0.22933   0.23444   0.23518   0.23708
 Alpha virt. eigenvalues --    0.24298   0.24539   0.25202   0.25381   0.25673
 Alpha virt. eigenvalues --    0.26107   0.26146   0.26625   0.26743   0.27244
 Alpha virt. eigenvalues --    0.27508   0.27712   0.28624   0.29317   0.29401
 Alpha virt. eigenvalues --    0.29816   0.29952   0.30099   0.31233   0.31877
 Alpha virt. eigenvalues --    0.32183   0.32462   0.32856   0.33030   0.34318
 Alpha virt. eigenvalues --    0.35224   0.35248   0.35787   0.36522   0.36697
 Alpha virt. eigenvalues --    0.37573   0.38017   0.38558   0.38893   0.39277
 Alpha virt. eigenvalues --    0.43029   0.43313   0.43921   0.45589   0.45830
 Alpha virt. eigenvalues --    0.47038   0.50821   0.53538   0.56848   0.57179
 Alpha virt. eigenvalues --    0.60428   0.60980   0.64276   0.64461   0.65840
 Alpha virt. eigenvalues --    0.67037   0.67139   0.67606   0.68038   0.68080
 Alpha virt. eigenvalues --    0.68472   0.68846   0.68962   0.69034   0.71517
 Alpha virt. eigenvalues --    0.71720   0.72325   0.72530   0.72775   0.73323
 Alpha virt. eigenvalues --    0.74463   0.74680   0.75419   0.75500   0.76441
 Alpha virt. eigenvalues --    0.76810   0.77609   0.77810   0.78836   0.79575
 Alpha virt. eigenvalues --    0.79857   0.81916   0.82333   0.82593   0.83542
 Alpha virt. eigenvalues --    0.85201   0.88133   0.88665   0.88859   0.89464
 Alpha virt. eigenvalues --    0.90774   0.90863   0.91859   0.92537   0.92856
 Alpha virt. eigenvalues --    0.93412   0.94426   0.95785   0.96736   0.97558
 Alpha virt. eigenvalues --    0.98305   0.99465   0.99759   1.00274   1.03075
 Alpha virt. eigenvalues --    1.03109   1.05227   1.05919   1.09261   1.10175
 Alpha virt. eigenvalues --    1.11049   1.11103   1.13665   1.14590   1.15016
 Alpha virt. eigenvalues --    1.16401   1.18364   1.19279   1.20260   1.20704
 Alpha virt. eigenvalues --    1.20937   1.21655   1.22313   1.22758   1.23190
 Alpha virt. eigenvalues --    1.23359   1.24005   1.25333   1.25778   1.27098
 Alpha virt. eigenvalues --    1.28958   1.29254   1.29956   1.31106   1.31313
 Alpha virt. eigenvalues --    1.33723   1.36766   1.37008   1.38354   1.40058
 Alpha virt. eigenvalues --    1.41835   1.42515   1.43160   1.43754   1.44972
 Alpha virt. eigenvalues --    1.45428   1.47717   1.48955   1.49091   1.49589
 Alpha virt. eigenvalues --    1.49782   1.49895   1.50879   1.52635   1.53514
 Alpha virt. eigenvalues --    1.53712   1.55257   1.59483   1.62080   1.62492
 Alpha virt. eigenvalues --    1.64590   1.67235   1.71138   1.72053   1.79990
 Alpha virt. eigenvalues --    1.81439   1.84055   1.84483   1.85760   1.86692
 Alpha virt. eigenvalues --    1.87651   1.88074   1.88274   1.88492   1.91239
 Alpha virt. eigenvalues --    1.91797   1.94545   1.94617   1.95907   1.98199
 Alpha virt. eigenvalues --    1.98984   1.99157   1.99561   2.01744   2.02240
 Alpha virt. eigenvalues --    2.02646   2.05732   2.07526   2.08522   2.09434
 Alpha virt. eigenvalues --    2.10343   2.11225   2.12928   2.13677   2.14938
 Alpha virt. eigenvalues --    2.15435   2.15986   2.18712   2.19407   2.20334
 Alpha virt. eigenvalues --    2.20668   2.25224   2.26288   2.28579   2.28701
 Alpha virt. eigenvalues --    2.29489   2.29878   2.30262   2.34718   2.35418
 Alpha virt. eigenvalues --    2.35827   2.37549   2.38530   2.41140   2.50139
 Alpha virt. eigenvalues --    2.51505   2.51999   2.52436   2.57373   2.58157
 Alpha virt. eigenvalues --    2.59552   2.64398   2.64527   2.64985   2.65271
 Alpha virt. eigenvalues --    2.66080   2.68258   2.73376   2.75120   2.78061
 Alpha virt. eigenvalues --    2.78263   2.80436   2.80775   2.84126   2.84576
 Alpha virt. eigenvalues --    2.88383   3.00462   3.02670   3.03773   3.05506
 Alpha virt. eigenvalues --    3.13325   3.18418   3.20247   3.32986   3.35681
 Alpha virt. eigenvalues --    3.41694   3.50689   3.75117   4.20245   4.24487
 Alpha virt. eigenvalues --    4.24585   4.25093   4.25630   4.27031   4.27836
 Alpha virt. eigenvalues --    4.33829   4.35156   4.38824   4.40001   4.42220
 Alpha virt. eigenvalues --    4.43998   4.50089   4.50268   4.64059   4.69033
 Alpha virt. eigenvalues --    4.83371   4.90585   5.61380
          Condensed to atoms (all electrons):
               1          2          3          4          5          6
     1  C   11.629269  -0.635535   2.624037  -3.010649  -0.196062   0.245709
     2  C   -0.635535   9.720066  -2.635007   1.515523  -0.474371   0.040055
     3  C    2.624037  -2.635007  15.594217  -2.923939  -1.452523   0.004322
     4  C   -3.010649   1.515523  -2.923939  11.103341  -0.269091   0.013167
     5  C   -0.196062  -0.474371  -1.452523  -0.269091   8.070916  -0.011270
     6  H    0.245709   0.040055   0.004322   0.013167  -0.011270   0.538056
     7  H   -0.015325  -0.056239   0.391350  -0.095924   0.016694   0.000016
     8  H    0.026048   0.028403  -0.107466   0.356191   0.005894  -0.000142
     9  C    0.722156  -1.809147   2.135036  -0.927656  -0.320034  -0.010022
    10  C   -0.209167   0.251331   0.003395   0.118751  -0.207037   0.002489
    11  C    0.305530   0.110502   0.261442  -0.101326   0.048107  -0.000294
    12  C   -0.023831  -0.462377   0.118321  -0.024394  -0.024179   0.000021
    13  C    0.028987   0.079426   0.035358  -0.006599   0.002374  -0.000001
    14  C    0.004560  -0.083899   0.018210  -0.003901  -0.000638   0.000000
    15  C   -0.000986   0.029301  -0.005750   0.000915   0.000146   0.000000
    16  H    0.000000  -0.000069   0.000019  -0.000001   0.000000   0.000000
    17  C    0.000988  -0.007156   0.002618  -0.000411  -0.000044   0.000000
    18  C    0.000137   0.002407   0.000435  -0.000037   0.000023   0.000000
    19  H    0.000000  -0.000001   0.000000   0.000000   0.000000   0.000000
    20  H    0.000000   0.000000   0.000000   0.000000   0.000000   0.000000
    21  C   -6.380341   0.291996  -7.651234   0.926266   0.712116   0.018396
    22  H   -0.070352  -0.031726   0.014104  -0.010582   0.002207  -0.004572
    23  C   -0.005767   0.037688  -0.012024   0.002543   0.000468   0.000000
    24  H   -0.000002  -0.000057  -0.000008   0.000000   0.000000   0.000000
    25  O    0.000000  -0.000001   0.000000   0.000000   0.000000   0.000000
    26  C    0.000000   0.000032   0.000002   0.000000   0.000000   0.000000
    27  H    0.000000   0.000000   0.000000   0.000000   0.000000   0.000000
    28  H    0.000000   0.000000   0.000000   0.000000   0.000000   0.000000
    29  H    0.000000   0.000000   0.000000   0.000000   0.000000   0.000000
    30  O    0.175547  -0.032945   0.023704  -0.595251   0.457029  -0.011824
    31  C   -0.089422  -0.074492  -0.041432   0.035735  -0.153415  -0.003501
    32  H   -0.065077   0.001098   0.004363   0.042167   0.052904   0.000117
    33  H    0.033208  -0.001527  -0.005061  -0.004683  -0.075982  -0.000714
    34  H    0.054306  -0.004189  -0.001522  -0.036026  -0.083386  -0.000519
               7          8          9         10         11         12
     1  C   -0.015325   0.026048   0.722156  -0.209167   0.305530  -0.023831
     2  C   -0.056239   0.028403  -1.809147   0.251331   0.110502  -0.462377
     3  C    0.391350  -0.107466   2.135036   0.003395   0.261442   0.118321
     4  C   -0.095924   0.356191  -0.927656   0.118751  -0.101326  -0.024394
     5  C    0.016694   0.005894  -0.320034  -0.207037   0.048107  -0.024179
     6  H    0.000016  -0.000142  -0.010022   0.002489  -0.000294   0.000021
     7  H    0.519366  -0.004351   0.037802  -0.010002   0.000631   0.000460
     8  H   -0.004351   0.517091  -0.005648   0.001499  -0.000113   0.000008
     9  C    0.037802  -0.005648  12.087302  -1.487711  -1.658365   0.403829
    10  C   -0.010002   0.001499  -1.487711  11.283716  -3.153412  -1.643810
    11  C    0.000631  -0.000113  -1.658365  -3.153412  11.282090  -1.502403
    12  C    0.000460   0.000008   0.403829  -1.643810  -1.502403  12.100511
    13  C   -0.000058   0.000000  -0.458430   0.102667   0.269448  -1.841755
    14  C    0.000018   0.000000  -0.003981  -0.618648  -0.110450  -1.507362
    15  C   -0.000002   0.000000  -0.026024   0.309228  -0.229134   0.733309
    16  H    0.000000   0.000000   0.000336   0.000664  -0.008401   0.037942
    17  C    0.000000   0.000000  -0.025329  -0.106323   0.125744  -0.980606
    18  C    0.000000   0.000000  -0.023354   0.047362  -0.200618  -0.313237
    19  H    0.000000   0.000000   0.000021  -0.000293   0.002480  -0.009944
    20  H    0.000000   0.000000   0.000008  -0.000113   0.001489  -0.005707
    21  C    0.016740  -0.004155  -1.485913  -0.150305  -0.602986  -0.009363
    22  H   -0.000149   0.000014   0.038373  -0.008634   0.000656   0.000345
    23  C   -0.000007   0.000000   0.115397   0.279233  -0.027740   2.212060
    24  H    0.000000   0.000000   0.000463   0.000734  -0.010365   0.038864
    25  O    0.000000   0.000000   0.000031  -0.000112   0.000674   0.001111
    26  C    0.000000   0.000000  -0.000323   0.002047  -0.010883   0.015218
    27  H    0.000000   0.000000   0.000000   0.000000   0.000009   0.000029
    28  H    0.000000   0.000000   0.000000   0.000001  -0.000059   0.000033
    29  H    0.000000   0.000000   0.000000  -0.000006   0.000008  -0.000301
    30  O   -0.000470  -0.006679   0.001169   0.000705  -0.000115   0.000032
    31  C    0.000259  -0.002078   0.015027  -0.010959   0.002038  -0.000325
    32  H    0.000000  -0.000013   0.000029   0.000009   0.000000   0.000000
    33  H    0.000000   0.000002  -0.000133  -0.000008  -0.000003   0.000000
    34  H    0.000000   0.000004  -0.000112  -0.000048  -0.000001   0.000000
              13         14         15         16         17         18
     1  C    0.028987   0.004560  -0.000986   0.000000   0.000988   0.000137
     2  C    0.079426  -0.083899   0.029301  -0.000069  -0.007156   0.002407
     3  C    0.035358   0.018210  -0.005750   0.000019   0.002618   0.000435
     4  C   -0.006599  -0.003901   0.000915  -0.000001  -0.000411  -0.000037
     5  C    0.002374  -0.000638   0.000146   0.000000  -0.000044   0.000023
     6  H   -0.000001   0.000000   0.000000   0.000000   0.000000   0.000000
     7  H   -0.000058   0.000018  -0.000002   0.000000   0.000000   0.000000
     8  H    0.000000   0.000000   0.000000   0.000000   0.000000   0.000000
     9  C   -0.458430  -0.003981  -0.026024   0.000336  -0.025329  -0.023354
    10  C    0.102667  -0.618648   0.309228   0.000664  -0.106323   0.047362
    11  C    0.269448  -0.110450  -0.229134  -0.008401   0.125744  -0.200618
    12  C   -1.841755  -1.507362   0.733309   0.037942  -0.980606  -0.313237
    13  C    9.779305   0.372072  -0.674155  -0.031561   1.612923  -0.489707
    14  C    0.372072  20.891740  -6.335513   0.350535   1.080221   0.647948
    15  C   -0.674155  -6.335513  11.626962  -0.068729  -3.097104  -0.163901
    16  H   -0.031561   0.350535  -0.068729   0.519442  -0.010107   0.001930
    17  C    1.612923   1.080221  -3.097104  -0.010107  11.281199  -0.282108
    18  C   -0.489707   0.647948  -0.163901   0.001930  -0.282108   8.080287
    19  H    0.039545   0.020414   0.244412  -0.004581   0.012482  -0.011598
    20  H    0.028498  -0.004495   0.026768   0.000014   0.357075   0.006259
    21  C   -0.081453  -0.017529   0.004447  -0.000006  -0.003974  -0.000598
    22  H   -0.000071  -0.000006   0.000000   0.000000  -0.000001   0.000000
    23  C   -2.800377  -7.811032   2.672719   0.013855  -3.207048  -1.414549
    24  H   -0.056592   0.017117  -0.015837  -0.000149  -0.098054   0.016528
    25  O   -0.033103  -0.036602   0.174584  -0.000548  -0.594832   0.458285
    26  C   -0.073951   0.102186  -0.083386   0.000650   0.032996  -0.153734
    27  H    0.001103  -0.022087  -0.065613   0.000000   0.042709   0.052869
    28  H   -0.004090   0.048435   0.059600   0.000003  -0.036658  -0.086436
    29  H   -0.001538   0.046980   0.028346   0.000002  -0.004194  -0.073018
    30  O   -0.000001   0.000000   0.000000   0.000000   0.000000   0.000000
    31  C    0.000031  -0.000001   0.000000   0.000000   0.000000   0.000000
    32  H    0.000000   0.000000   0.000000   0.000000   0.000000   0.000000
    33  H    0.000000   0.000000   0.000000   0.000000   0.000000   0.000000
    34  H    0.000000   0.000000   0.000000   0.000000   0.000000   0.000000
              19         20         21         22         23         24
     1  C    0.000000   0.000000  -6.380341  -0.070352  -0.005767  -0.000002
     2  C   -0.000001   0.000000   0.291996  -0.031726   0.037688  -0.000057
     3  C    0.000000   0.000000  -7.651234   0.014104  -0.012024  -0.000008
     4  C    0.000000   0.000000   0.926266  -0.010582   0.002543   0.000000
     5  C    0.000000   0.000000   0.712116   0.002207   0.000468   0.000000
     6  H    0.000000   0.000000   0.018396  -0.004572   0.000000   0.000000
     7  H    0.000000   0.000000   0.016740  -0.000149  -0.000007   0.000000
     8  H    0.000000   0.000000  -0.004155   0.000014   0.000000   0.000000
     9  C    0.000021   0.000008  -1.485913   0.038373   0.115397   0.000463
    10  C   -0.000293  -0.000113  -0.150305  -0.008634   0.279233   0.000734
    11  C    0.002480   0.001489  -0.602986   0.000656  -0.027740  -0.010365
    12  C   -0.009944  -0.005707  -0.009363   0.000345   2.212060   0.038864
    13  C    0.039545   0.028498  -0.081453  -0.000071  -2.800377  -0.056592
    14  C    0.020414  -0.004495  -0.017529  -0.000006  -7.811032   0.017117
    15  C    0.244412   0.026768   0.004447   0.000000   2.672719  -0.015837
    16  H   -0.004581   0.000014  -0.000006   0.000000   0.013855  -0.000149
    17  C    0.012482   0.357075  -0.003974  -0.000001  -3.207048  -0.098054
    18  C   -0.011598   0.006259  -0.000598   0.000000  -1.414549   0.016528
    19  H    0.538171  -0.000143   0.000000   0.000000   0.004745   0.000016
    20  H   -0.000143   0.516994   0.000000   0.000000  -0.109068  -0.004374
    21  C    0.000000   0.000000  20.932629   0.352029   0.017915   0.000019
    22  H    0.000000   0.000000   0.352029   0.519487   0.000020   0.000000
    23  C    0.004745  -0.109068   0.017915   0.000020  16.049463   0.393231
    24  H    0.000016  -0.004374   0.000019   0.000000   0.393231   0.519792
    25  O   -0.011840  -0.006668   0.000000   0.000000   0.022617  -0.000473
    26  C   -0.003270  -0.002047  -0.000001   0.000000  -0.037542   0.000256
    27  H    0.000117  -0.000013   0.000000   0.000000   0.004424   0.000000
    28  H   -0.000545   0.000004   0.000000   0.000000  -0.000833   0.000000
    29  H   -0.000715   0.000003   0.000000   0.000000  -0.006085   0.000000
    30  O    0.000000   0.000000  -0.038183  -0.000547   0.000000   0.000000
    31  C    0.000000   0.000000   0.110012   0.000671   0.000002   0.000000
    32  H    0.000000   0.000000  -0.022074   0.000000   0.000000   0.000000
    33  H    0.000000   0.000000   0.042960   0.000002   0.000000   0.000000
    34  H    0.000000   0.000000   0.052315   0.000003   0.000000   0.000000
              25         26         27         28         29         30
     1  C    0.000000   0.000000   0.000000   0.000000   0.000000   0.175547
     2  C   -0.000001   0.000032   0.000000   0.000000   0.000000  -0.032945
     3  C    0.000000   0.000002   0.000000   0.000000   0.000000   0.023704
     4  C    0.000000   0.000000   0.000000   0.000000   0.000000  -0.595251
     5  C    0.000000   0.000000   0.000000   0.000000   0.000000   0.457029
     6  H    0.000000   0.000000   0.000000   0.000000   0.000000  -0.011824
     7  H    0.000000   0.000000   0.000000   0.000000   0.000000  -0.000470
     8  H    0.000000   0.000000   0.000000   0.000000   0.000000  -0.006679
     9  C    0.000031  -0.000323   0.000000   0.000000   0.000000   0.001169
    10  C   -0.000112   0.002047   0.000000   0.000001  -0.000006   0.000705
    11  C    0.000674  -0.010883   0.000009  -0.000059   0.000008  -0.000115
    12  C    0.001111   0.015218   0.000029   0.000033  -0.000301   0.000032
    13  C   -0.033103  -0.073951   0.001103  -0.004090  -0.001538  -0.000001
    14  C   -0.036602   0.102186  -0.022087   0.048435   0.046980   0.000000
    15  C    0.174584  -0.083386  -0.065613   0.059600   0.028346   0.000000
    16  H   -0.000548   0.000650   0.000000   0.000003   0.000002   0.000000
    17  C   -0.594832   0.032996   0.042709  -0.036658  -0.004194   0.000000
    18  C    0.458285  -0.153734   0.052869  -0.086436  -0.073018   0.000000
    19  H   -0.011840  -0.003270   0.000117  -0.000545  -0.000715   0.000000
    20  H   -0.006668  -0.002047  -0.000013   0.000004   0.000003   0.000000
    21  C    0.000000  -0.000001   0.000000   0.000000   0.000000  -0.038183
    22  H    0.000000   0.000000   0.000000   0.000000   0.000000  -0.000547
    23  C    0.022617  -0.037542   0.004424  -0.000833  -0.006085   0.000000
    24  H   -0.000473   0.000256   0.000000   0.000000   0.000000   0.000000
    25  O    8.454781   0.083026  -0.062254  -0.034874  -0.036333   0.000000
    26  C    0.083026   5.286746   0.397424   0.390668   0.384133   0.000000
    27  H   -0.062254   0.397424   0.498746  -0.029410  -0.028314   0.000000
    28  H   -0.034874   0.390668  -0.029410   0.534990  -0.045214   0.000000
    29  H   -0.036333   0.384133  -0.028314  -0.045214   0.530648   0.000000
    30  O    0.000000   0.000000   0.000000   0.000000   0.000000   8.455043
    31  C    0.000000   0.000000   0.000000   0.000000   0.000000   0.083761
    32  H    0.000000   0.000000   0.000000   0.000000   0.000000  -0.062114
    33  H    0.000000   0.000000   0.000000   0.000000   0.000000  -0.036339
    34  H    0.000000   0.000000   0.000000   0.000000   0.000000  -0.034760
              31         32         33         34
     1  C   -0.089422  -0.065077   0.033208   0.054306
     2  C   -0.074492   0.001098  -0.001527  -0.004189
     3  C   -0.041432   0.004363  -0.005061  -0.001522
     4  C    0.035735   0.042167  -0.004683  -0.036026
     5  C   -0.153415   0.052904  -0.075982  -0.083386
     6  H   -0.003501   0.000117  -0.000714  -0.000519
     7  H    0.000259   0.000000   0.000000   0.000000
     8  H   -0.002078  -0.000013   0.000002   0.000004
     9  C    0.015027   0.000029  -0.000133  -0.000112
    10  C   -0.010959   0.000009  -0.000008  -0.000048
    11  C    0.002038   0.000000  -0.000003  -0.000001
    12  C   -0.000325   0.000000   0.000000   0.000000
    13  C    0.000031   0.000000   0.000000   0.000000
    14  C   -0.000001   0.000000   0.000000   0.000000
    15  C    0.000000   0.000000   0.000000   0.000000
    16  H    0.000000   0.000000   0.000000   0.000000
    17  C    0.000000   0.000000   0.000000   0.000000
    18  C    0.000000   0.000000   0.000000   0.000000
    19  H    0.000000   0.000000   0.000000   0.000000
    20  H    0.000000   0.000000   0.000000   0.000000
    21  C    0.110012  -0.022074   0.042960   0.052315
    22  H    0.000671   0.000000   0.000002   0.000003
    23  C    0.000002   0.000000   0.000000   0.000000
    24  H    0.000000   0.000000   0.000000   0.000000
    25  O    0.000000   0.000000   0.000000   0.000000
    26  C    0.000000   0.000000   0.000000   0.000000
    27  H    0.000000   0.000000   0.000000   0.000000
    28  H    0.000000   0.000000   0.000000   0.000000
    29  H    0.000000   0.000000   0.000000   0.000000
    30  O    0.083761  -0.062114  -0.036339  -0.034760
    31  C    5.285014   0.397384   0.385647   0.389171
    32  H    0.397384   0.498605  -0.028463  -0.029218
    33  H    0.385647  -0.028463   0.530285  -0.045223
    34  H    0.389171  -0.029218  -0.045223   0.535238
 Mulliken charges:
               1
     1  C    0.852032
     2  C    0.200909
     3  C   -0.394966
     4  C   -0.104131
     5  C   -0.100848
     6  H    0.180511
     7  H    0.199189
     8  H    0.195490
     9  C   -1.314796
    10  C    1.202757
    11  C    1.205820
    12  C   -1.312498
    13  C    0.201705
    14  C   -1.044290
    15  C    0.855396
    16  H    0.198761
    17  C   -0.095009
    18  C   -0.101575
    19  H    0.180523
    20  H    0.195515
    21  C   -1.029725
    22  H    0.198728
    23  C   -0.394309
    24  H    0.198889
    25  O   -0.377470
    26  C   -0.330246
    27  H    0.210260
    28  H    0.204385
    29  H    0.205596
    30  O   -0.377760
    31  C   -0.329126
    32  H    0.210281
    33  H    0.206032
    34  H    0.203967
 Sum of Mulliken charges =   0.00000
 Mulliken charges with hydrogens summed into heavy atoms:
               1
     1  C    1.032543
     2  C    0.200909
     3  C   -0.195777
     4  C    0.091359
     5  C   -0.100848
     9  C   -1.314796
    10  C    1.202757
    11  C    1.205820
    12  C   -1.312498
    13  C    0.201705
    14  C   -0.845529
    15  C    1.035919
    17  C    0.100506
    18  C   -0.101575
    21  C   -0.830997
    23  C   -0.195419
    25  O   -0.377470
    26  C    0.289996
    30  O   -0.377760
    31  C    0.291153
 Electronic spatial extent (au):  <R**2>=          15257.9058
 Charge=              0.0000 electrons
 Dipole moment (field-independent basis, Debye):
    X=             -0.0077    Y=             -0.0080    Z=              0.0737  Tot=              0.0745
 Quadrupole moment (field-independent basis, Debye-Ang):
   XX=            -67.4428   YY=           -106.0940   ZZ=           -123.2311
   XY=            -21.2650   XZ=             -1.4500   YZ=             -0.1668
 Traceless Quadrupole moment (field-independent basis, Debye-Ang):
   XX=             31.4798   YY=             -7.1714   ZZ=            -24.3085
   XY=            -21.2650   XZ=             -1.4500   YZ=             -0.1668
 Octapole moment (field-independent basis, Debye-Ang**2):
  XXX=             -1.0591  YYY=              0.0271  ZZZ=             -0.3536  XYY=              0.0562
  XXY=             -0.4155  XXZ=              4.1093  XZZ=              0.1628  YZZ=             -0.0729
  YYZ=             -0.3623  XYZ=             -2.8265
 Hexadecapole moment (field-independent basis, Debye-Ang**3):
 XXXX=         -15531.1057 YYYY=           -681.0166 ZZZZ=           -161.5539 XXXY=          -1434.3359
 XXXZ=           -105.1857 YYYX=             36.9244 YYYZ=             -1.3125 ZZZX=             -2.9510
 ZZZY=              0.5103 XXYY=          -3184.8360 XXZZ=          -3464.0189 YYZZ=           -163.2975
 XXYZ=             -4.7634 YYXZ=              1.4599 ZZXY=            -12.2548
 N-N= 1.189870217902D+03 E-N=-4.340194406577D+03  KE= 8.366959022803D+02
 Evaluate density.
 Using the total density.
 Monte-Carlo method of calculating molar volume:
 based on  0.001 e/bohr**3 density envelope.
 Number of points per bohr**3 =   20 CutOff= 1.00D-04
 Using the SCF density.
 There are       443 points.  Will hold       443 in memory.
 LenV=  4026182452 MDV=  4026531840.
 Box volume =10913.247 fraction occupied=0.248
 Integrated density= 1.1270161818318653D+02 error=-2.5298381816813475D+01
 Molar volume = 2709.836 bohr**3/mol (241.823 cm**3/mol)
 Recommended a0 for SCRF calculation =  5.54 angstrom ( 10.46 bohr)
 Calling FoFJK, ICntrl=      2127 FMM=F ISym2X=0 I1Cent= 0 IOpClX= 0 NMat=1 NMatS=1 NMatT=0.
 ***** Axes restored to original set *****
 -------------------------------------------------------------------
 Center     Atomic                   Forces (Hartrees/Bohr)
 Number     Number              X              Y              Z
 -------------------------------------------------------------------
      1        6          -0.000464864    0.000476777    0.000462902
      2        6          -0.016650745   -0.002516797   -0.000051384
      3        6           0.008812668    0.002379879   -0.000322203
      4        6          -0.006841910    0.003775193   -0.000301274
      5        6           0.013826784   -0.000279395   -0.000072855
      6        1           0.001739441   -0.000795655    0.000392726
      7        1          -0.000914909    0.000204889    0.000470201
      8        1           0.001338633   -0.000380748   -0.000465977
      9        6           0.017807615    0.001024993    0.000185793
     10        6           0.000968290   -0.000191019   -0.000002103
     11        6          -0.001496811    0.000081454    0.000010385
     12        6          -0.017821540   -0.001130455    0.000288901
     13        6           0.015802249    0.002955911    0.000596457
     14        6          -0.005680319   -0.000752250   -0.000358458
     15        6           0.000319147   -0.000091450   -0.000275528
     16        1           0.000551025    0.000329560   -0.000335331
     17        6           0.006807380   -0.003282665    0.000015104
     18        6          -0.013598578    0.000088196    0.000093578
     19        1          -0.001697520    0.000802173    0.000173056
     20        1          -0.001331825    0.000299586   -0.000224971
     21        6           0.006342112    0.000123087   -0.000084932
     22        1          -0.000587487   -0.000338093   -0.000544597
     23        6          -0.008155759   -0.002424642   -0.000019022
     24        1           0.001053398   -0.000229006   -0.000199568
     25        8           0.009277495    0.004875387   -0.000315342
     26        6           0.000800852   -0.003935165    0.000438973
     27        1          -0.000920639    0.000023890   -0.000002547
     28        1           0.000785070    0.001034989    0.000968532
     29        1           0.000895186    0.000915137   -0.000792837
     30        8          -0.009179646   -0.005229928    0.000869005
     31        6          -0.001021007    0.004176934   -0.000648415
     32        1           0.000875856    0.000046951    0.000169903
     33        1          -0.000801911   -0.000921150    0.000843092
     34        1          -0.000837733   -0.001116570   -0.000961263
 -------------------------------------------------------------------
 Cartesian Forces:  Max     0.017821540 RMS     0.004635010

 GradGradGradGradGradGradGradGradGradGradGradGradGradGradGradGradGradGrad
 Berny optimization.
 FormGI is forming the generalized inverse of G from B-inverse, IUseBI=4.
 Internal  Forces:  Max     0.014416823 RMS     0.002767068
 Search for a local minimum.
 Step number   1 out of a maximum of  165
 All quantities printed in internal units (Hartrees-Bohrs-Radians)
 Mixed Optimization -- RFO/linear search
 Second derivative matrix not updated -- first step.
 ITU=  0
     Eigenvalues ---    0.00230   0.00938   0.01319   0.01327   0.01375
     Eigenvalues ---    0.01687   0.01896   0.01936   0.01940   0.02040
     Eigenvalues ---    0.02046   0.02062   0.02062   0.02082   0.02085
     Eigenvalues ---    0.02094   0.02094   0.02104   0.02105   0.02113
     Eigenvalues ---    0.02115   0.02141   0.02142   0.02165   0.02165
     Eigenvalues ---    0.02562   0.02778   0.03698   0.04362   0.04518
     Eigenvalues ---    0.04522   0.09984   0.09986   0.10689   0.10692
     Eigenvalues ---    0.16000   0.16000   0.16000   0.16000   0.16000
     Eigenvalues ---    0.16000   0.16000   0.16000   0.16000   0.16000
     Eigenvalues ---    0.16000   0.16000   0.16000   0.16000   0.22000
     Eigenvalues ---    0.22000   0.22974   0.22975   0.23999   0.24000
     Eigenvalues ---    0.25000   0.25000   0.25000   0.25000   0.25000
     Eigenvalues ---    0.25000   0.34126   0.34132   0.34145   0.34171
     Eigenvalues ---    0.34769   0.34769   0.35383   0.35398   0.35423
     Eigenvalues ---    0.35426   0.35449   0.35460   0.35741   0.35751
     Eigenvalues ---    0.40933   0.40999   0.41254   0.41341   0.41424
     Eigenvalues ---    0.41460   0.41863   0.41905   0.44963   0.44992
     Eigenvalues ---    0.45409   0.45511   0.45893   0.45896   0.46811
     Eigenvalues ---    0.46824   0.48818   0.48878   0.55488   0.97029
     Eigenvalues ---    0.97149
 RFO step:  Lambda=-2.60708223D-03 EMin= 2.30000000D-03
 Linear search not attempted -- first point.
 Iteration  1 RMS(Cart)=  0.03203836 RMS(Int)=  0.00026791
 Iteration  2 RMS(Cart)=  0.00048890 RMS(Int)=  0.00002070
 Iteration  3 RMS(Cart)=  0.00000009 RMS(Int)=  0.00002070
 Variable       Old X    -DE/DX   Delta X   Delta X   Delta X     New X
                                 (Linear)    (Quad)   (Total)
    R1        2.65061  -0.00136   0.00000  -0.00334  -0.00336   2.64725
    R2        2.04473   0.00158   0.00000   0.00440   0.00440   2.04913
    R3        2.63830   0.00022   0.00000   0.00037   0.00037   2.63867
    R4        2.65501   0.00619   0.00000   0.01408   0.01409   2.66910
    R5        2.70218  -0.00438   0.00000  -0.01061  -0.01061   2.69157
    R6        2.64958   0.00456   0.00000   0.01024   0.01025   2.65984
    R7        2.62874  -0.00160   0.00000  -0.00327  -0.00327   2.62547
    R8        2.04953   0.00064   0.00000   0.00180   0.00180   2.05133
    R9        2.64212   0.00401   0.00000   0.00845   0.00844   2.65056
   R10        2.05058   0.00031   0.00000   0.00088   0.00088   2.05146
   R11        2.61077  -0.01127   0.00000  -0.02296  -0.02296   2.58781
   R12        2.29803   0.01346   0.00000   0.01382   0.01382   2.31184
   R13        2.54700   0.01442   0.00000   0.02586   0.02586   2.57287
   R14        2.29852   0.01292   0.00000   0.01328   0.01328   2.31181
   R15        2.70305  -0.00493   0.00000  -0.01197  -0.01197   2.69109
   R16        2.65168   0.00380   0.00000   0.00855   0.00856   2.66025
   R17        2.65599   0.00561   0.00000   0.01277   0.01278   2.66877
   R18        2.63790   0.00025   0.00000   0.00042   0.00042   2.63832
   R19        2.04994   0.00053   0.00000   0.00148   0.00148   2.05141
   R20        2.65021  -0.00122   0.00000  -0.00297  -0.00298   2.64723
   R21        2.04488   0.00157   0.00000   0.00435   0.00435   2.04924
   R22        2.64234   0.00391   0.00000   0.00831   0.00830   2.65064
   R23        2.05033   0.00038   0.00000   0.00107   0.00107   2.05140
   R24        2.62866  -0.00161   0.00000  -0.00328  -0.00328   2.62537
   R25        2.61015  -0.01112   0.00000  -0.02264  -0.02264   2.58752
   R26        2.04988   0.00055   0.00000   0.00153   0.00153   2.05141
   R27        2.04934   0.00076   0.00000   0.00213   0.00213   2.05147
   R28        2.69771  -0.00252   0.00000  -0.00606  -0.00606   2.69165
   R29        2.06051   0.00085   0.00000   0.00243   0.00243   2.06295
   R30        2.07086   0.00145   0.00000   0.00421   0.00421   2.07507
   R31        2.07108   0.00133   0.00000   0.00385   0.00385   2.07493
   R32        2.69884  -0.00285   0.00000  -0.00688  -0.00688   2.69197
   R33        2.06051   0.00083   0.00000   0.00238   0.00238   2.06289
   R34        2.07118   0.00130   0.00000   0.00377   0.00377   2.07495
   R35        2.07043   0.00155   0.00000   0.00450   0.00450   2.07493
    A1        2.12160  -0.00131   0.00000  -0.00703  -0.00702   2.11458
    A2        2.08560   0.00044   0.00000   0.00060   0.00056   2.08616
    A3        2.07599   0.00088   0.00000   0.00644   0.00645   2.08244
    A4        2.10060   0.00197   0.00000   0.00748   0.00747   2.10807
    A5        2.08623  -0.00465   0.00000  -0.01771  -0.01770   2.06853
    A6        2.09635   0.00267   0.00000   0.01024   0.01024   2.10659
    A7        2.09651   0.00184   0.00000   0.00878   0.00878   2.10528
    A8        2.09389  -0.00161   0.00000  -0.00867  -0.00866   2.08523
    A9        2.09279  -0.00022   0.00000  -0.00011  -0.00011   2.09268
   A10        2.09661   0.00025   0.00000   0.00048   0.00044   2.09705
   A11        2.10449   0.00126   0.00000   0.00830   0.00832   2.11281
   A12        2.08208  -0.00151   0.00000  -0.00878  -0.00876   2.07332
   A13        2.09859  -0.00025   0.00000  -0.00242  -0.00247   2.09613
   A14        2.18034  -0.00308   0.00000  -0.01150  -0.01148   2.16886
   A15        2.00425   0.00334   0.00000   0.01392   0.01394   2.01819
   A16        2.09588   0.00266   0.00000   0.01028   0.01027   2.10615
   A17        2.10342   0.00142   0.00000   0.00537   0.00537   2.10879
   A18        2.08388  -0.00408   0.00000  -0.01564  -0.01564   2.06824
   A19        2.10278   0.00237   0.00000   0.01041   0.01040   2.11318
   A20        2.09039  -0.00154   0.00000  -0.00737  -0.00736   2.08303
   A21        2.09002  -0.00083   0.00000  -0.00305  -0.00304   2.08697
   A22        2.08693   0.00016   0.00000  -0.00049  -0.00051   2.08641
   A23        2.07574   0.00098   0.00000   0.00678   0.00679   2.08253
   A24        2.12052  -0.00114   0.00000  -0.00629  -0.00628   2.11424
   A25        2.08244  -0.00152   0.00000  -0.00881  -0.00879   2.07364
   A26        2.09581   0.00036   0.00000   0.00112   0.00109   2.09690
   A27        2.10493   0.00116   0.00000   0.00769   0.00771   2.11264
   A28        2.09816  -0.00025   0.00000  -0.00217  -0.00220   2.09596
   A29        2.18011  -0.00309   0.00000  -0.01167  -0.01166   2.16846
   A30        2.00490   0.00335   0.00000   0.01383   0.01385   2.01875
   A31        2.10270   0.00238   0.00000   0.01052   0.01052   2.11322
   A32        2.08980  -0.00082   0.00000  -0.00295  -0.00295   2.08685
   A33        2.09068  -0.00157   0.00000  -0.00757  -0.00757   2.08311
   A34        2.09868   0.00146   0.00000   0.00701   0.00700   2.10567
   A35        2.09351  -0.00152   0.00000  -0.00834  -0.00833   2.08517
   A36        2.09100   0.00006   0.00000   0.00133   0.00134   2.09234
   A37        2.06819  -0.00240   0.00000  -0.00950  -0.00950   2.05869
   A38        1.83766   0.00103   0.00000   0.00804   0.00803   1.84569
   A39        1.94554  -0.00051   0.00000  -0.00404  -0.00407   1.94148
   A40        1.94426  -0.00063   0.00000  -0.00478  -0.00480   1.93946
   A41        1.90620   0.00030   0.00000   0.00353   0.00352   1.90972
   A42        1.90834   0.00035   0.00000   0.00386   0.00385   1.91219
   A43        1.91969  -0.00045   0.00000  -0.00566  -0.00570   1.91400
   A44        2.06734  -0.00222   0.00000  -0.00878  -0.00878   2.05856
   A45        1.83806   0.00091   0.00000   0.00719   0.00719   1.84524
   A46        1.94264  -0.00044   0.00000  -0.00361  -0.00363   1.93901
   A47        1.94627  -0.00059   0.00000  -0.00445  -0.00447   1.94180
   A48        1.90996   0.00026   0.00000   0.00306   0.00305   1.91302
   A49        1.90487   0.00042   0.00000   0.00428   0.00428   1.90915
   A50        1.91992  -0.00046   0.00000  -0.00558  -0.00562   1.91430
   A51        3.14300   0.00014   0.00000   0.00286   0.00286   3.14587
   A52        3.13928   0.00034   0.00000   0.01127   0.01127   3.15054
   A53        3.14178   0.00010   0.00000   0.00211   0.00211   3.14389
   A54        3.14057   0.00017   0.00000   0.00887   0.00887   3.14944
   A55        3.14261   0.00001   0.00000  -0.00017  -0.00013   3.14248
   A56        3.14178   0.00000   0.00000  -0.00016  -0.00013   3.14164
   A57        3.14213   0.00001   0.00000  -0.00012  -0.00013   3.14199
   A58        3.13955   0.00004   0.00000   0.00033   0.00031   3.13986
    D1        3.13765   0.00007   0.00000   0.00297   0.00295   3.14060
    D2       -0.00167   0.00012   0.00000   0.00502   0.00500   0.00333
    D3       -0.00370   0.00014   0.00000   0.00570   0.00566   0.00196
    D4        3.14017   0.00018   0.00000   0.00775   0.00771  -3.13531
    D5        0.01396  -0.00034   0.00000  -0.01446  -0.01450  -0.00054
    D6       -3.12532  -0.00030   0.00000  -0.01253  -0.01254  -3.13786
    D7       -3.12740  -0.00028   0.00000  -0.01180  -0.01184  -3.13923
    D8        0.01651  -0.00023   0.00000  -0.00987  -0.00988   0.00663
    D9       -3.14106  -0.00001   0.00000  -0.00097  -0.00094   3.14118
   D10       -0.00258   0.00004   0.00000   0.00116   0.00118  -0.00141
   D11       -0.00355   0.00008   0.00000   0.00385   0.00386   0.00031
   D12        3.13493   0.00013   0.00000   0.00598   0.00598   3.14090
   D13       -0.09985   0.00008   0.00000   0.00626   0.00628  -0.09356
   D14        3.04227   0.00000   0.00000   0.00104   0.00107   3.04334
   D15        3.04692   0.00002   0.00000   0.00165   0.00162   3.04853
   D16       -0.09415  -0.00007   0.00000  -0.00357  -0.00360  -0.09775
   D17       -0.01038   0.00024   0.00000   0.00978   0.00979  -0.00059
   D18        3.12890   0.00020   0.00000   0.00785   0.00784   3.13674
   D19        3.12714   0.00033   0.00000   0.01458   0.01458  -3.14146
   D20       -0.01677   0.00029   0.00000   0.01265   0.01263  -0.00413
   D21        0.01377  -0.00031   0.00000  -0.01267  -0.01266   0.00110
   D22       -3.12678  -0.00026   0.00000  -0.01086  -0.01086  -3.13764
   D23       -3.12472  -0.00036   0.00000  -0.01478  -0.01477  -3.13949
   D24        0.01792  -0.00031   0.00000  -0.01297  -0.01297   0.00495
   D25       -0.01016   0.00019   0.00000   0.00793   0.00791  -0.00225
   D26        3.12938   0.00015   0.00000   0.00605   0.00600   3.13538
   D27        3.13040   0.00015   0.00000   0.00615   0.00616   3.13656
   D28       -0.01325   0.00011   0.00000   0.00427   0.00425  -0.00900
   D29       -0.07000   0.00062   0.00000   0.02824   0.02823  -0.04177
   D30        3.07376   0.00066   0.00000   0.03021   0.03022   3.10398
   D31        3.12838   0.00025   0.00000   0.01025   0.01026   3.13865
   D32       -0.01343   0.00016   0.00000   0.00612   0.00612  -0.00732
   D33       -0.01517   0.00034   0.00000   0.01502   0.01501  -0.00017
   D34        3.12620   0.00025   0.00000   0.01090   0.01086   3.13706
   D35       -3.13342  -0.00010   0.00000  -0.00406  -0.00406  -3.13748
   D36        0.00914  -0.00015   0.00000  -0.00586  -0.00585   0.00329
   D37        0.01014  -0.00020   0.00000  -0.00886  -0.00881   0.00133
   D38       -3.13048  -0.00025   0.00000  -0.01066  -0.01060  -3.14109
   D39        0.00610  -0.00018   0.00000  -0.00830  -0.00836  -0.00225
   D40       -3.13404  -0.00023   0.00000  -0.01032  -0.01037   3.13878
   D41       -3.13527  -0.00009   0.00000  -0.00418  -0.00420  -3.13947
   D42        0.00778  -0.00014   0.00000  -0.00619  -0.00621   0.00157
   D43        0.00810  -0.00010   0.00000  -0.00453  -0.00457   0.00353
   D44       -3.13864  -0.00014   0.00000  -0.00603  -0.00603   3.13852
   D45       -3.13499  -0.00004   0.00000  -0.00245  -0.00251  -3.13749
   D46        0.00146  -0.00008   0.00000  -0.00396  -0.00397  -0.00251
   D47        3.12989   0.00017   0.00000   0.00788   0.00792   3.13781
   D48       -0.00705   0.00022   0.00000   0.00931   0.00933   0.00228
   D49       -0.01312   0.00025   0.00000   0.01071   0.01072  -0.00240
   D50        3.13313   0.00030   0.00000   0.01214   0.01213  -3.13793
   D51        0.00391  -0.00012   0.00000  -0.00402  -0.00397  -0.00006
   D52       -3.13864  -0.00007   0.00000  -0.00222  -0.00218  -3.14082
   D53       -3.13911  -0.00004   0.00000  -0.00116  -0.00112  -3.14023
   D54        0.00152   0.00001   0.00000   0.00064   0.00067   0.00219
   D55        0.08235  -0.00057   0.00000  -0.02613  -0.02615   0.05621
   D56       -3.06415  -0.00061   0.00000  -0.02760  -0.02759  -3.09173
   D57        3.09180   0.00006   0.00000   0.00373   0.00373   3.09553
[...]
 90,0.00000458,0.00000034,0.00000584,0.00000273,0.00000023,-0.00001943,
 0.00000395,-0.00001021,0.00014457,-0.00001377,0.00001333,-0.00022886,0
 .00003256,0.00001161,0.00039351,0.00025464,0.00002973,0.00001662,0.000
 06574,0.00004935,0.00066859,0.00061401,-0.00038965,0.00006482,0.000023
 59,-0.00001456,0.00130564,-0.00059722,-0.00041413,-0.00624616,-0.00044
 352,0.00054980,-0.00033199,0.00036861,-0.00009056,-0.00008875,0.000150
 49,0.00018312,-0.00000839,0.00002773,0.00000113,-0.00000618,0.00000296
 ,0.00000055,-0.00050855,-0.00009069,-0.00022898,0.00005032,-0.00001942
 ,0.00004530,0.00983828,-0.02849927,0.02198828,-0.02495017,-0.11761025,
 0.10717387,-0.00278986,-0.00444381,0.00987463,0.00220259,0.01189781,-0
 .01425194,0.02041979,0.13830436,-0.00001159,-0.00001456,-0.00000003,0.
 00000662,0.00000111,0.00000158,0.00000169,0.00001069,-0.00000012,-0.00
 001092,0.00001091,0.00000111,0.00003286,0.00000773,-0.00000050,-0.0000
 0130,0.00000133,-0.00000057,0.00000146,-0.00000006,-0.00000123,-0.0000
 0195,-0.00000132,-0.00000055,0.00000010,-0.00000754,-0.00000066,0.0000
 0150,0.00001911,-0.00000298,-0.00003625,-0.00002241,0.00000492,0.00010
 143,-0.00004635,0.00001966,-0.00011404,-0.00001974,-0.00004603,0.00014
 180,-0.00049307,-0.00004663,-0.00045386,0.00110789,-0.00003327,-0.0000
 3882,0.00000417,0.00000576,-0.00057389,0.00003822,-0.00021893,0.001959
 18,0.00041778,0.00053976,-0.00021135,-0.00076814,-0.00016686,0.0000594
 9,-0.00008533,-0.00000615,0.00000418,-0.00000681,0.00000139,0.00000128
 ,-0.00000082,-0.00000065,0.00021620,-0.00003906,-0.00001608,-0.0000209
 9,-0.00000455,0.00000795,-0.00595728,0.00251351,0.00749871,0.03847876,
 0.10956809,-0.22992981,0.00015623,-0.00174639,0.00189954,0.00609685,0.
 01408259,-0.02089124,-0.03978896,-0.12451966,0.24138178,-0.03748451,-0
 .01372915,-0.00008861,-0.00656025,-0.00312846,-0.00000768,0.00806392,0
 .00343138,0.00000399,-0.05559352,0.01311393,-0.00016071,-0.28319326,-0
 .04802262,-0.00049376,0.00005995,0.00046614,0.00000581,-0.00103499,0.0
 0012228,-0.00000325,0.00111014,-0.00084793,0.00001097,0.00358005,-0.00
 011618,0.00000931,-0.00217566,0.00002887,-0.00000511,0.00016899,0.0000
 1090,0.00000032,-0.00000330,-0.00006223,0.00000005,0.00043677,0.000095
 82,0.00000083,0.00016146,-0.00047616,0.00000130,-0.00069518,-0.0007050
 5,0.00000065,0.00010099,-0.00004497,0.00000025,-0.00062611,0.00058728,
 -0.00000336,0.00196933,0.00038191,0.00000342,-0.00010920,0.00008531,-0
 .00000043,-0.00009604,-0.00007599,-0.00000004,0.00313758,-0.00104187,-
 0.00000655,-0.00117920,-0.00002810,-0.00000234,0.00004437,0.00050669,-
 0.00000093,0.00010342,0.00004537,0.00000022,-0.00282883,0.00016588,-0.
 00000694,0.00069716,-0.00089474,0.00000407,-0.00013012,0.00000013,-0.0
 0000030,0.00002267,0.00016885,0.00004729,0.00002289,0.00016858,-0.0000
 4811,0.52342320,-0.04022862,0.00166323,-0.00008322,-0.00051708,0.00439
 460,-0.00000882,-0.00243054,-0.00858667,0.00001144,0.04558262,0.009446
 26,0.00010126,-0.00964077,-0.11279238,0.00007602,0.00193545,0.00158731
 ,-0.00000142,0.00170990,0.00013421,0.00000417,-0.00022057,0.00165956,-
 0.00000699,-0.00007463,0.00052614,-0.00000122,0.00003111,-0.00005364,-
 0.00000031,0.00001395,-0.00003454,0.00000046,-0.00002640,0.00001702,-0
 .00000023,-0.00002700,0.00000035,-0.00000004,-0.00000617,0.00002362,-0
 .00000006,0.00003861,0.00004232,-0.00000002,-0.00000844,0.00000744,-0.
 00000005,0.00004071,-0.00002555,0.00000018,-0.00012245,-0.00002570,-0.
 00000021,0.00000458,-0.00000509,0.00000002,0.00000923,0.00000505,0.,0.
 00510374,-0.00811779,0.00003147,-0.00162746,0.00011536,-0.00000422,0.0
 0000413,-0.00004748,0.00000013,-0.00000793,-0.00000173,-0.00000003,0.0
 0016609,-0.00000172,0.00000039,-0.00004000,0.00004482,-0.00000023,0.00
 000832,0.00000047,0.00000002,-0.00000149,-0.00000946,-0.00000099,-0.00
 000150,-0.00000946,0.00000104,-0.08303613,0.34692441,-0.00005492,-0.00
 002250,0.00869981,-0.00001129,-0.00001409,-0.00134903,0.00001116,0.000
 02507,0.00422954,-0.00020445,0.00002529,0.00624563,-0.00054896,-0.0000
 1209,-0.04163200,0.00000393,-0.00000470,-0.00276265,-0.00000544,0.0000
 0046,0.00027564,0.00001020,-0.00000850,-0.00313926,0.00000908,-0.00000
 159,-0.00028594,-0.00000470,0.00000024,-0.00019203,0.00000011,0.,0.000
 13974,0.00000010,-0.00000015,-0.00004023,0.00000105,0.00000022,0.00000
 442,0.00000037,-0.00000112,0.00000048,-0.00000166,-0.00000166,0.000004
 67,0.00000025,-0.00000013,-0.00000322,-0.00000151,0.00000139,0.0000026
 6,0.00000470,0.00000092,0.00000178,-0.00000025,0.00000020,-0.00000128,
 -0.00000023,-0.00000019,-0.00000196,-0.00001405,0.00001660,0.00653437,
 -0.00000027,-0.00000045,-0.00014992,0.00000009,0.00000124,-0.00000171,
 0.00000026,0.00000010,-0.00000193,-0.00000675,0.00000039,0.00000254,0.
 00000167,-0.00000213,-0.00000367,-0.00000031,0.,-0.00000050,0.00000033
 ,0.00000086,0.00000094,-0.00000022,-0.00000006,0.00000072,0.00117914,-
 0.00058705,0.06772091,0.00256007,0.00045348,0.00000823,0.00147475,0.00
 033376,0.00000222,-0.00156055,0.00142961,-0.00000913,-0.00053602,-0.00
 515252,-0.00000151,-0.04485539,0.03385542,-0.00013980,-0.00246957,0.00
 084346,-0.00000655,-0.00022626,-0.00015254,0.00000043,-0.00001884,0.00
 042385,0.00000085,-0.00107502,0.00007848,-0.00000209,0.00062038,-0.000
 05681,0.00000222,-0.00012064,0.00004762,-0.00000103,0.00003969,-0.0000
 0044,0.00000043,-0.00012803,-0.00002175,-0.00000032,-0.00003330,0.0001
 0729,-0.00000029,0.00016639,0.00017078,-0.00000015,-0.00002525,0.00001
 294,-0.00000008,0.00015149,-0.00013955,0.00000082,-0.00048763,-0.00009
 369,-0.00000086,0.00002572,-0.00002126,0.00000010,0.00002401,0.0000187
 1,0.,-0.00071144,0.00193553,-0.00000508,0.00043932,0.00007248,0.000000
 88,-0.00000576,-0.00012037,0.00000025,-0.00002565,-0.00001215,-0.00000
 006,0.00069709,-0.00003994,0.00000172,-0.00017257,0.00021815,-0.000001
 01,0.00003267,0.00000021,0.00000008,-0.00000572,-0.00004151,-0.0000109
 0,-0.00000577,-0.00004145,0.00001111,-0.12028681,0.04179618,-0.0001996
 4,0.57472370,-0.00959586,0.00191477,-0.00002696,-0.00163228,0.00048420
 ,-0.00000398,0.00034476,0.00000464,0.00000301,-0.00524303,0.00155238,-
 0.00000982,0.01274753,0.00542389,0.00001415,-0.00150761,-0.00084690,-0
 .00000269,-0.00035781,0.00009394,-0.00000142,0.00005741,0.00008107,-0.
 00000085,0.00104912,-0.00015447,0.00000235,-0.00060759,0.00001010,-0.0
 0000161,0.00002629,0.00003811,0.,0.00001863,-0.00004023,0.00000019,0.0
 0013720,0.00002701,0.00000022,0.00005027,-0.00015293,0.00000040,-0.000
 21947,-0.00022529,0.00000021,0.00003254,-0.00001694,0.00000010,-0.0002
 0002,0.00018246,-0.00000106,0.00062574,0.00012504,0.00000108,-0.000032
 91,0.00002664,-0.00000013,-0.00003312,-0.00002448,-0.00000001,0.001378
 27,-0.00151778,0.00000571,-0.00045666,-0.00011894,-0.00000088,0.000011
 01,0.00017694,-0.00000035,0.00003434,0.00001288,0.00000009,-0.00089480
 ,0.00004476,-0.00000218,0.00021819,-0.00027680,0.00000128,-0.00004139,
 -0.00000007,-0.00000010,0.00000723,0.00005299,0.00001365,0.00000729,0.
 00005292,-0.00001391,0.07275039,-0.18414535,0.00034539,0.08149709,0.50
 182912,0.00002257,-0.00000316,-0.00130397,0.00000503,0.00000027,0.0002
 8716,-0.00000753,0.00000550,0.00162039,-0.00000056,-0.00000994,0.00297
 883,-0.00010952,0.00006289,-0.00559358,-0.00000362,0.00000305,-0.00012
 283,0.00000075,-0.00000091,-0.00031129,0.00000136,0.00000005,-0.000651
 51,-0.00000337,0.00000006,-0.00025739,0.00000262,-0.00000042,-0.000137
 44,-0.00000061,0.00000033,0.00012504,0.00000019,-0.00000006,-0.0000492
 2,-0.00000050,-0.00000007,0.00000603,-0.00000014,0.00000045,-0.0000030
 6,0.00000069,0.00000071,-0.00000235,-0.00000011,0.00000007,0.00000369,
 0.00000065,-0.00000059,-0.00000515,-0.00000202,-0.00000038,0.00000484,
 0.00000010,-0.00000008,0.00000272,0.00000010,0.00000009,0.00000270,-0.
 00000457,0.00000723,0.00034273,0.00000165,0.00000037,0.00001520,-0.000
 00002,-0.00000054,-0.00000189,-0.00000012,-0.00000003,0.00000531,0.000
 00287,-0.00000015,-0.00000368,-0.00000071,0.00000089,0.00000299,0.0000
 0013,0.,0.00000015,-0.00000021,-0.00000111,-0.00000092,0.00000017,0.00
 000077,-0.00000084,-0.00024491,0.00027425,-0.06009525,-0.00011513,0.00
 029953,0.57537043,0.00012324,0.00020169,-0.00000071,-0.00005999,-0.000
 00459,0.,0.00002462,0.00037498,-0.00000041,-0.00113502,-0.00034400,-0.
 00000274,0.00185126,0.00336308,-0.00000232,0.00010187,0.00001546,0.000
 00135,-0.00010461,-0.00000407,-0.00000013,0.00001724,0.00002953,-0.000
 00006,0.00012215,-0.00001472,0.00000035,-0.00007595,0.00000158,-0.0000
 0019,0.00000699,0.00000494,0.00000003,0.00000307,-0.00000438,0.,0.0000
 2185,0.00000427,0.00000004,0.00000566,-0.00002226,0.00000007,-0.000031
 61,-0.00003013,0.00000001,0.00000523,-0.00000264,0.00000002,-0.0000286
 3,0.00002524,-0.00000014,0.00009228,0.00001686,0.00000016,-0.00000520,
 0.00000405,-0.00000002,-0.00000447,-0.00000354,0.,0.00003826,-0.000103
 07,-0.00000024,-0.00004182,-0.00001164,-0.00000015,0.00000060,0.000023
 10,-0.00000006,0.00000528,0.00000283,0.,-0.00013012,0.00000831,-0.0000
 0032,0.00003268,-0.00004139,0.00000019,-0.00000617,-0.00000016,-0.0000
 0001,0.00000110,0.00000782,0.00000209,0.00000111,0.00000781,-0.0000021
 3,-0.02710644,0.00164052,-0.00006747,-0.28414393,-0.09436140,-0.000423
 92,0.31506459,-0.00018529,-0.00129407,0.00000165,-0.00008173,0.0001700
 7,-0.00000049,-0.00018222,-0.00050657,0.00000020,0.00158518,0.00045525
 ,0.00000336,0.00202338,-0.00431738,0.00001203,-0.00040072,0.00081134,-
 0.00000261,0.00013102,0.00001704,0.00000022,-0.00005200,-0.00001729,-0
 .00000004,-0.00004017,0.00005232,-0.00000015,0.00000677,-0.00000559,-0
 .00000001,-0.00000102,0.00000100,0.,0.00000185,-0.00000079,0.00000001,
 0.00000034,0.00000014,0.,-0.00000058,0.00000109,0.,-0.00000024,0.00000
 160,0.,0.00000016,-0.00000030,0.,0.00000032,-0.00000070,0.,0.00000127,
 -0.00000053,0.,0.00000003,0.00000006,0.,0.00000016,-0.00000006,0.,0.00
 018883,0.00047585,0.00000002,0.00006116,-0.00000694,0.00000019,-0.0000
 0010,-0.00000197,0.,0.00000031,0.00000059,0.,0.00000014,0.00000047,0.,
 0.00000021,-0.00000007,0.,-0.00000016,-0.00000013,0.,0.00000004,0.0000
 0002,-0.00000009,0.00000004,0.00000002,0.00000009,0.04027067,0.0044010
 7,0.00009048,-0.10779256,-0.08821164,-0.00020985,0.09475021,0.09690521
 ,-0.00000009,0.00000267,0.00032120,0.00000012,-0.00000040,-0.00006461,
 0.00000037,0.00000164,0.00000516,-0.00000548,-0.00000110,0.00022550,0.
 00000053,0.00001467,0.00058559,0.00000194,-0.00000170,-0.00046383,-0.0
 0000033,-0.00000009,-0.00004398,0.00000007,0.00000012,0.00001888,0.000
 00035,-0.00000010,-0.00000055,-0.00000014,-0.00000004,-0.00002489,0.,0
 .00000004,0.00000931,0.,-0.00000002,-0.00000205,0.00000006,0.,-0.00000
 025,0.00000002,-0.00000006,-0.00000229,-0.00000008,-0.00000007,0.00000
 183,0.00000001,0.,0.00000033,-0.00000006,0.00000006,-0.00000105,0.0000
 0021,0.00000004,0.00000099,-0.00000001,0.00000001,0.00000039,-0.000000
 01,0.,0.00000021,-0.00000069,-0.00000063,0.00018859,-0.00000026,0.0000
 0002,0.00003109,0.,0.00000006,0.00000098,0.00000001,0.,0.00000038,-0.0
 0000030,0.00000002,-0.00000050,0.00000008,-0.00000010,0.00000015,-0.00
 000001,0.,0.00000005,-0.00000009,-0.00000005,-0.00000012,0.00000009,0.
 00000009,-0.00000013,-0.00012164,-0.00000132,0.00054747,-0.00040547,-0
 .00017794,-0.05318109,0.00050906,0.00016009,0.04812669,0.00011733,-0.0
 0087740,-0.00016457,0.00002881,-0.00090095,0.00006657,0.00089570,0.000
 47531,0.00021950,-0.00130457,0.00062960,0.00058862,0.00471077,0.001381
 10,-0.00213824,-0.00181484,-0.00019666,-0.00150835,-0.00000213,0.00000
 431,-0.00005045,0.00005080,-0.00011921,-0.00013531,0.00001468,-0.00002
 378,-0.00013977,-0.00001053,0.00000529,-0.00000387,0.00001031,0.000000
 87,0.00001972,-0.00000875,0.00000054,-0.00000620,-0.00000084,-0.000000
 67,0.00000179,-0.00000170,0.00000516,-0.00000416,0.00000614,0.00000514
 ,0.00000333,-0.00000091,0.00000045,-0.00000009,0.00000548,-0.00000463,
 -0.00000250,-0.00001670,-0.00000293,-0.00000021,0.00000092,-0.00000071
 ,0.00000028,0.00000076,0.00000060,0.00000006,-0.00084293,0.00030166,0.
 00052991,-0.00000411,0.00000595,-0.00004413,-0.00000103,-0.00000475,0.
 00000337,-0.00000101,-0.00000063,0.00000048,0.00002292,-0.00000150,-0.
 00000022,-0.00000578,0.00000730,0.00000016,0.00000111,0.00000004,0.000
 00009,-0.00000027,-0.00000139,-0.00000043,-0.00000012,-0.00000136,0.00
 000028,-0.00194075,0.01993425,-0.01896452,-0.06222071,-0.02811048,0.04
 180510,-0.00238445,-0.01510303,0.02569655,0.06281795,0.00066915,0.0006
 1307,-0.00038881,0.00039367,0.00025464,0.00003011,-0.00050891,-0.00009
 032,-0.00022911,0.00130646,-0.00059685,-0.00041468,-0.00624929,-0.0004
 4444,0.00054853,-0.00033128,0.00036985,-0.00008965,0.00005034,-0.00001
 947,0.00004527,-0.00008883,0.00015040,0.00018334,-0.00022898,0.0000326
 5,0.00001162,0.00014461,-0.00001375,0.00001336,-0.00001941,0.00000393,
 -0.00001025,0.00000582,0.00000273,0.00000024,-0.00002935,-0.00000529,0
 .00000006,-0.00000840,0.00002774,0.00000114,0.00004099,0.00004158,-0.0
 0000223,-0.00000618,0.00000296,0.00000056,0.00003712,-0.00003415,-0.00
 000006,-0.00011773,-0.00002297,0.00000034,0.00000638,-0.00000512,0.000
 00051,0.00000591,0.00000459,0.00000033,0.00001648,0.00006632,0.0000494
 5,0.00006488,0.00002359,-0.00001453,-0.00000146,-0.00003061,-0.0000013
 3,-0.00000631,-0.00000269,0.00000072,0.00016865,-0.00000945,-0.0000000
 5,-0.00004147,0.00005293,0.00000070,0.00000781,0.00000002,0.00000009,-
 0.00000138,-0.00001016,-0.00000287,-0.00000136,-0.00000993,0.00000254,
 0.00984393,-0.02853501,0.02194114,-0.02500848,-0.11789994,0.10732115,-
 0.00279049,-0.00445333,0.00986381,0.02048173,0.13863891,-0.00045288,0.
 00110880,-0.00003235,-0.00011350,-0.00001934,-0.00004602,0.00021552,-0
 .00003917,-0.00001643,-0.00057212,0.00003775,-0.00021944,0.00195083,0.
 00041630,0.00054105,-0.00021183,-0.00076742,-0.00016807,-0.00002093,-0
 .00000458,0.00000800,0.00005937,-0.00008513,-0.00000602,0.00010111,-0.
 00004636,0.00001964,-0.00003605,-0.00002239,0.00000485,0.00000147,0.00
 001910,-0.00000291,0.00000010,-0.00000753,-0.00000070,0.00000657,0.000
 00111,0.00000159,0.00000417,-0.00000677,0.00000137,-0.00001154,-0.0000
 1451,0.,0.00000127,-0.00000081,-0.00000066,-0.00001086,0.00001086,0.00
 000108,0.00003270,0.00000770,-0.00000051,-0.00000129,0.00000132,-0.000
 00057,-0.00000194,-0.00000132,-0.00000054,0.00014177,-0.00049293,-0.00
 004721,-0.00003873,0.00000420,0.00000574,0.00000169,0.00001065,-0.0000
 0012,0.00000145,-0.00000007,-0.00000122,-0.00004788,0.00000102,0.00000
 072,0.00001105,-0.00001384,-0.00000082,-0.00000212,0.00000009,-0.00000
 013,0.00000043,0.00000291,0.00000082,0.00000028,0.00000253,-0.00000044
 ,-0.00594391,0.00246540,0.00753154,0.03845658,0.10971562,-0.22963279,0
 .00015224,-0.00175526,0.00191104,-0.03977446,-0.12465457,0.24104096,0.
 00011419,-0.00087172,0.00016786,0.00002857,-0.00090107,-0.00006383,0.0
 0089756,0.00047450,-0.00021653,-0.00130457,0.00062802,-0.00059540,0.00
 470967,0.00138922,0.00215349,-0.00182274,-0.00019672,0.00150082,-0.000
 00249,0.00000443,0.00005040,0.00005047,-0.00011925,0.00013589,0.000014
 49,-0.00002361,0.00013983,-0.00001070,0.00000520,0.00000370,0.00001039
 ,0.00000088,-0.00001954,-0.00000877,0.00000054,0.00000609,-0.00000082,
 -0.00000067,-0.00000178,-0.00000169,0.00000515,0.00000413,0.00000609,0
 .00000505,-0.00000333,-0.00000091,0.00000045,0.00000009,0.00000541,-0.
 00000456,0.00000254,-0.00001653,-0.00000289,0.00000016,0.00000092,-0.0
 0000071,-0.00000027,0.00000075,0.00000060,-0.00000006,-0.00083958,0.00
 029783,-0.00053438,-0.00000450,0.00000608,0.00004407,-0.00000100,-0.00
 000472,-0.00000335,-0.00000100,-0.00000063,-0.00000048,0.00002267,-0.0
 0000149,0.00000033,-0.00000572,0.00000723,-0.00000022,0.00000110,0.000
 00004,-0.00000009,-0.00000011,-0.00000135,-0.00000027,-0.00000027,-0.0
 0000138,0.00000043,-0.00205874,0.01999778,0.01886421,-0.06184041,-0.02
 769889,-0.04092640,-0.00226069,-0.01518228,-0.02567481,0.00187844,0.00
 219538,0.00610142,0.06244050,0.00066877,0.00061107,0.00039017,0.000394
 12,0.00025456,-0.00002912,-0.00051048,-0.00008962,0.00022700,0.0013062
 3,-0.00059573,0.00042165,-0.00625193,-0.00044778,-0.00057514,-0.000331
 35,0.00037227,0.00008665,0.00005062,-0.00001958,-0.00004495,-0.0000881
 5,0.00015015,-0.00018418,-0.00022922,0.00003279,-0.00001278,0.00014479
 ,-0.00001383,-0.00001252,-0.00001948,0.00000398,0.00001008,0.00000583,
 0.00000273,-0.00000021,-0.00002937,-0.00000529,-0.00000017,-0.00000841
 ,0.00002776,-0.00000128,0.00004101,0.00004163,0.00000216,-0.00000618,0
 .00000296,-0.00000059,0.00003715,-0.00003417,0.00000045,-0.00011782,-0
 .00002299,-0.00000075,0.00000639,-0.00000512,-0.00000046,0.00000591,0.
 00000459,-0.00000033,0.00001626,0.00006760,-0.00004974,0.00006492,0.00
 002362,0.00001480,-0.00000147,-0.00003063,0.00000145,-0.00000631,-0.00
 000270,-0.00000075,0.00016878,-0.00000945,0.00000087,-0.00004150,0.000
 05297,-0.00000119,0.00000782,0.00000002,-0.00000005,-0.00000135,-0.000
 00996,-0.00000249,-0.00000139,-0.00001015,0.00000292,0.00996524,-0.028
 60167,-0.02179357,-0.02460003,-0.11850207,-0.10775035,-0.00274378,-0.0
 0447577,-0.00985972,0.00211078,0.01189757,0.01412664,0.01999360,0.1393
 3025,0.00045169,-0.00111493,-0.00002764,0.00011270,0.00001419,-0.00004
 578,-0.00020971,0.00004163,-0.00001920,0.00056321,-0.00003366,-0.00022
 065,-0.00191361,-0.00040707,0.00054466,0.00020492,0.00076502,-0.000162
 02,0.00002074,0.00000468,0.00000845,-0.00005885,0.00008413,-0.00000537
 ,-0.00010049,0.00004619,0.00001980,0.00003557,0.00002250,0.00000496,-0
 .00000135,-0.00001913,-0.00000295,-0.00000016,0.00000752,-0.00000071,-
 0.00000651,-0.00000109,0.00000155,-0.00000415,0.00000672,0.00000137,0.
 00001145,0.00001441,-0.00000006,-0.00000125,0.00000080,-0.00000066,0.0
 0001078,-0.00001078,0.00000122,-0.00003245,-0.00000765,-0.00000061,0.0
 0000128,-0.00000131,-0.00000056,0.00000193,0.00000130,-0.00000054,-0.0
 0014560,0.00049412,-0.00005162,0.00003851,-0.00000422,0.00000610,-0.00
 000169,-0.00001059,-0.00000011,-0.00000143,0.00000007,-0.00000124,0.00
 004751,-0.00000100,0.00000094,-0.00001096,0.00001372,-0.00000095,0.000
 00210,-0.00000009,-0.00000012,-0.00000027,-0.00000251,-0.00000042,-0.0
 0000043,-0.00000288,0.00000083,0.00587096,-0.00226983,0.00771776,-0.03
 758680,-0.11015907,-0.22941395,-0.00016460,0.00170015,0.00180952,-0.00
 599831,-0.01420686,-0.02089146,0.03886530,0.12503550,0.24072945\\-0.00
 001868,-0.00001045,-0.00000077,-0.00001801,0.00003027,0.00000163,-0.00
 000055,-0.00001391,-0.00000034,0.00000528,-0.00000510,0.00000050,0.000
 00572,0.00001824,0.00000177,0.00000262,0.00000073,0.00000004,-0.000000
 34,0.00000115,-0.00000011,0.,-0.00000023,-0.00000053,-0.00000034,-0.00
 000563,0.00000331,-0.00001173,-0.00000176,-0.00000956,0.00001421,0.000
 00117,0.00000857,-0.00000153,0.00000897,-0.00000335,0.00001581,-0.0000
 3720,0.00000044,-0.00003015,0.00001635,0.00000006,0.00002316,0.0000133
 2,0.00000055,0.00000515,-0.00000171,-0.00000023,-0.00000914,0.00000763
 ,-0.00000017,-0.00000386,-0.00002356,-0.00000104,-0.00000230,-0.000001
 43,-0.00000029,0.00000057,0.00000005,-0.00000045,0.00002733,-0.0000143
 8,-0.00000063,-0.00000472,0.00000152,-0.00000014,0.00000454,0.00001660
 ,0.00000041,-0.00000020,-0.00000131,-0.00000005,-0.00000482,0.00001417
 ,0.00000177,0.00000781,-0.00001436,-0.00000017,-0.00000032,0.00000189,
 -0.00000013,-0.00000110,0.00000197,-0.00000029,-0.00000057,0.00000223,
 0.00000006,0.00000345,-0.00001301,-0.00000100,-0.00000859,0.00001387,-
 0.00000172,0.00000035,-0.00000182,0.00000068,0.00000039,-0.00000230,0.
 00000038,0.00000058,-0.00000197,0.00000080\\\@


 MODELS ARE TO BE USED, NOT BELIEVED.

    -- PARAPHRASED BY H. THIEL IN "PRINCIPLES OF ECONOMETRICS"
 Job cpu time:       0 days  3 hours 47 minutes 39.0 seconds.
 Elapsed time:       0 days  0 hours  7 minutes 35.4 seconds.
 File lengths (MBytes):  RWF=    588 Int=      0 D2E=      0 Chk=     15 Scr=      1
 Normal termination of Gaussian 16 at Mon Sep 18 07:02:08 2023.
