 Entering Gaussian System, Link 0=/home/ubuntu/g16/g16
 Input=/home/ubuntu/ml products/molecule_70.gjf
 Output=/home/ubuntu/ml products/molecule_70.log
 Initial command:
 /home/ubuntu/g16/l1.exe "/home/ubuntu/Scratch/Gau-58784.inp" -scrdir="/home/ubuntu/Scratch/"
 Entering Link 1 = /home/ubuntu/g16/l1.exe PID=     58786.
  
 Copyright (c) 1988-2017, Gaussian, Inc.  All Rights Reserved.
  
 This is part of the Gaussian(R) 16 program.  It is based on
 the Gaussian(R) 09 system (copyright 2009, Gaussian, Inc.),
 the Gaussian(R) 03 system (copyright 2003, Gaussian, Inc.),
 the Gaussian(R) 98 system (copyright 1998, Gaussian, Inc.),
 the Gaussian(R) 94 system (copyright 1995, Gaussian, Inc.),
 the Gaussian 92(TM) system (copyright 1992, Gaussian, Inc.),
 the Gaussian 90(TM) system (copyright 1990, Gaussian, Inc.),
 the Gaussian 88(TM) system (copyright 1988, Gaussian, Inc.),
 the Gaussian 86(TM) system (copyright 1986, Carnegie Mellon
 University), and the Gaussian 82(TM) system (copyright 1983,
 Carnegie Mellon University). Gaussian is a federally registered
 trademark of Gaussian, Inc.
  
 This software contains proprietary and confidential information,
 including trade secrets, belonging to Gaussian, Inc.
  
 This software is provided under written license and may be
 used, copied, transmitted, or stored only in accord with that
 written license.
  
 The following legend is applicable only to US Government
 contracts under FAR:
  
                    RESTRICTED RIGHTS LEGEND
  
 Use, reproduction and disclosure by the US Government is
 subject to restrictions as set forth in subparagraphs (a)
 and (c) of the Commercial Computer Software - Restricted
 Rights clause in FAR 52.227-19.
  
 Gaussian, Inc.
 340 Quinnipiac St., Bldg. 40, Wallingford CT 06492
  
  
 ---------------------------------------------------------------
 Warning -- This program may not be used in any manner that
 competes with the business of Gaussian, Inc. or will provide
 assistance to any competitor of Gaussian, Inc.  The licensee
 of this program is prohibited from giving any competitor of
 Gaussian, Inc. access to this program.  By using this program,
 the user acknowledges that Gaussian, Inc. is engaged in the
 business of creating and licensing software in the field of
 computational chemistry and represents and warrants to the
 licensee that it is not a competitor of Gaussian, Inc. and that
 it will not use this program in any manner prohibited above.
 ---------------------------------------------------------------
  

 Cite this work as:
 Gaussian 16, Revision B.01,
 M. J. Frisch, G. W. Trucks, H. B. Schlegel, G. E. Scuseria, 
 M. A. Robb, J. R. Cheeseman, G. Scalmani, V. Barone, 
 G. A. Petersson, H. Nakatsuji, X. Li, M. Caricato, A. V. Marenich, 
 J. Bloino, B. G. Janesko, R. Gomperts, B. Mennucci, H. P. Hratchian, 
 J. V. Ortiz, A. F. Izmaylov, J. L. Sonnenberg, D. Williams-Young, 
 F. Ding, F. Lipparini, F. Egidi, J. Goings, B. Peng, A. Petrone, 
 T. Henderson, D. Ranasinghe, V. G. Zakrzewski, J. Gao, N. Rega, 
 G. Zheng, W. Liang, M. Hada, M. Ehara, K. Toyota, R. Fukuda, 
 J. Hasegawa, M. Ishida, T. Nakajima, Y. Honda, O. Kitao, H. Nakai, 
 T. Vreven, K. Throssell, J. A. Montgomery, Jr., J. E. Peralta, 
 F. Ogliaro, M. J. Bearpark, J. J. Heyd, E. N. Brothers, K. N. Kudin, 
 V. N. Staroverov, T. A. Keith, R. Kobayashi, J. Normand, 
 K. Raghavachari, A. P. Rendell, J. C. Burant, S. S. Iyengar, 
 J. Tomasi, M. Cossi, J. M. Millam, M. Klene, C. Adamo, R. Cammi, 
 J. W. Ochterski, R. L. Martin, K. Morokuma, O. Farkas, 
 J. B. Foresman, and D. J. Fox, Gaussian, Inc., Wallingford CT, 2016.
 
 ******************************************
 Gaussian 16:  EM64L-G16RevB.01 20-Dec-2017
                16-Sep-2023 
 ******************************************
 %nprocshared=30
 Will use up to   30 processors via shared memory.
 %mem=30GB
 %chk=molecule_70.chk
 ---------------------------------------------------------
 # opt freq b3lyp/6-31+g(d) empiricaldispersion=gd3 volume
 ---------------------------------------------------------
 1/18=20,19=15,26=3,38=1/1,3;
 2/9=110,12=2,17=6,18=5,40=1/2;
 3/5=1,6=6,7=11,11=2,25=1,30=1,71=1,74=-5,124=31/1,2,3;
 4//1;
 5/5=2,38=5/2;
 6/7=2,8=2,9=2,10=2,28=1,44=1/1,4;
 7//1,2,3,16;
 1/18=20,19=15,26=3/3(2);
 2/9=110/2;
 99//99;
 2/9=110/2;
 3/5=1,6=6,7=11,11=2,25=1,30=1,71=1,74=-5,124=31/1,2,3;
 4/5=5,16=3,69=1/1;
 5/5=2,38=5/2;
 7//1,2,3,16;
 1/18=20,19=15,26=3/3(-5);
 2/9=110/2;
 6/7=2,8=2,9=2,10=2,19=2,28=1,44=1/1,4;
 99/9=1/99;
 -------------------
 Title Card Required
 -------------------
 Symbolic Z-matrix:
 Charge =  0 Multiplicity = 1
 C                    -4.0444   -1.04276   1.16763 
 C                    -3.17754  -0.6167   -0.03935 
 C                    -3.93614  -0.37874  -1.39252 
 C                    -5.29425  -0.09891  -1.38207 
 C                    -6.42938  -0.55502  -0.35116 
 H                    -3.47246  -0.50674  -2.34975 
 H                    -5.76492   0.4446   -2.18365 
 C                    -1.64082  -0.50761  -0.01838 
 C                    -0.46446  -0.45456   0.00112 
 C                     1.05193  -0.39409   0.04191 
 C                     1.76802  -0.45432   1.25982 
 C                     1.7624   -0.34975  -1.15971 
 C                     3.17338  -0.48062   1.25346 
 H                     1.25253  -0.4593    2.18687 
 C                     3.15936  -0.42106  -1.16916 
 H                     1.24056  -0.27901  -2.08122 
 C                     3.86148  -0.46533   0.02097 
 H                     3.72461  -0.51973   2.17498 
 H                     3.69505  -0.45116  -2.10897 
 C                     5.39705  -0.49988   0.01005 
 H                     5.73786  -1.51556   0.00602 
 H                     5.74972   0.00132  -0.85791 
 H                     5.77079  -0.01103   0.88871 
 C                    -7.76077   0.22023  -0.30878 
 H                    -7.76541   1.15381   0.20661 
 H                    -8.33143   0.3349   -1.21469 
 H                    -8.19487  -0.52819   0.31173 
 C                    -3.16184  -1.5349    2.31647 
 H                    -2.54993  -2.34082   2.00564 
 H                    -2.53099  -0.71236   2.63511 
 H                    -3.77904  -1.8292    3.13959 
 H                    -4.62193  -0.20563   1.50014 
 H                    -6.49315  -1.60486  -0.5478 
 H                    -5.83261  -0.43641   0.52901 
 H                    -4.7043   -1.82981   0.86765 
 H                    -3.06433  -1.65111  -0.2885 
 

 GradGradGradGradGradGradGradGradGradGradGradGradGradGradGradGradGradGrad
 Berny optimization.
 Initialization pass.
                           ----------------------------
                           !    Initial Parameters    !
                           ! (Angstroms and Degrees)  !
 --------------------------                            --------------------------
 ! Name  Definition              Value          Derivative Info.                !
 --------------------------------------------------------------------------------
 ! R1    R(1,2)                  1.5459         estimate D2E/DX2                !
 ! R2    R(1,28)                 1.53           estimate D2E/DX2                !
 ! R3    R(1,32)                 1.07           estimate D2E/DX2                !
 ! R4    R(1,35)                 1.07           estimate D2E/DX2                !
 ! R5    R(2,3)                  1.5695         estimate D2E/DX2                !
 ! R6    R(2,8)                  1.5407         estimate D2E/DX2                !
 ! R7    R(2,36)                 1.07           estimate D2E/DX2                !
 ! R8    R(3,4)                  1.3867         estimate D2E/DX2                !
 ! R9    R(3,6)                  1.0713         estimate D2E/DX2                !
 ! R10   R(4,5)                  1.5998         estimate D2E/DX2                !
 ! R11   R(4,7)                  1.0768         estimate D2E/DX2                !
 ! R12   R(5,24)                 1.5412         estimate D2E/DX2                !
 ! R13   R(5,33)                 1.07           estimate D2E/DX2                !
 ! R14   R(5,34)                 1.07           estimate D2E/DX2                !
 ! R15   R(8,9)                  1.1777         estimate D2E/DX2                !
 ! R16   R(9,10)                 1.5182         estimate D2E/DX2                !
 ! R17   R(10,11)                1.4141         estimate D2E/DX2                !
 ! R18   R(10,12)                1.3966         estimate D2E/DX2                !
 ! R19   R(11,13)                1.4056         estimate D2E/DX2                !
 ! R20   R(11,14)                1.0607         estimate D2E/DX2                !
 ! R21   R(12,15)                1.3988         estimate D2E/DX2                !
 ! R22   R(12,16)                1.0614         estimate D2E/DX2                !
 ! R23   R(13,17)                1.4116         estimate D2E/DX2                !
 ! R24   R(13,18)                1.0745         estimate D2E/DX2                !
 ! R25   R(15,17)                1.3825         estimate D2E/DX2                !
 ! R26   R(15,19)                1.0822         estimate D2E/DX2                !
 ! R27   R(17,20)                1.536          estimate D2E/DX2                !
 ! R28   R(20,21)                1.0713         estimate D2E/DX2                !
 ! R29   R(20,22)                1.0625         estimate D2E/DX2                !
 ! R30   R(20,23)                1.0727         estimate D2E/DX2                !
 ! R31   R(24,25)                1.0664         estimate D2E/DX2                !
 ! R32   R(24,26)                1.0768         estimate D2E/DX2                !
 ! R33   R(24,27)                1.0647         estimate D2E/DX2                !
 ! R34   R(28,29)                1.0586         estimate D2E/DX2                !
 ! R35   R(28,30)                1.0845         estimate D2E/DX2                !
 ! R36   R(28,31)                1.0701         estimate D2E/DX2                !
 ! A1    A(2,1,28)             110.5756         estimate D2E/DX2                !
 ! A2    A(2,1,32)             109.2484         estimate D2E/DX2                !
 ! A3    A(2,1,35)             109.2484         estimate D2E/DX2                !
 ! A4    A(28,1,32)            109.2484         estimate D2E/DX2                !
 ! A5    A(28,1,35)            109.2484         estimate D2E/DX2                !
 ! A6    A(32,1,35)            109.252          estimate D2E/DX2                !
 ! A7    A(1,2,3)              116.3542         estimate D2E/DX2                !
 ! A8    A(1,2,8)              124.6231         estimate D2E/DX2                !
 ! A9    A(1,2,36)              88.5494         estimate D2E/DX2                !
 ! A10   A(3,2,8)              118.8881         estimate D2E/DX2                !
 ! A11   A(3,2,36)              89.8255         estimate D2E/DX2                !
 ! A12   A(8,2,36)              88.0569         estimate D2E/DX2                !
 ! A13   A(2,3,4)              119.8344         estimate D2E/DX2                !
 ! A14   A(2,3,6)              122.8926         estimate D2E/DX2                !
 ! A15   A(4,3,6)              117.0492         estimate D2E/DX2                !
 ! A16   A(3,4,5)              129.96           estimate D2E/DX2                !
 ! A17   A(3,4,7)              121.6247         estimate D2E/DX2                !
 ! A18   A(5,4,7)              108.2681         estimate D2E/DX2                !
 ! A19   A(4,5,24)             119.16           estimate D2E/DX2                !
 ! A20   A(4,5,33)             101.7472         estimate D2E/DX2                !
 ! A21   A(4,5,34)              95.897          estimate D2E/DX2                !
 ! A22   A(24,5,33)            116.5574         estimate D2E/DX2                !
 ! A23   A(24,5,34)            113.7921         estimate D2E/DX2                !
 ! A24   A(33,5,34)            107.048          estimate D2E/DX2                !
 ! A25   A(9,10,11)            121.8196         estimate D2E/DX2                !
 ! A26   A(9,10,12)            119.0945         estimate D2E/DX2                !
 ! A27   A(11,10,12)           118.9961         estimate D2E/DX2                !
 ! A28   A(10,11,13)           120.2113         estimate D2E/DX2                !
 ! A29   A(10,11,14)           120.452          estimate D2E/DX2                !
 ! A30   A(13,11,14)           119.324          estimate D2E/DX2                !
 ! A31   A(10,12,15)           120.8114         estimate D2E/DX2                !
 ! A32   A(10,12,16)           119.934          estimate D2E/DX2                !
 ! A33   A(15,12,16)           119.2451         estimate D2E/DX2                !
 ! A34   A(11,13,17)           119.4132         estimate D2E/DX2                !
 ! A35   A(11,13,18)           120.6444         estimate D2E/DX2                !
 ! A36   A(17,13,18)           119.9407         estimate D2E/DX2                !
 ! A37   A(12,15,17)           120.1986         estimate D2E/DX2                !
 ! A38   A(12,15,19)           120.109          estimate D2E/DX2                !
 ! A39   A(17,15,19)           119.6899         estimate D2E/DX2                !
 ! A40   A(13,17,15)           120.2907         estimate D2E/DX2                !
 ! A41   A(13,17,20)           119.556          estimate D2E/DX2                !
 ! A42   A(15,17,20)           120.1532         estimate D2E/DX2                !
 ! A43   A(17,20,21)           109.8396         estimate D2E/DX2                !
 ! A44   A(17,20,22)           109.0878         estimate D2E/DX2                !
 ! A45   A(17,20,23)           109.4043         estimate D2E/DX2                !
 ! A46   A(21,20,22)           109.7884         estimate D2E/DX2                !
 ! A47   A(21,20,23)           108.9227         estimate D2E/DX2                !
 ! A48   A(22,20,23)           109.7859         estimate D2E/DX2                !
 ! A49   A(5,24,25)            117.2193         estimate D2E/DX2                !
 ! A50   A(5,24,26)            119.2252         estimate D2E/DX2                !
 ! A51   A(5,24,27)             90.8395         estimate D2E/DX2                !
 ! A52   A(25,24,26)           108.1234         estimate D2E/DX2                !
 ! A53   A(25,24,27)           109.3868         estimate D2E/DX2                !
 ! A54   A(26,24,27)           110.432          estimate D2E/DX2                !
 ! A55   A(1,28,29)            110.9684         estimate D2E/DX2                !
 ! A56   A(1,28,30)            108.1921         estimate D2E/DX2                !
 ! A57   A(1,28,31)            109.4712         estimate D2E/DX2                !
 ! A58   A(29,28,30)           109.1153         estimate D2E/DX2                !
 ! A59   A(29,28,31)           110.4804         estimate D2E/DX2                !
 ! A60   A(30,28,31)           108.5485         estimate D2E/DX2                !
 ! A61   L(2,8,9,29,-1)        178.9016         estimate D2E/DX2                !
 ! A62   L(8,9,10,30,-1)       179.3913         estimate D2E/DX2                !
 ! A63   L(2,8,9,29,-2)        178.9323         estimate D2E/DX2                !
 ! A64   L(8,9,10,30,-2)       179.6742         estimate D2E/DX2                !
 ! D1    D(28,1,2,3)           167.4825         estimate D2E/DX2                !
 ! D2    D(28,1,2,8)            -8.2386         estimate D2E/DX2                !
 ! D3    D(28,1,2,36)           78.3961         estimate D2E/DX2                !
 ! D4    D(32,1,2,3)           -72.2488         estimate D2E/DX2                !
 ! D5    D(32,1,2,8)           112.0301         estimate D2E/DX2                !
 ! D6    D(32,1,2,36)         -161.3352         estimate D2E/DX2                !
 ! D7    D(35,1,2,3)            47.2138         estimate D2E/DX2                !
 ! D8    D(35,1,2,8)          -128.5073         estimate D2E/DX2                !
 ! D9    D(35,1,2,36)          -41.8726         estimate D2E/DX2                !
 ! D10   D(2,1,28,29)          -57.5294         estimate D2E/DX2                !
 ! D11   D(2,1,28,30)           62.1459         estimate D2E/DX2                !
 ! D12   D(2,1,28,31)         -179.7325         estimate D2E/DX2                !
 ! D13   D(32,1,28,29)        -177.7981         estimate D2E/DX2                !
 ! D14   D(32,1,28,30)         -58.1228         estimate D2E/DX2                !
 ! D15   D(32,1,28,31)          59.9988         estimate D2E/DX2                !
 ! D16   D(35,1,28,29)          62.7393         estimate D2E/DX2                !
 ! D17   D(35,1,28,30)        -177.5854         estimate D2E/DX2                !
 ! D18   D(35,1,28,31)         -59.4638         estimate D2E/DX2                !
 ! D19   D(1,2,3,4)             22.0776         estimate D2E/DX2                !
 ! D20   D(1,2,3,6)           -152.324          estimate D2E/DX2                !
 ! D21   D(8,2,3,4)           -161.9435         estimate D2E/DX2                !
 ! D22   D(8,2,3,6)             23.6548         estimate D2E/DX2                !
 ! D23   D(36,2,3,4)           110.3722         estimate D2E/DX2                !
 ! D24   D(36,2,3,6)           -64.0294         estimate D2E/DX2                !
 ! D25   D(1,2,10,11)          -12.6034         estimate D2E/DX2                !
 ! D26   D(1,2,10,12)          163.0812         estimate D2E/DX2                !
 ! D27   D(3,2,10,11)          172.9312         estimate D2E/DX2                !
 ! D28   D(3,2,10,12)          -11.3842         estimate D2E/DX2                !
 ! D29   D(36,2,10,11)         -98.899          estimate D2E/DX2                !
 ! D30   D(36,2,10,12)          76.7856         estimate D2E/DX2                !
 ! D31   D(2,3,4,5)            -30.0765         estimate D2E/DX2                !
 ! D32   D(2,3,4,7)            154.879          estimate D2E/DX2                !
 ! D33   D(6,3,4,5)            144.6462         estimate D2E/DX2                !
 ! D34   D(6,3,4,7)            -30.3983         estimate D2E/DX2                !
 ! D35   D(3,4,5,24)           161.5179         estimate D2E/DX2                !
 ! D36   D(3,4,5,33)           -68.7676         estimate D2E/DX2                !
 ! D37   D(3,4,5,34)            40.0476         estimate D2E/DX2                !
 ! D38   D(7,4,5,24)           -22.9246         estimate D2E/DX2                !
 ! D39   D(7,4,5,33)           106.7899         estimate D2E/DX2                !
 ! D40   D(7,4,5,34)          -144.3949         estimate D2E/DX2                !
 ! D41   D(4,5,24,25)          -78.2652         estimate D2E/DX2                !
 ! D42   D(4,5,24,26)           55.2528         estimate D2E/DX2                !
 ! D43   D(4,5,24,27)          169.3481         estimate D2E/DX2                !
 ! D44   D(33,5,24,25)         159.0829         estimate D2E/DX2                !
 ! D45   D(33,5,24,26)         -67.399          estimate D2E/DX2                !
 ! D46   D(33,5,24,27)          46.6962         estimate D2E/DX2                !
 ! D47   D(34,5,24,25)          33.7331         estimate D2E/DX2                !
 ! D48   D(34,5,24,26)         167.2511         estimate D2E/DX2                !
 ! D49   D(34,5,24,27)         -78.6536         estimate D2E/DX2                !
 ! D50   D(9,10,11,13)         175.973          estimate D2E/DX2                !
 ! D51   D(9,10,11,14)          -5.3312         estimate D2E/DX2                !
 ! D52   D(12,10,11,13)         -0.5477         estimate D2E/DX2                !
 ! D53   D(12,10,11,14)        178.1481         estimate D2E/DX2                !
 ! D54   D(9,10,12,15)        -173.907          estimate D2E/DX2                !
 ! D55   D(9,10,12,16)           4.9625         estimate D2E/DX2                !
 ! D56   D(11,10,12,15)          2.7099         estimate D2E/DX2                !
 ! D57   D(11,10,12,16)       -178.4206         estimate D2E/DX2                !
 ! D58   D(10,11,13,17)         -0.8831         estimate D2E/DX2                !
 ! D59   D(10,11,13,18)        179.5891         estimate D2E/DX2                !
 ! D60   D(14,11,13,17)       -179.5936         estimate D2E/DX2                !
 ! D61   D(14,11,13,18)          0.8786         estimate D2E/DX2                !
 ! D62   D(10,12,15,17)         -3.4448         estimate D2E/DX2                !
 ! D63   D(10,12,15,19)        175.983          estimate D2E/DX2                !
 ! D64   D(16,12,15,17)        177.678          estimate D2E/DX2                !
 ! D65   D(16,12,15,19)         -2.8942         estimate D2E/DX2                !
 ! D66   D(11,13,17,15)          0.1815         estimate D2E/DX2                !
 ! D67   D(11,13,17,20)       -179.7465         estimate D2E/DX2                !
 ! D68   D(18,13,17,15)        179.7127         estimate D2E/DX2                !
 ! D69   D(18,13,17,20)         -0.2154         estimate D2E/DX2                !
 ! D70   D(12,15,17,13)          1.9607         estimate D2E/DX2                !
 ! D71   D(12,15,17,20)       -178.1117         estimate D2E/DX2                !
 ! D72   D(19,15,17,13)       -177.4695         estimate D2E/DX2                !
 ! D73   D(19,15,17,20)          2.4581         estimate D2E/DX2                !
 ! D74   D(13,17,20,21)         88.646          estimate D2E/DX2                !
 ! D75   D(13,17,20,22)       -150.976          estimate D2E/DX2                !
 ! D76   D(13,17,20,23)        -30.8659         estimate D2E/DX2                !
 ! D77   D(15,17,20,21)        -91.2821         estimate D2E/DX2                !
 ! D78   D(15,17,20,22)         29.0958         estimate D2E/DX2                !
 ! D79   D(15,17,20,23)        149.2059         estimate D2E/DX2                !
 --------------------------------------------------------------------------------
 Trust Radius=3.00D-01 FncErr=1.00D-07 GrdErr=1.00D-06 EigMax=2.50D+02 EigMin=1.00D-04
 Number of steps in this run=    189 maximum allowed number of steps=    216.
 GradGradGradGradGradGradGradGradGradGradGradGradGradGradGradGradGradGrad

                          Input orientation:                          
 ---------------------------------------------------------------------
 Center     Atomic      Atomic             Coordinates (Angstroms)
 Number     Number       Type             X           Y           Z
 ---------------------------------------------------------------------
      1          6           0       -4.044398   -1.042761    1.167634
      2          6           0       -3.177538   -0.616698   -0.039350
      3          6           0       -3.936144   -0.378738   -1.392524
      4          6           0       -5.294247   -0.098906   -1.382070
      5          6           0       -6.429378   -0.555016   -0.351156
      6          1           0       -3.472460   -0.506743   -2.349753
      7          1           0       -5.764922    0.444601   -2.183653
      8          6           0       -1.640820   -0.507612   -0.018375
      9          6           0       -0.464464   -0.454563    0.001123
     10          6           0        1.051934   -0.394094    0.041913
     11          6           0        1.768020   -0.454322    1.259822
     12          6           0        1.762395   -0.349747   -1.159709
     13          6           0        3.173378   -0.480621    1.253460
     14          1           0        1.252529   -0.459303    2.186874
     15          6           0        3.159356   -0.421057   -1.169162
     16          1           0        1.240558   -0.279014   -2.081218
     17          6           0        3.861476   -0.465326    0.020974
     18          1           0        3.724607   -0.519734    2.174975
     19          1           0        3.695052   -0.451160   -2.108973
     20          6           0        5.397051   -0.499885    0.010053
     21          1           0        5.737864   -1.515560    0.006024
     22          1           0        5.749716    0.001322   -0.857911
     23          1           0        5.770788   -0.011026    0.888709
     24          6           0       -7.760769    0.220228   -0.308781
     25          1           0       -7.765408    1.153808    0.206606
     26          1           0       -8.331429    0.334898   -1.214691
     27          1           0       -8.194868   -0.528192    0.311732
     28          6           0       -3.161837   -1.534900    2.316466
     29          1           0       -2.549932   -2.340823    2.005638
     30          1           0       -2.530989   -0.712360    2.635106
     31          1           0       -3.779039   -1.829201    3.139587
     32          1           0       -4.621928   -0.205625    1.500144
     33          1           0       -6.493148   -1.604856   -0.547798
     34          1           0       -5.832608   -0.436409    0.529013
     35          1           0       -4.704298   -1.829808    0.867652
     36          1           0       -3.064333   -1.651111   -0.288498
 ---------------------------------------------------------------------
                    Distance matrix (angstroms):
                    1          2          3          4          5
     1  C    0.000000
     2  C    1.545894   0.000000
     3  C    2.647085   1.569455   0.000000
     4  C    2.992320   2.559583   1.386671   0.000000
     5  C    2.869276   3.267337   2.707718   1.599795   0.000000
     6  H    3.603671   2.331745   1.071296   2.102771   3.569325
     7  H    4.050133   3.524053   2.155969   1.076787   2.190612
     8  C    2.733166   1.540728   2.678322   3.920999   4.800341
     9  C    3.810860   2.718215   3.741733   5.036518   5.976151
    10  C    5.259336   4.236105   5.190257   6.510674   7.493358
    11  C    5.842856   5.115931   6.291116   7.548610   8.354802
    12  C    6.294097   5.072416   5.703367   7.064599   8.234139
    13  C    7.240142   6.482592   7.586627   8.876508   9.736182
    14  H    5.425561   4.960478   6.304040   7.465087   8.090887
    15  C    7.598763   6.439796   7.099140   8.462417   9.624494
    16  H    6.250529   4.878814   5.223264   6.574566   7.867477
    17  C    8.009439   7.040900   7.925172   9.269847  10.297970
    18  H    7.851480   7.249292   8.451866   9.704092  10.463555
    19  H    8.425274   7.179362   7.665096   9.025517  10.276419
    20  C    9.527627   8.575527   9.438772  10.789005  11.832072
    21  H    9.862329   8.960714   9.840464  11.208977  12.210323
    22  H   10.055725   8.985980   9.708045  11.056848  12.202320
    23  H    9.873204   9.016688   9.978165  11.295980  12.275066
    24  C    4.193609   4.666803   4.020077   2.708787   1.541234
    25  H    4.426557   4.923793   4.423706   3.193716   2.239677
    26  H    5.094316   5.371178   4.456392   3.072568   2.270559
    27  H    4.268929   5.030378   4.589505   3.386275   1.886027
    28  C    1.530009   2.528479   3.961422   4.504267   4.330496
    29  H    2.149568   2.747448   4.161594   4.902450   4.877876
    30  H    2.133787   2.753160   4.278734   4.914227   4.913242
    31  H    2.139509   3.455084   4.761150   5.072983   4.564332
    32  H    1.070000   2.150648   2.977884   2.961513   2.610796
    33  H    3.042209   3.496891   2.958918   2.097919   1.070000
    34  H    1.993287   2.721201   2.700408   2.013947   1.070000
    35  H    1.070000   2.150648   2.793575   2.899192   2.467081
    36  H    1.857670   1.070000   1.896803   2.928781   3.539615
                    6          7          8          9         10
     6  H    0.000000
     7  H    2.487574   0.000000
     8  C    2.964832   4.754299   0.000000
     9  C    3.818034   5.803154   1.177713   0.000000
    10  C    5.118877   7.219839   2.695819   1.518151   0.000000
    11  C    6.363522   8.331314   3.640991   2.562871   1.414110
    12  C    5.370714   7.638060   3.592970   2.513448   1.396646
    13  C    7.559827   9.620966   4.979437   3.847456   2.444556
    14  H    6.550478   8.316440   3.638259   2.779496   2.155307
    15  C    6.736625   9.023374   4.936951   3.808248   2.430773
    16  H    4.726152   7.043498   3.551044   2.697046   2.134598
    17  C    7.707703   9.917454   5.502599   4.325999   2.810523
    18  H    8.501242  10.487075   5.796442   4.719979   3.421830
    19  H    7.171771   9.502583   5.731083   4.664128   3.408173
    20  C    9.178069  11.414642   7.037932   5.861697   4.346522
    21  H    9.560202  11.872279   7.447249   6.292425   4.818393
    22  H    9.355867  11.599180   7.455457   6.289817   4.799499
    23  H    9.806682  11.946532   7.483404   6.313708   4.809511
    24  C    4.804544   2.747525   6.169916   7.333993   8.841047
    25  H    5.265149   3.196600   6.349922   7.478827   8.953694
    26  H    5.060267   2.745519   6.848740   7.999412   9.495155
    27  H    5.420803   3.616339   6.562389   7.736992   9.251710
    28  C    4.788235   5.562872   2.969898   3.715341   4.922488
    29  H    4.815012   5.970335   2.878155   3.453293   4.540859
    30  H    5.077152   5.917543   2.806294   3.357805   4.434329
    31  H    5.654709   6.119705   4.036249   4.767179   5.915523
    32  H    4.029101   3.911469   3.359182   4.426459   5.861285
    33  H    3.684759   2.721509   5.002932   6.161941   7.664331
    34  H    3.723243   2.852949   4.227977   5.394067   6.901881
    35  H    3.690477   3.950737   3.452267   4.540745   5.989768
    36  H    2.392681   3.908555   1.845792   2.876617   4.316586
                   11         12         13         14         15
    11  C    0.000000
    12  C    2.421797   0.000000
    13  C    1.405619   2.798461   0.000000
    14  H    1.060745   3.386973   2.135738   0.000000
    15  C    2.799444   1.398811   2.423394   3.860107   0.000000
    16  H    3.386960   1.061365   3.859600   4.271915   2.129274
    17  C    2.432576   2.411123   1.411642   3.390835   1.382519
    18  H    2.161023   3.872892   1.074511   2.472845   3.393007
    19  H    3.881011   2.155585   3.402788   4.941689   1.082184
    20  C    3.838472   3.821205   2.547774   4.681587   2.530621
    21  H    4.296266   4.303766   3.033774   5.098040   3.037714
    22  H    4.532804   4.014107   3.365661   5.450466   2.642962
    23  H    4.044304   4.514196   2.664602   4.722377   3.350006
    24  C    9.680565   9.578080  11.067400   9.377079  10.972722
    25  H    9.725306   9.741998  11.109648   9.372661  11.123101
    26  H   10.428084  10.117166  11.794804  10.200669  11.515714
    27  H   10.008170  10.066980  11.407284   9.631938  11.450892
    28  C    5.156319   6.142999   6.509718   4.545364   7.303952
    29  H    4.770727   5.707887   6.064849   4.246372   6.808878
    30  H    4.521002   5.741538   5.873878   3.818371   6.851082
    31  H    6.016117   7.168000   7.328863   5.301034   8.287913
    32  H    6.399300   6.917744   7.804055   5.919899   8.229215
    33  H    8.534525   8.372797   9.896977   8.293747   9.744655
    34  H    7.635701   7.780962   9.035184   7.276551   9.150925
    35  H    6.628473   6.936779   8.001683   6.253193   8.244407
    36  H    5.213562   5.074432   6.531211   5.116950   6.404912
                   16         17         18         19         20
    16  H    0.000000
    17  C    3.364987   0.000000
    18  H    4.933926   2.159030   0.000000
    19  H    2.460680   2.136487   4.284599   0.000000
    20  C    4.658179   1.536002   2.735754   2.718354   0.000000
    21  H    5.109930   2.150359   3.122374   3.127178   1.071338
    22  H    4.680553   2.134396   3.683879   2.447762   1.062517
    23  H    5.423585   2.145886   2.469842   3.672669   1.072707
    24  C    9.187745  11.647116  11.774144  11.615821  13.181367
    25  H    9.401836  11.740549  11.776912  11.801693  13.267390
    26  H    9.630715  12.281456  12.552619  12.085275  13.808259
    27  H    9.737328  12.060014  12.064230  12.134082  13.595296
    28  C    6.348066   7.465936   6.962305   8.232614   8.924425
    29  H    5.943169   6.968683   6.535663   7.713668   8.397973
    30  H    6.054425   6.910739   6.275453   7.831864   8.354033
    31  H    7.406499   8.364411   7.677883   9.236255   9.785790
    32  H    6.870246   8.615308   8.379661   9.069629  10.133454
    33  H    7.994963  10.432654  10.629841  10.371485  11.954455
    34  H    7.541071   9.707430   9.698272   9.886126  11.241823
    35  H    6.814844   8.714997   8.629706   9.017209  10.224550
    36  H    4.860924   7.033398   7.310159   7.102345   8.544558
                   21         22         23         24         25
    21  H    0.000000
    22  H    1.745696   0.000000
    23  H    1.744660   1.746792   0.000000
    24  C   13.613418  13.523411  13.586409   0.000000
    25  H   13.766049  13.605880  13.603334   1.066403   0.000000
    26  H   14.242870  14.089613  14.262415   1.076789   1.735246
    27  H   13.971019  14.003566  13.987134   1.064711   1.739141
    28  C    9.194737   9.583966   9.173465   5.578761   5.733544
    29  H    8.565459   9.086788   8.712627   6.250467   6.530708
    30  H    8.713847   9.015574   8.512419   6.073450   6.064597
    31  H   10.024421  10.494187   9.978547   5.652042   5.778569
    32  H   10.548631  10.638338  10.412506   3.647723   3.660979
    33  H   12.243870  12.351667  12.450220   2.234933   3.130175
    34  H   11.632450  11.673276  11.616761   2.202471   2.523579
    35  H   10.482361  10.752535  10.631832   3.863762   4.325429
    36  H    8.808166   8.985667   9.062840   5.055574   5.496617
                   26         27         28         29         30
    26  H    0.000000
    27  H    1.758846   0.000000
    28  C    6.533750   5.510338   0.000000
    29  H    7.138326   6.166057   1.058562   0.000000
    30  H    7.040085   6.124665   1.084469   1.745990   0.000000
    31  H    6.660880   5.402679   1.070084   1.748799   1.749132
    32  H    4.628487   3.779190   2.136637   3.017906   2.432477
    33  H    2.754391   2.189486   4.393920   4.755064   5.160052
    34  H    3.143172   2.374008   3.396275   4.072244   3.925871
    35  H    4.709372   3.766608   2.136637   2.489466   3.015934
    36  H    5.704767   5.286172   2.609377   2.450177   3.116596
                   31         32         33         34         35
    31  H    0.000000
    32  H    2.456468   0.000000
    33  H    4.584051   3.106989   0.000000
    34  H    3.601681   1.569108   1.720787   0.000000
    35  H    2.453119   1.744936   2.292180   1.824643   0.000000
    36  H    3.506321   2.777548   3.438917   3.131640   2.014473
                   36
    36  H    0.000000
 Stoichiometry    C16H20
 Framework group  C1[X(C16H20)]
 Deg. of freedom   102
 Full point group                 C1      NOp   1
 Largest Abelian subgroup         C1      NOp   1
 Largest concise Abelian subgroup C1      NOp   1
                         Standard orientation:                         
 ---------------------------------------------------------------------
 Center     Atomic      Atomic             Coordinates (Angstroms)
 Number     Number       Type             X           Y           Z
 ---------------------------------------------------------------------
      1          6           0       -2.857971    1.273171    0.214827
      2          6           0       -2.020411   -0.021911    0.109744
      3          6           0       -2.810107   -1.373467    0.223170
      4          6           0       -4.169152   -1.403455   -0.050607
      5          6           0       -5.278651   -0.264863    0.128183
      6          1           0       -2.367057   -2.277099    0.590365
      7          1           0       -4.660437   -2.305856   -0.372758
      8          6           0       -0.484225   -0.064412   -0.000557
      9          6           0        0.691967   -0.085881   -0.056409
     10          6           0        2.208543   -0.096407   -0.124730
     11          6           0        2.951761    1.080177   -0.375700
     12          6           0        2.891949   -1.285765    0.137956
     13          6           0        4.356756    1.048634   -0.348157
     14          1           0        2.456976    1.989596   -0.606624
     15          6           0        4.288725   -1.308669    0.209814
     16          1           0        2.349440   -2.182854    0.303518
     17          6           0        5.017279   -0.162674   -0.049538
     18          1           0        4.928477    1.937027   -0.544293
     19          1           0        4.803620   -2.221973    0.477920
     20          6           0        6.552400   -0.199499   -0.012804
     21          1           0        6.898583    0.046851    0.970677
     22          1           0        6.883001   -1.174129   -0.276888
     23          1           0        6.942842    0.517377   -0.708753
     24          6           0       -6.612991   -0.390449   -0.632846
     25          1           0       -6.611306   -0.129171   -1.666745
     26          1           0       -7.204204   -1.282504   -0.513761
     27          1           0       -7.029138    0.409575   -0.066814
     28          6           0       -1.947493    2.488886    0.399204
     29          1           0       -1.338234    2.379112    1.257869
     30          1           0       -1.314241    2.573632   -0.477086
     31          1           0       -2.544686    3.373632    0.474476
     32          1           0       -3.432555    1.395196   -0.679524
     33          1           0       -5.341028   -0.186844    1.193510
     34          1           0       -4.663179    0.542444   -0.209973
     35          1           0       -3.520048    1.198112    1.052038
     36          1           0       -1.907107   -0.002619    1.173553
 ---------------------------------------------------------------------
 Rotational constants (GHZ):           1.7105034           0.1494041           0.1392947
 Standard basis: 6-31+G(d) (6D, 7F)
 There are   344 symmetry adapted cartesian basis functions of A   symmetry.
 There are   344 symmetry adapted basis functions of A   symmetry.
   344 basis functions,   592 primitive gaussians,   344 cartesian basis functions
    58 alpha electrons       58 beta electrons
       nuclear repulsion energy       935.5834334370 Hartrees.
 NAtoms=   36 NActive=   36 NUniq=   36 SFac= 1.00D+00 NAtFMM=   60 NAOKFM=F Big=F
 Integral buffers will be    131072 words long.
 Raffenetti 2 integral format.
 Two-electron integral symmetry is turned on.
 Nuclear repulsion after empirical dispersion term =      935.5564712881 Hartrees.
 One-electron integrals computed using PRISM.
 NBasis=   344 RedAO= T EigKep=  1.22D-06  NBF=   344
 NBsUse=   341 1.00D-06 EigRej=  8.19D-07 NBFU=   341
 ExpMin= 4.38D-02 ExpMax= 3.05D+03 ExpMxC= 4.57D+02 IAcc=3 IRadAn=         5 AccDes= 0.00D+00
 Harris functional with IExCor=  402 and IRadAn=       5 diagonalized for initial guess.
 HarFok:  IExCor=  402 AccDes= 0.00D+00 IRadAn=         5 IDoV= 1 UseB2=F ITyADJ=14
 ICtDFT=  3500011 ScaDFX=  1.000000  1.000000  1.000000  1.000000
 FoFCou: FMM=F IPFlag=           0 FMFlag=      100000 FMFlg1=           0
         NFxFlg=           0 DoJE=T BraDBF=F KetDBF=T FulRan=T
         wScrn=  0.000000 ICntrl=       500 IOpCl=  0 I1Cent=   200000004 NGrid=           0
         NMat0=    1 NMatS0=      1 NMatT0=    0 NMatD0=    1 NMtDS0=    0 NMtDT0=    0
 Petite list used in FoFCou.
 Requested convergence on RMS density matrix=1.00D-08 within 128 cycles.
 Requested convergence on MAX density matrix=1.00D-06.
 Requested convergence on             energy=1.00D-06.
 No special actions if energy rises.
 SCF Done:  E(RB3LYP) =  -621.587141097     A.U. after   15 cycles
            NFock= 15  Conv=0.54D-08     -V/T= 2.0094

 **********************************************************************

            Population analysis using the SCF Density.

 **********************************************************************

 Orbital symmetries:
       Occupied  (A) (A) (A) (A) (A) (A) (A) (A) (A) (A) (A) (A)
                 (A) (A) (A) (A) (A) (A) (A) (A) (A) (A) (A) (A)
                 (A) (A) (A) (A) (A) (A) (A) (A) (A) (A) (A) (A)
                 (A) (A) (A) (A) (A) (A) (A) (A) (A) (A) (A) (A)
                 (A) (A) (A) (A) (A) (A) (A) (A) (A) (A)
       Virtual   (A) (A) (A) (A) (A) (A) (A) (A) (A) (A) (A) (A)
                 (A) (A) (A) (A) (A) (A) (A) (A) (A) (A) (A) (A)
                 (A) (A) (A) (A) (A) (A) (A) (A) (A) (A) (A) (A)
                 (A) (A) (A) (A) (A) (A) (A) (A) (A) (A) (A) (A)
                 (A) (A) (A) (A) (A) (A) (A) (A) (A) (A) (A) (A)
                 (A) (A) (A) (A) (A) (A) (A) (A) (A) (A) (A) (A)
                 (A) (A) (A) (A) (A) (A) (A) (A) (A) (A) (A) (A)
                 (A) (A) (A) (A) (A) (A) (A) (A) (A) (A) (A) (A)
                 (A) (A) (A) (A) (A) (A) (A) (A) (A) (A) (A) (A)
                 (A) (A) (A) (A) (A) (A) (A) (A) (A) (A) (A) (A)
                 (A) (A) (A) (A) (A) (A) (A) (A) (A) (A) (A) (A)
                 (A) (A) (A) (A) (A) (A) (A) (A) (A) (A) (A) (A)
                 (A) (A) (A) (A) (A) (A) (A) (A) (A) (A) (A) (A)
                 (A) (A) (A) (A) (A) (A) (A) (A) (A) (A) (A) (A)
                 (A) (A) (A) (A) (A) (A) (A) (A) (A) (A) (A) (A)
                 (A) (A) (A) (A) (A) (A) (A) (A) (A) (A) (A) (A)
                 (A) (A) (A) (A) (A) (A) (A) (A) (A) (A) (A) (A)
                 (A) (A) (A) (A) (A) (A) (A) (A) (A) (A) (A) (A)
                 (A) (A) (A) (A) (A) (A) (A) (A) (A) (A) (A) (A)
                 (A) (A) (A) (A) (A) (A) (A) (A) (A) (A) (A) (A)
                 (A) (A) (A) (A) (A) (A) (A) (A) (A) (A) (A) (A)
                 (A) (A) (A) (A) (A) (A) (A) (A) (A) (A) (A) (A)
                 (A) (A) (A) (A) (A) (A) (A) (A) (A) (A) (A) (A)
                 (A) (A) (A) (A) (A) (A) (A)
 The electronic state is 1-A.
 Alpha  occ. eigenvalues --  -10.22489 -10.22342 -10.20485 -10.20311 -10.19926
 Alpha  occ. eigenvalues --  -10.19839 -10.19561 -10.19477 -10.19259 -10.19222
 Alpha  occ. eigenvalues --  -10.19115 -10.18653 -10.18194 -10.18110 -10.17672
 Alpha  occ. eigenvalues --  -10.17366  -0.86336  -0.83897  -0.78913  -0.78175
 Alpha  occ. eigenvalues --   -0.75413  -0.75110  -0.73947  -0.69976  -0.68230
 Alpha  occ. eigenvalues --   -0.64876  -0.61592  -0.60679  -0.59081  -0.54602
 Alpha  occ. eigenvalues --   -0.52917  -0.48890  -0.47562  -0.46872  -0.46611
 Alpha  occ. eigenvalues --   -0.45752  -0.44093  -0.43220  -0.42941  -0.42889
 Alpha  occ. eigenvalues --   -0.42335  -0.41526  -0.39943  -0.39805  -0.38326
 Alpha  occ. eigenvalues --   -0.37326  -0.36749  -0.36073  -0.35222  -0.34948
 Alpha  occ. eigenvalues --   -0.34678  -0.33062  -0.31343  -0.28969  -0.27565
 Alpha  occ. eigenvalues --   -0.25629  -0.23416  -0.20572
 Alpha virt. eigenvalues --   -0.02241  -0.01778  -0.01565   0.00295   0.00901
 Alpha virt. eigenvalues --    0.01713   0.01957   0.02468   0.02852   0.03829
 Alpha virt. eigenvalues --    0.03953   0.04331   0.04940   0.04983   0.05093
 Alpha virt. eigenvalues --    0.05900   0.06332   0.06647   0.06861   0.07086
 Alpha virt. eigenvalues --    0.07863   0.08069   0.08481   0.08745   0.09094
 Alpha virt. eigenvalues --    0.09265   0.09847   0.10376   0.11048   0.11266
 Alpha virt. eigenvalues --    0.11558   0.11827   0.12120   0.12562   0.13675
 Alpha virt. eigenvalues --    0.13827   0.14493   0.14651   0.15078   0.15419
 Alpha virt. eigenvalues --    0.15508   0.15901   0.16290   0.16478   0.16803
 Alpha virt. eigenvalues --    0.17391   0.17944   0.18512   0.18640   0.18975
 Alpha virt. eigenvalues --    0.19464   0.20141   0.20656   0.20792   0.21156
 Alpha virt. eigenvalues --    0.21602   0.21797   0.22123   0.22536   0.22937
 Alpha virt. eigenvalues --    0.23220   0.23803   0.23987   0.24315   0.24985
 Alpha virt. eigenvalues --    0.25217   0.25435   0.25925   0.26241   0.26448
 Alpha virt. eigenvalues --    0.26928   0.27200   0.27646   0.27735   0.28201
 Alpha virt. eigenvalues --    0.28660   0.29429   0.29460   0.29984   0.30790
 Alpha virt. eigenvalues --    0.31089   0.31777   0.32406   0.32744   0.33309
 Alpha virt. eigenvalues --    0.33996   0.34501   0.35406   0.36001   0.36726
 Alpha virt. eigenvalues --    0.37477   0.37715   0.38807   0.39891   0.40456
 Alpha virt. eigenvalues --    0.42035   0.42772   0.43860   0.45858   0.47994
 Alpha virt. eigenvalues --    0.56962   0.60418   0.63441   0.64951   0.65380
 Alpha virt. eigenvalues --    0.65943   0.66125   0.66641   0.67212   0.67822
 Alpha virt. eigenvalues --    0.68426   0.68804   0.70607   0.71041   0.71194
 Alpha virt. eigenvalues --    0.71894   0.72061   0.72340   0.73765   0.73973
 Alpha virt. eigenvalues --    0.75004   0.75163   0.75552   0.76946   0.77323
 Alpha virt. eigenvalues --    0.77905   0.78555   0.78895   0.79012   0.79662
 Alpha virt. eigenvalues --    0.79973   0.80966   0.82017   0.82819   0.84389
 Alpha virt. eigenvalues --    0.85472   0.86979   0.87890   0.89769   0.91078
 Alpha virt. eigenvalues --    0.93468   0.95142   0.95237   0.97495   0.98444
 Alpha virt. eigenvalues --    0.99121   0.99270   0.99893   1.00081   1.01276
 Alpha virt. eigenvalues --    1.01544   1.02307   1.03101   1.04278   1.04964
 Alpha virt. eigenvalues --    1.06721   1.07457   1.08746   1.10628   1.11531
 Alpha virt. eigenvalues --    1.12206   1.13349   1.13916   1.15272   1.15498
 Alpha virt. eigenvalues --    1.16702   1.18168   1.19506   1.20255   1.20800
 Alpha virt. eigenvalues --    1.21159   1.23188   1.23858   1.25410   1.28253
 Alpha virt. eigenvalues --    1.28519   1.29232   1.30389   1.33011   1.33787
 Alpha virt. eigenvalues --    1.39001   1.39505   1.44032   1.45548   1.46344
 Alpha virt. eigenvalues --    1.46798   1.47841   1.50620   1.50965   1.54391
 Alpha virt. eigenvalues --    1.55173   1.55852   1.58661   1.58966   1.60389
 Alpha virt. eigenvalues --    1.62599   1.65679   1.69766   1.73207   1.76174
 Alpha virt. eigenvalues --    1.78498   1.80836   1.84334   1.84979   1.85570
 Alpha virt. eigenvalues --    1.87423   1.88904   1.89659   1.90008   1.92313
 Alpha virt. eigenvalues --    1.92728   1.93937   1.95387   1.97575   1.99027
 Alpha virt. eigenvalues --    2.00806   2.01406   2.02310   2.03756   2.08602
 Alpha virt. eigenvalues --    2.09164   2.09947   2.11810   2.14215   2.14817
 Alpha virt. eigenvalues --    2.16082   2.18404   2.19560   2.21840   2.23920
 Alpha virt. eigenvalues --    2.26759   2.28634   2.29154   2.29646   2.30431
 Alpha virt. eigenvalues --    2.32573   2.35023   2.36423   2.37834   2.38688
 Alpha virt. eigenvalues --    2.40308   2.40733   2.42513   2.44526   2.45544
 Alpha virt. eigenvalues --    2.51125   2.53179   2.53521   2.60166   2.63350
 Alpha virt. eigenvalues --    2.64814   2.65585   2.65728   2.68041   2.71742
 Alpha virt. eigenvalues --    2.73471   2.75705   2.81180   2.83400   2.86499
 Alpha virt. eigenvalues --    2.89233   2.93143   2.96718   2.98890   3.15703
 Alpha virt. eigenvalues --    3.35938   3.57274   4.17109   4.21124   4.23574
 Alpha virt. eigenvalues --    4.25417   4.25912   4.31844   4.32854   4.34661
 Alpha virt. eigenvalues --    4.40527   4.41345   4.44405   4.49800   4.54565
 Alpha virt. eigenvalues --    4.62162   4.75946   4.90726
          Condensed to atoms (all electrons):
               1          2          3          4          5          6
     1  C    9.620985  -1.163879  -0.879030   0.377897  -0.333418  -0.016684
     2  C   -1.163879   8.434253  -1.186906   0.356455   0.168343  -0.098132
     3  C   -0.879030  -1.186906  10.865733  -2.569829   0.705409   0.355199
     4  C    0.377897   0.356455  -2.569829   7.984286  -1.104490   0.016528
     5  C   -0.333418   0.168343   0.705409  -1.104490   7.051228  -0.007747
     6  H   -0.016684  -0.098132   0.355199   0.016528  -0.007747   0.523880
     7  H    0.039385  -0.028786   0.032006   0.295630  -0.047660  -0.005319
     8  C    0.191380  -0.784677  -0.112848   0.102963  -0.034223   0.050449
     9  C   -0.038174   0.124143  -0.061612  -0.064082   0.025604  -0.024026
    10  C   -0.075458  -0.220180  -0.121519   0.068797  -0.007280   0.008305
    11  C    0.038900   0.444766  -0.010980   0.031174   0.000408   0.001395
    12  C   -0.027251  -0.430738   0.017949  -0.048270   0.000351  -0.002700
    13  C   -0.018481  -0.078450  -0.001201  -0.002999  -0.000053  -0.000100
    14  H    0.000165   0.000198   0.000077   0.000001   0.000002   0.000000
    15  C    0.018300   0.110356   0.022772  -0.007959   0.000730  -0.000303
    16  H    0.000063   0.001377   0.000796   0.000149   0.000000   0.000001
    17  C   -0.004847   0.008416  -0.006709   0.002377  -0.000144   0.000078
    18  H    0.000004   0.000047  -0.000001   0.000000   0.000000   0.000000
    19  H    0.000005  -0.000106  -0.000004  -0.000001   0.000000   0.000000
    20  C   -0.000484   0.004327  -0.000611   0.000148  -0.000003   0.000001
    21  H    0.000000   0.000001   0.000000   0.000000   0.000000   0.000000
    22  H    0.000000  -0.000001   0.000000   0.000000   0.000000   0.000000
    23  H    0.000000   0.000006   0.000000   0.000000   0.000000   0.000000
    24  C    0.052978   0.041813  -0.384414   0.324804  -0.290954   0.000743
    25  H    0.004080  -0.000379  -0.019772   0.014736  -0.059428   0.000000
    26  H    0.006237  -0.005737   0.004910  -0.002056  -0.059818  -0.000003
    27  H   -0.000893   0.004931  -0.029876   0.058902  -0.186089   0.000004
    28  C   -1.966021  -0.068732   0.223066   0.142900  -0.254998   0.006171
    29  H   -0.158031   0.023135  -0.007396   0.005014  -0.006311  -0.000002
    30  H   -0.089103  -0.035379   0.001148   0.002596  -0.000379   0.000000
    31  H   -0.174127   0.029758   0.000058   0.000379  -0.003976   0.000001
    32  H    0.495741  -0.105007  -0.167465   0.122018  -0.103459  -0.000036
    33  H    0.040920  -0.021962  -0.072347   0.010430   0.386189  -0.000082
    34  H    0.135122  -0.175650   0.049663  -0.075688   0.302405  -0.000135
    35  H    0.437847  -0.111495   0.043836  -0.012705  -0.015766  -0.000047
    36  H   -0.012157   0.440678  -0.360640   0.113791   0.004068  -0.001195
               7          8          9         10         11         12
     1  C    0.039385   0.191380  -0.038174  -0.075458   0.038900  -0.027251
     2  C   -0.028786  -0.784677   0.124143  -0.220180   0.444766  -0.430738
     3  C    0.032006  -0.112848  -0.061612  -0.121519  -0.010980   0.017949
     4  C    0.295630   0.102963  -0.064082   0.068797   0.031174  -0.048270
     5  C   -0.047660  -0.034223   0.025604  -0.007280   0.000408   0.000351
     6  H   -0.005319   0.050449  -0.024026   0.008305   0.001395  -0.002700
     7  H    0.543216  -0.010577  -0.002169  -0.000121  -0.000017   0.000087
     8  C   -0.010577   6.851349  -0.181227   0.776839  -0.203253  -0.744022
     9  C   -0.002169  -0.181227   8.071778  -2.448126   1.788716   0.162543
    10  C   -0.000121   0.776839  -2.448126  12.095680  -4.126797  -1.837137
    11  C   -0.000017  -0.203253   1.788716  -4.126797  23.469817 -12.960253
    12  C    0.000087  -0.744022   0.162543  -1.837137 -12.960253  24.340486
    13  C    0.000000   0.020608  -0.577410   1.328049  -6.961828   4.490851
    14  H    0.000000  -0.004558   0.018956  -0.017290   0.350574   0.029912
    15  C    0.000010   0.283483  -0.167608   1.053838   4.585936  -8.000538
    16  H    0.000000  -0.003181   0.024039  -0.023070   0.025836   0.359617
    17  C    0.000000  -0.113925  -0.089278  -0.618510   0.280339   0.634975
    18  H    0.000000   0.000766  -0.000153   0.010163  -0.039059  -0.025712
    19  H    0.000000   0.000190  -0.003420   0.014324  -0.022376  -0.044087
    20  C    0.000000  -0.028130   0.040497  -0.306325  -0.231099   0.320531
    21  H    0.000000  -0.000031   0.000388  -0.000660   0.000697  -0.001289
    22  H    0.000000  -0.000060   0.000207  -0.005357  -0.018521   0.016841
    23  H    0.000000   0.000047   0.000697  -0.002714   0.014537  -0.014267
    24  C    0.000240   0.004505  -0.002552   0.000971   0.000447  -0.000646
    25  H   -0.000251   0.000128  -0.000005   0.000001   0.000000  -0.000001
    26  H    0.002656  -0.000096  -0.000030   0.000000   0.000000   0.000000
    27  H   -0.000018   0.000399   0.000012   0.000003   0.000000  -0.000001
    28  C    0.002041  -0.149151  -0.315335   0.114146  -0.057960   0.025395
    29  H    0.000000  -0.017315   0.005961  -0.001837   0.001087  -0.000975
    30  H    0.000000   0.031029  -0.029764   0.003566   0.004596  -0.001033
    31  H    0.000000   0.002491   0.002232   0.001778  -0.001635   0.000358
    32  H   -0.000239   0.032434  -0.001743   0.001264  -0.000351  -0.000129
    33  H    0.000236   0.000842  -0.000587   0.000020  -0.000003  -0.000009
    34  H    0.006411  -0.006807  -0.006384   0.000145  -0.000129   0.000094
    35  H    0.000059  -0.018498  -0.002145  -0.000453   0.000245  -0.000009
    36  H   -0.000291  -0.009925  -0.025958   0.015410  -0.001891  -0.002196
              13         14         15         16         17         18
     1  C   -0.018481   0.000165   0.018300   0.000063  -0.004847   0.000004
     2  C   -0.078450   0.000198   0.110356   0.001377   0.008416   0.000047
     3  C   -0.001201   0.000077   0.022772   0.000796  -0.006709  -0.000001
     4  C   -0.002999   0.000001  -0.007959   0.000149   0.002377   0.000000
     5  C   -0.000053   0.000002   0.000730   0.000000  -0.000144   0.000000
     6  H   -0.000100   0.000000  -0.000303   0.000001   0.000078   0.000000
     7  H    0.000000   0.000000   0.000010   0.000000   0.000000   0.000000
     8  C    0.020608  -0.004558   0.283483  -0.003181  -0.113925   0.000766
     9  C   -0.577410   0.018956  -0.167608   0.024039  -0.089278  -0.000153
    10  C    1.328049  -0.017290   1.053838  -0.023070  -0.618510   0.010163
    11  C   -6.961828   0.350574   4.585936   0.025836   0.280339  -0.039059
    12  C    4.490851   0.029912  -8.000538   0.359617   0.634975  -0.025712
    13  C   10.416230  -0.096404  -2.793494  -0.007837   0.027915   0.260646
    14  H   -0.096404   0.534875  -0.009827  -0.000170   0.009462  -0.004237
    15  C   -2.793494  -0.009827  11.447106  -0.105706  -0.129973   0.063475
    16  H   -0.007837  -0.000170  -0.105706   0.535087   0.007550   0.000019
    17  C    0.027915   0.009462  -0.129973   0.007550   6.697204   0.034652
    18  H    0.260646  -0.004237   0.063475   0.000019   0.034652   0.543654
    19  H    0.056254   0.000019   0.257598  -0.004649   0.042411  -0.000167
    20  C    0.152979   0.002004  -0.304561   0.002193  -0.806577  -0.023968
    21  H   -0.018024   0.000002   0.000019   0.000002  -0.062648   0.000364
    22  H    0.061956   0.000003  -0.065496  -0.000004  -0.115707   0.000087
    23  H   -0.045165  -0.000004   0.050542   0.000003  -0.124412   0.002857
    24  C   -0.000049   0.000000  -0.000006   0.000000   0.000016   0.000000
    25  H    0.000000   0.000000   0.000000   0.000000   0.000000   0.000000
    26  H    0.000000   0.000000   0.000000   0.000000   0.000000   0.000000
    27  H    0.000000   0.000000   0.000000   0.000000   0.000000   0.000000
    28  C    0.026994  -0.000188  -0.017930   0.000020   0.007032  -0.000004
    29  H   -0.000772  -0.000005   0.000062   0.000000   0.000019   0.000000
    30  H    0.002280   0.000032  -0.000422   0.000000   0.000214   0.000000
    31  H   -0.000197   0.000000   0.000008   0.000000  -0.000006   0.000000
    32  H   -0.000076   0.000000  -0.000005   0.000000   0.000007   0.000000
    33  H    0.000000   0.000000  -0.000001   0.000000   0.000000   0.000000
    34  H    0.000000   0.000000   0.000004   0.000000   0.000001   0.000000
    35  H    0.000013   0.000000   0.000018   0.000000   0.000004   0.000000
    36  H   -0.000099  -0.000001  -0.001232  -0.000002   0.000266   0.000000
              19         20         21         22         23         24
     1  C    0.000005  -0.000484   0.000000   0.000000   0.000000   0.052978
     2  C   -0.000106   0.004327   0.000001  -0.000001   0.000006   0.041813
     3  C   -0.000004  -0.000611   0.000000   0.000000   0.000000  -0.384414
     4  C   -0.000001   0.000148   0.000000   0.000000   0.000000   0.324804
     5  C    0.000000  -0.000003   0.000000   0.000000   0.000000  -0.290954
     6  H    0.000000   0.000001   0.000000   0.000000   0.000000   0.000743
     7  H    0.000000   0.000000   0.000000   0.000000   0.000000   0.000240
     8  C    0.000190  -0.028130  -0.000031  -0.000060   0.000047   0.004505
     9  C   -0.003420   0.040497   0.000388   0.000207   0.000697  -0.002552
    10  C    0.014324  -0.306325  -0.000660  -0.005357  -0.002714   0.000971
    11  C   -0.022376  -0.231099   0.000697  -0.018521   0.014537   0.000447
    12  C   -0.044087   0.320531  -0.001289   0.016841  -0.014267  -0.000646
    13  C    0.056254   0.152979  -0.018024   0.061956  -0.045165  -0.000049
    14  H    0.000019   0.002004   0.000002   0.000003  -0.000004   0.000000
    15  C    0.257598  -0.304561   0.000019  -0.065496   0.050542  -0.000006
    16  H   -0.004649   0.002193   0.000002  -0.000004   0.000003   0.000000
    17  C    0.042411  -0.806577  -0.062648  -0.115707  -0.124412   0.000016
    18  H   -0.000167  -0.023968   0.000364   0.000087   0.002857   0.000000
    19  H    0.546380  -0.022261   0.000416   0.003074   0.000091   0.000000
    20  C   -0.022261   6.604068   0.415542   0.467941   0.462409   0.000000
    21  H    0.000416   0.415542   0.494074  -0.028290  -0.029175   0.000000
    22  H    0.003074   0.467941  -0.028290   0.498796  -0.025899   0.000000
    23  H    0.000091   0.462409  -0.029175  -0.025899   0.501660   0.000000
    24  C    0.000000   0.000000   0.000000   0.000000   0.000000   5.823972
    25  H    0.000000   0.000000   0.000000   0.000000   0.000000   0.417690
    26  H    0.000000   0.000000   0.000000   0.000000   0.000000   0.404008
    27  H    0.000000   0.000000   0.000000   0.000000   0.000000   0.474274
    28  C   -0.000004   0.000927   0.000000   0.000000   0.000000  -0.017790
    29  H    0.000000   0.000000   0.000000   0.000000   0.000000   0.000216
    30  H    0.000000   0.000005   0.000000   0.000000   0.000000   0.000406
    31  H    0.000000   0.000000   0.000000   0.000000   0.000000  -0.000643
    32  H    0.000000   0.000000   0.000000   0.000000   0.000000   0.013919
    33  H    0.000000   0.000000   0.000000   0.000000   0.000000  -0.054245
    34  H    0.000000   0.000000   0.000000   0.000000   0.000000  -0.019245
    35  H    0.000000   0.000000   0.000000   0.000000   0.000000   0.008812
    36  H    0.000000   0.000012   0.000000   0.000000   0.000000   0.002611
              25         26         27         28         29         30
     1  C    0.004080   0.006237  -0.000893  -1.966021  -0.158031  -0.089103
     2  C   -0.000379  -0.005737   0.004931  -0.068732   0.023135  -0.035379
     3  C   -0.019772   0.004910  -0.029876   0.223066  -0.007396   0.001148
     4  C    0.014736  -0.002056   0.058902   0.142900   0.005014   0.002596
     5  C   -0.059428  -0.059818  -0.186089  -0.254998  -0.006311  -0.000379
     6  H    0.000000  -0.000003   0.000004   0.006171  -0.000002   0.000000
     7  H   -0.000251   0.002656  -0.000018   0.002041   0.000000   0.000000
     8  C    0.000128  -0.000096   0.000399  -0.149151  -0.017315   0.031029
     9  C   -0.000005  -0.000030   0.000012  -0.315335   0.005961  -0.029764
    10  C    0.000001   0.000000   0.000003   0.114146  -0.001837   0.003566
    11  C    0.000000   0.000000   0.000000  -0.057960   0.001087   0.004596
    12  C   -0.000001   0.000000  -0.000001   0.025395  -0.000975  -0.001033
    13  C    0.000000   0.000000   0.000000   0.026994  -0.000772   0.002280
    14  H    0.000000   0.000000   0.000000  -0.000188  -0.000005   0.000032
    15  C    0.000000   0.000000   0.000000  -0.017930   0.000062  -0.000422
    16  H    0.000000   0.000000   0.000000   0.000020   0.000000   0.000000
    17  C    0.000000   0.000000   0.000000   0.007032   0.000019   0.000214
    18  H    0.000000   0.000000   0.000000  -0.000004   0.000000   0.000000
    19  H    0.000000   0.000000   0.000000  -0.000004   0.000000   0.000000
    20  C    0.000000   0.000000   0.000000   0.000927   0.000000   0.000005
    21  H    0.000000   0.000000   0.000000   0.000000   0.000000   0.000000
    22  H    0.000000   0.000000   0.000000   0.000000   0.000000   0.000000
    23  H    0.000000   0.000000   0.000000   0.000000   0.000000   0.000000
    24  C    0.417690   0.404008   0.474274  -0.017790   0.000216   0.000406
    25  H    0.489457  -0.032745  -0.027867   0.000496   0.000000   0.000000
    26  H   -0.032745   0.499628  -0.027156   0.000666   0.000000   0.000000
    27  H   -0.027867  -0.027156   0.535573  -0.000254   0.000000   0.000000
    28  C    0.000496   0.000666  -0.000254   7.936640   0.500219   0.456244
    29  H    0.000000   0.000000   0.000000   0.500219   0.492225  -0.029990
    30  H    0.000000   0.000000   0.000000   0.456244  -0.029990   0.488818
    31  H    0.000000   0.000000   0.000000   0.491388  -0.028294  -0.027668
    32  H    0.000191  -0.000029   0.000070  -0.025678   0.004843  -0.005671
    33  H    0.003415  -0.001232  -0.006700   0.013989   0.000013  -0.000003
    34  H   -0.005763   0.003968  -0.003375   0.073036   0.000065  -0.000051
    35  H    0.000013  -0.000010  -0.000068  -0.011019  -0.005193   0.004812
    36  H    0.000001  -0.000001   0.000001  -0.036444   0.004997  -0.000386
              31         32         33         34         35         36
     1  C   -0.174127   0.495741   0.040920   0.135122   0.437847  -0.012157
     2  C    0.029758  -0.105007  -0.021962  -0.175650  -0.111495   0.440678
     3  C    0.000058  -0.167465  -0.072347   0.049663   0.043836  -0.360640
     4  C    0.000379   0.122018   0.010430  -0.075688  -0.012705   0.113791
     5  C   -0.003976  -0.103459   0.386189   0.302405  -0.015766   0.004068
     6  H    0.000001  -0.000036  -0.000082  -0.000135  -0.000047  -0.001195
     7  H    0.000000  -0.000239   0.000236   0.006411   0.000059  -0.000291
     8  C    0.002491   0.032434   0.000842  -0.006807  -0.018498  -0.009925
     9  C    0.002232  -0.001743  -0.000587  -0.006384  -0.002145  -0.025958
    10  C    0.001778   0.001264   0.000020   0.000145  -0.000453   0.015410
    11  C   -0.001635  -0.000351  -0.000003  -0.000129   0.000245  -0.001891
    12  C    0.000358  -0.000129  -0.000009   0.000094  -0.000009  -0.002196
    13  C   -0.000197  -0.000076   0.000000   0.000000   0.000013  -0.000099
    14  H    0.000000   0.000000   0.000000   0.000000   0.000000  -0.000001
    15  C    0.000008  -0.000005  -0.000001   0.000004   0.000018  -0.001232
    16  H    0.000000   0.000000   0.000000   0.000000   0.000000  -0.000002
    17  C   -0.000006   0.000007   0.000000   0.000001   0.000004   0.000266
    18  H    0.000000   0.000000   0.000000   0.000000   0.000000   0.000000
    19  H    0.000000   0.000000   0.000000   0.000000   0.000000   0.000000
    20  C    0.000000   0.000000   0.000000   0.000000   0.000000   0.000012
    21  H    0.000000   0.000000   0.000000   0.000000   0.000000   0.000000
    22  H    0.000000   0.000000   0.000000   0.000000   0.000000   0.000000
    23  H    0.000000   0.000000   0.000000   0.000000   0.000000   0.000000
    24  C   -0.000643   0.013919  -0.054245  -0.019245   0.008812   0.002611
    25  H    0.000000   0.000191   0.003415  -0.005763   0.000013   0.000001
    26  H    0.000000  -0.000029  -0.001232   0.003968  -0.000010  -0.000001
    27  H    0.000000   0.000070  -0.006700  -0.003375  -0.000068   0.000001
    28  C    0.491388  -0.025678   0.013989   0.073036  -0.011019  -0.036444
    29  H   -0.028294   0.004843   0.000013   0.000065  -0.005193   0.004997
    30  H   -0.027668  -0.005671  -0.000003  -0.000051   0.004812  -0.000386
    31  H    0.514724  -0.003888   0.000000  -0.000028  -0.002588  -0.000214
    32  H   -0.003888   0.543063   0.001497   0.003657  -0.048150   0.011831
    33  H    0.000000   0.001497   0.525779  -0.040925  -0.001144   0.000805
    34  H   -0.000028   0.003657  -0.040925   0.581941  -0.008889  -0.000625
    35  H   -0.002588  -0.048150  -0.001144  -0.008889   0.534973  -0.022289
    36  H   -0.000214   0.011831   0.000805  -0.000625  -0.022289   0.622798
 Mulliken charges:
               1
     1  C   -0.501972
     2  C    0.323197
     3  C   -0.329462
     4  C   -0.143896
     5  C   -0.128541
     6  H    0.193758
     7  H    0.173471
     8  C    0.072603
     9  C   -0.223985
    10  C    0.319533
    11  C   -0.403318
    12  C   -0.258730
    13  C   -0.242139
    14  H    0.186402
    15  C   -0.289197
    16  H    0.187868
    17  C    0.319797
    18  H    0.176568
    19  H    0.176312
    20  C   -0.749568
    21  H    0.228614
    22  H    0.210432
    23  H    0.208788
    24  C   -0.801883
    25  H    0.216004
    26  H    0.206840
    27  H    0.208128
    28  C   -1.099861
    29  H    0.218263
    30  H    0.224103
    31  H    0.200087
    32  H    0.231391
    33  H    0.215103
    34  H    0.187180
    35  H    0.229837
    36  H    0.258274
 Sum of Mulliken charges =   0.00000
 Mulliken charges with hydrogens summed into heavy atoms:
               1
     1  C   -0.040745
     2  C    0.581471
     3  C   -0.135705
     4  C    0.029574
     5  C    0.273743
     8  C    0.072603
     9  C   -0.223985
    10  C    0.319533
    11  C   -0.216916
    12  C   -0.070862
    13  C   -0.065571
    15  C   -0.112885
    17  C    0.319797
    20  C   -0.101734
    24  C   -0.170911
    28  C   -0.457408
 Electronic spatial extent (au):  <R**2>=           7679.6641
 Charge=              0.0000 electrons
 Dipole moment (field-independent basis, Debye):
    X=             -0.1532    Y=              0.8622    Z=              0.9314  Tot=              1.2784
 Quadrupole moment (field-independent basis, Debye-Ang):
   XX=            -83.1461   YY=            -95.1600   ZZ=           -102.5785
   XY=             -2.8106   XZ=             -1.1215   YZ=             -2.0454
 Traceless Quadrupole moment (field-independent basis, Debye-Ang):
   XX=             10.4821   YY=             -1.5318   ZZ=             -8.9503
   XY=             -2.8106   XZ=             -1.1215   YZ=             -2.0454
 Octapole moment (field-independent basis, Debye-Ang**2):
  XXX=             44.5125  YYY=             -0.8961  ZZZ=              3.1559  XYY=             11.9689
  XXY=              6.1204  XXZ=              2.0189  XZZ=            -12.1424  YZZ=              4.9161
  YYZ=              0.3953  XYZ=             -8.2637
 Hexadecapole moment (field-independent basis, Debye-Ang**3):
 XXXX=          -9259.3819 YYYY=           -910.6815 ZZZZ=           -211.4341 XXXY=              2.3679
 XXXZ=             22.0713 YYYX=            -16.1217 YYYZ=            -13.3254 ZZZX=              8.2654
 ZZZY=              1.3689 XXYY=          -1709.7249 XXZZ=          -1685.2167 YYZZ=           -198.3857
 XXYZ=             -8.9708 YYXZ=              0.2148 ZZXY=             -8.4574
 N-N= 9.355564712881D+02 E-N=-3.307809779024D+03  KE= 6.157982542527D+02
 Evaluate density.
 Using the total density.
 Monte-Carlo method of calculating molar volume:
 based on  0.001 e/bohr**3 density envelope.
 Number of points per bohr**3 =   20 CutOff= 1.00D-04
 Using the SCF density.
 There are       452 points.  Will hold       452 in memory.
 LenV=  4026255864 MDV=  4026531840.
 Box volume =11569.251 fraction occupied=0.217
 Integrated density= 9.5367608678596767D+01 error=-2.0632391321403233D+01
 Molar volume = 2508.377 bohr**3/mol (223.845 cm**3/mol)
 Recommended a0 for SCRF calculation =  5.41 angstrom ( 10.22 bohr)
 Calling FoFJK, ICntrl=      2127 FMM=F ISym2X=0 I1Cent= 0 IOpClX= 0 NMat=1 NMatS=1 NMatT=0.
 ***** Axes restored to original set *****
 -------------------------------------------------------------------
 Center     Atomic                   Forces (Hartrees/Bohr)
 Number     Number              X              Y              Z
 -------------------------------------------------------------------
      1        6           0.038281519    0.024663732    0.024764751
      2        6           0.028965583   -0.068426404   -0.053375338
      3        6          -0.049992138    0.037698816    0.044346182
      4        6           0.000387481   -0.010352948    0.004797665
      5        6           0.059221235    0.057009574   -0.032061860
      6        1           0.017816391    0.014622087   -0.005407734
      7        1           0.002450055   -0.010407436   -0.025695394
      8        6          -0.123708847    0.026617616    0.008584762
      9        6           0.128051400    0.008282614    0.006382362
     10        6          -0.043147508   -0.005567057    0.003960528
     11        6           0.013894720    0.001003269   -0.016191007
     12        6           0.011324784   -0.004011174    0.007000217
     13        6          -0.017027569    0.001468596   -0.021918935
     14        1          -0.011221676   -0.001440220    0.015319122
     15        6          -0.013130212    0.002434588   -0.000681889
     16        1          -0.010551438   -0.000394401   -0.015308452
     17        6           0.022753713   -0.001712909    0.018356108
     18        1           0.003531549    0.000353223    0.007930566
     19        1           0.000988229    0.002482039   -0.003872370
     20        6          -0.034869419   -0.000850938    0.006571850
     21        1           0.008390458   -0.016017213   -0.000690958
     22        1           0.011833194    0.009573937   -0.017521741
     23        1           0.008669891    0.006641404    0.011379163
     24        6           0.021095621   -0.033059022    0.002968743
     25        1           0.008775969    0.016236994    0.009740461
     26        1          -0.000548605   -0.004280091   -0.014483349
     27        1          -0.037743632   -0.002126276    0.015441809
     28        6          -0.011665682    0.025363378   -0.006219316
     29        1           0.015733328   -0.020778765   -0.005208876
     30        1           0.007044470    0.002396898    0.004972176
     31        1          -0.008306486   -0.007377075    0.014556731
     32        1          -0.006030881    0.010983893    0.014234935
     33        1          -0.014685606   -0.015979941   -0.002789061
     34        1          -0.029595031   -0.000760534    0.016260073
     35        1          -0.006567907   -0.008935560   -0.005059802
     36        1           0.009583047   -0.035354694   -0.011082122
 -------------------------------------------------------------------
 Cartesian Forces:  Max     0.128051400 RMS     0.026482985

 GradGradGradGradGradGradGradGradGradGradGradGradGradGradGradGradGradGrad
 Berny optimization.
 FormGI is forming the generalized inverse of G from B-inverse, IUseBI=4.
 Internal  Forces:  Max     0.121815494 RMS     0.019415562
 Search for a local minimum.
 Step number   1 out of a maximum of  189
 All quantities printed in internal units (Hartrees-Bohrs-Radians)
 Mixed Optimization -- RFO/linear search
 Second derivative matrix not updated -- first step.
 ITU=  0
     Eigenvalues ---    0.00230   0.00230   0.00230   0.00230   0.00230
     Eigenvalues ---    0.00290   0.00369   0.00400   0.00523   0.01002
     Eigenvalues ---    0.01162   0.01258   0.01378   0.01524   0.01945
     Eigenvalues ---    0.01968   0.01979   0.02057   0.02119   0.02182
     Eigenvalues ---    0.02227   0.02265   0.03245   0.03754   0.03776
     Eigenvalues ---    0.03930   0.04390   0.04909   0.04970   0.05613
     Eigenvalues ---    0.05782   0.05960   0.06775   0.07168   0.07252
     Eigenvalues ---    0.07303   0.07871   0.10675   0.11861   0.13366
     Eigenvalues ---    0.15948   0.15973   0.15996   0.15997   0.15999
     Eigenvalues ---    0.16000   0.16000   0.16000   0.16000   0.16000
     Eigenvalues ---    0.16000   0.16000   0.16000   0.16000   0.16000
     Eigenvalues ---    0.21920   0.21967   0.21994   0.22008   0.22009
     Eigenvalues ---    0.22963   0.23816   0.23970   0.24908   0.24938
     Eigenvalues ---    0.24953   0.25000   0.26061   0.28003   0.28410
     Eigenvalues ---    0.28454   0.28876   0.29423   0.30545   0.35460
     Eigenvalues ---    0.35732   0.36385   0.36385   0.36666   0.36890
     Eigenvalues ---    0.37062   0.37067   0.37219   0.37230   0.37230
     Eigenvalues ---    0.37230   0.37230   0.37230   0.37688   0.37907
     Eigenvalues ---    0.38192   0.38343   0.38425   0.38714   0.40907
     Eigenvalues ---    0.40995   0.43933   0.45303   0.45593   0.47821
     Eigenvalues ---    0.47903   1.16869
 RFO step:  Lambda=-1.66480351D-01 EMin= 2.30000000D-03
 Linear search not attempted -- first point.
 Maximum step size (   0.300) exceeded in Quadratic search.
    -- Step size scaled by   0.490
 Iteration  1 RMS(Cart)=  0.21252433 RMS(Int)=  0.00998944
 Iteration  2 RMS(Cart)=  0.07661620 RMS(Int)=  0.00112817
 Iteration  3 RMS(Cart)=  0.00260834 RMS(Int)=  0.00029883
 Iteration  4 RMS(Cart)=  0.00000224 RMS(Int)=  0.00029882
 Iteration  5 RMS(Cart)=  0.00000000 RMS(Int)=  0.00029882
 Variable       Old X    -DE/DX   Delta X   Delta X   Delta X     New X
                                 (Linear)    (Quad)   (Total)
    R1        2.92132   0.00958   0.00000   0.01051   0.01051   2.93183
    R2        2.89130   0.00784   0.00000   0.00834   0.00834   2.89963
    R3        2.02201   0.01627   0.00000   0.01480   0.01480   2.03680
    R4        2.02201   0.01204   0.00000   0.01095   0.01095   2.03296
    R5        2.96584   0.00709   0.00000   0.00813   0.00813   2.97397
    R6        2.91155  -0.04201   0.00000  -0.04562  -0.04561   2.86594
    R7        2.02201   0.03777   0.00000   0.03435   0.03435   2.05636
    R8        2.62043  -0.01011   0.00000  -0.00767  -0.00767   2.61276
    R9        2.02446   0.01080   0.00000   0.00985   0.00985   2.03430
   R10        3.02317  -0.01266   0.00000  -0.01533  -0.01533   3.00785
   R11        2.03483   0.01280   0.00000   0.01183   0.01183   2.04666
   R12        2.91251  -0.00403   0.00000  -0.00439  -0.00439   2.90812
   R13        2.02201   0.01707   0.00000   0.01552   0.01552   2.03753
   R14        2.02201  -0.00322   0.00000  -0.00292  -0.00292   2.01908
   R15        2.22555   0.07953   0.00000   0.02918   0.02918   2.25474
   R16        2.86889  -0.04886   0.00000  -0.05073  -0.05074   2.81815
   R17        2.67228  -0.00826   0.00000  -0.00710  -0.00710   2.66518
   R18        2.63928   0.00331   0.00000   0.00269   0.00269   2.64197
   R19        2.65623  -0.00863   0.00000  -0.00734  -0.00734   2.64889
   R20        2.00452   0.01885   0.00000   0.01677   0.01677   2.02129
   R21        2.64337  -0.00042   0.00000   0.00011   0.00011   2.64348
   R22        2.00569   0.01845   0.00000   0.01644   0.01644   2.02213
   R23        2.66762  -0.00532   0.00000  -0.00442  -0.00442   2.66320
   R24        2.03053   0.00860   0.00000   0.00790   0.00790   2.03844
   R25        2.61258   0.01410   0.00000   0.01091   0.01091   2.62349
   R26        2.04503   0.00378   0.00000   0.00354   0.00354   2.04857
   R27        2.90262  -0.00596   0.00000  -0.00641  -0.00641   2.89621
   R28        2.02454   0.01786   0.00000   0.01629   0.01629   2.04082
   R29        2.00787   0.02276   0.00000   0.02033   0.02033   2.02820
   R30        2.02712   0.01537   0.00000   0.01406   0.01406   2.04119
   R31        2.01521   0.01888   0.00000   0.01703   0.01703   2.03224
   R32        2.03484   0.01202   0.00000   0.01110   0.01110   2.04594
   R33        2.01201   0.02588   0.00000   0.02324   0.02324   2.03526
   R34        2.00039   0.02649   0.00000   0.02344   0.02344   2.02383
   R35        2.04935   0.00737   0.00000   0.00693   0.00693   2.05628
   R36        2.02217   0.01802   0.00000   0.01639   0.01639   2.03855
    A1        1.92991   0.00325   0.00000   0.00390   0.00391   1.93382
    A2        1.90674   0.00503   0.00000   0.00995   0.00997   1.91671
    A3        1.90674  -0.00318   0.00000  -0.00471  -0.00470   1.90204
    A4        1.90674  -0.00666   0.00000  -0.01136  -0.01138   1.89536
    A5        1.90674  -0.00008   0.00000  -0.00059  -0.00059   1.90615
    A6        1.90681   0.00164   0.00000   0.00282   0.00280   1.90961
    A7        2.03076   0.08668   0.00000   0.10280   0.10233   2.13310
    A8        2.17508  -0.04363   0.00000  -0.05080  -0.05133   2.12375
    A9        1.54548   0.00831   0.00000   0.02090   0.01986   1.56534
   A10        2.07499  -0.04163   0.00000  -0.04823  -0.04876   2.02623
   A11        1.56775   0.00686   0.00000   0.01654   0.01504   1.58279
   A12        1.53688   0.00303   0.00000   0.01243   0.01405   1.55093
   A13        2.09151   0.12182   0.00000   0.15460   0.15451   2.24602
   A14        2.14488  -0.07126   0.00000  -0.09259  -0.09270   2.05218
   A15        2.04289  -0.04969   0.00000  -0.06004  -0.06011   1.98279
   A16        2.26823   0.06374   0.00000   0.08066   0.08065   2.34888
   A17        2.12275  -0.04546   0.00000  -0.06104  -0.06103   2.06172
   A18        1.88963  -0.01851   0.00000  -0.02048  -0.02049   1.86914
   A19        2.07973  -0.02137   0.00000  -0.02526  -0.02525   2.05449
   A20        1.77582   0.01362   0.00000   0.01829   0.01793   1.79375
   A21        1.67372   0.03215   0.00000   0.05527   0.05517   1.72889
   A22        2.03431  -0.00476   0.00000  -0.01444  -0.01456   2.01975
   A23        1.98605  -0.01587   0.00000  -0.02760  -0.02741   1.95863
   A24        1.86834   0.00550   0.00000   0.01011   0.00916   1.87750
   A25        2.12615  -0.00622   0.00000  -0.00700  -0.00701   2.11914
   A26        2.07859   0.00381   0.00000   0.00483   0.00482   2.08341
   A27        2.07687   0.00264   0.00000   0.00269   0.00266   2.07954
   A28        2.09808   0.00050   0.00000  -0.00076  -0.00075   2.09734
   A29        2.10228  -0.00254   0.00000  -0.00306  -0.00306   2.09922
   A30        2.08260   0.00205   0.00000   0.00384   0.00383   2.08643
   A31        2.10856  -0.00418   0.00000  -0.00448  -0.00448   2.10408
   A32        2.09324   0.00047   0.00000  -0.00019  -0.00019   2.09305
   A33        2.08122   0.00373   0.00000   0.00471   0.00471   2.08593
   A34        2.08415   0.00756   0.00000   0.00859   0.00860   2.09275
   A35        2.10564  -0.00484   0.00000  -0.00589  -0.00589   2.09975
   A36        2.09336  -0.00271   0.00000  -0.00269  -0.00270   2.09066
   A37        2.09786   0.00198   0.00000   0.00373   0.00372   2.10158
   A38        2.09630  -0.00220   0.00000  -0.00368  -0.00368   2.09262
   A39        2.08898   0.00022   0.00000  -0.00005  -0.00004   2.08894
   A40        2.09947  -0.00844   0.00000  -0.00963  -0.00963   2.08984
   A41        2.08665   0.00411   0.00000   0.00468   0.00468   2.09132
   A42        2.09707   0.00434   0.00000   0.00495   0.00495   2.10202
   A43        1.91706   0.00229   0.00000   0.00335   0.00334   1.92040
   A44        1.90394   0.00507   0.00000   0.00761   0.00759   1.91153
   A45        1.90946   0.00369   0.00000   0.00562   0.00560   1.91506
   A46        1.91617  -0.00408   0.00000  -0.00628  -0.00629   1.90988
   A47        1.90106  -0.00297   0.00000  -0.00445  -0.00446   1.89660
   A48        1.91613  -0.00400   0.00000  -0.00585  -0.00587   1.91025
   A49        2.04586  -0.01216   0.00000  -0.02042  -0.02073   2.02513
   A50        2.08087  -0.01399   0.00000  -0.02310  -0.02337   2.05750
   A51        1.58545   0.04769   0.00000   0.07534   0.07566   1.66111
   A52        1.88711   0.01125   0.00000   0.01292   0.01239   1.89950
   A53        1.90916  -0.01468   0.00000  -0.01812  -0.01785   1.89131
   A54        1.92740  -0.01644   0.00000  -0.02115  -0.02080   1.90660
   A55        1.93676   0.00142   0.00000   0.00178   0.00177   1.93854
   A56        1.88831   0.00676   0.00000   0.01056   0.01053   1.89884
   A57        1.91063   0.00218   0.00000   0.00318   0.00317   1.91380
[...]
 79,0.00001032,0.00003084,0.00009339,-0.00000721,-0.00001480,0.00000503
 ,-0.00001586,-0.00000719,-0.00000755,0.00003815,0.00005208,-0.00001454
 ,0.09574593,0.00111960,-0.26881424,0.00360739,-0.00012889,-0.00848047,
 -0.00051897,0.00025390,0.00286028,-0.10381441,-0.00292845,0.29282245,-
 0.05334564,0.02505518,0.00800603,-0.00236538,0.01138839,0.00598496,-0.
 00033290,-0.00087466,-0.00085765,0.00010550,0.00019058,0.00015262,0.00
 029356,-0.00008283,0.00028765,0.00007379,0.00002100,-0.00004503,-0.000
 04868,-0.00009402,0.00003187,0.00076055,0.00149671,0.00011374,-0.00013
 694,-0.00031509,-0.00020177,-0.00002794,-0.00005716,0.00000139,0.00000
 438,-0.00000345,0.00003457,0.00003136,0.00001884,0.00002323,0.00000873
 ,0.00000012,-0.00002841,-0.00002802,0.00000977,-0.00002113,0.00000917,
 0.00001698,-0.00000309,-0.00000339,-0.00000360,-0.00000171,-0.00000755
 ,0.00001134,0.00000213,0.00000494,0.00000456,0.00000517,0.00000770,0.0
 0000516,-0.00000752,0.00000367,-0.00001238,-0.00000379,0.00001154,0.00
 000271,-0.00000036,0.00000370,0.00000510,-0.00000366,0.00000167,0.0000
 0417,0.00000250,-0.00010801,0.00002362,-0.00011304,0.00000065,-0.00000
 458,0.00002581,0.00002001,0.00003291,-0.00004021,-0.00000747,-0.000027
 70,0.00001616,-0.00253444,0.01974873,0.00587367,-0.00189335,0.00247905
 ,-0.00273914,0.00034373,-0.00006425,0.00083565,0.00066289,-0.00062842,
 0.00014018,0.05514174,0.02591397,-0.27983008,-0.07808451,-0.00022612,0
 .00018373,0.00040928,0.00008090,0.00077240,0.00019708,-0.00035814,0.00
 008791,-0.00036260,-0.00051317,-0.00035359,0.00023933,-0.00007451,0.00
 002496,0.00006304,0.00001728,0.00006940,-0.00002340,-0.00014650,0.0007
 9846,0.00004673,0.00027022,0.00019418,0.00003013,-0.00005236,-0.000092
 03,0.00000678,0.00003847,0.00002778,-0.00004083,0.00002989,0.00002639,
 0.00000808,0.00000138,0.00001827,0.00000367,0.00001778,-0.00002521,0.0
 0000776,-0.00000026,0.00001206,0.00000647,0.00000027,-0.00001056,0.000
 00577,-0.00000114,0.00001268,0.00000064,0.00001058,0.00000065,0.000002
 67,0.00000595,-0.00000005,-0.00000298,0.00000528,-0.00001246,-0.000000
 54,0.00000473,0.00000249,-0.00000023,0.00000206,0.00000261,-0.00000192
 ,0.00000338,0.00000365,0.00000230,0.00016486,0.00001736,0.00012074,-0.
 00002113,-0.00000405,0.00002229,-0.00003820,-0.00004712,0.00007125,0.0
 0001452,0.00001547,-0.00001483,0.00179215,-0.01483473,-0.00428285,0.00
 206291,-0.00008231,0.00262937,0.00033005,0.00075948,-0.00003975,-0.000
 34546,0.00007306,0.00055910,-0.03011485,0.30425316,0.00829932,-0.07597
 704,-0.07197281,0.00413789,-0.02880291,-0.01495222,0.00098243,-0.00164
 716,0.00150897,-0.00056812,0.00015037,-0.00001925,-0.00040074,0.000369
 32,-0.00049870,-0.00002078,0.00006335,0.00025293,0.00007482,0.00015200
 ,0.00002829,-0.00175435,-0.00076395,0.00102765,0.00065571,0.00052258,0
 .00017789,-0.00011857,-0.00002132,-0.00005492,0.00004485,-0.00000106,0
 .00000267,0.00003058,0.00001486,-0.00001502,0.00000166,-0.00000594,-0.
 00000441,-0.00000498,0.00000356,0.00000506,-0.00000272,0.00001021,0.00
 000605,0.00000045,-0.00001242,0.00000144,0.00001597,-0.00001210,-0.000
 00628,0.00000244,0.00000350,0.00000350,0.00000535,0.00000109,-0.000003
 49,-0.00000267,0.00000026,0.00000247,0.00000586,0.00000188,-0.00000071
 ,0.00000194,0.00000221,-0.00000188,0.00000208,0.00000280,0.00000138,0.
 00028078,0.00004277,0.00016907,-0.00004424,-0.00001210,0.00003709,-0.0
 0008655,-0.00007636,0.00010270,-0.00000169,-0.00000005,-0.00001877,-0.
 00264487,0.02183999,0.00670210,-0.00323856,0.00257086,-0.00244042,0.00
 036438,-0.00078063,0.00064605,0.00070569,-0.00015296,0.00063651,-0.009
 69665,0.08147874,0.08479572,0.00009544,0.00002046,-0.00004544,-0.00022
 192,-0.00020788,-0.00019146,-0.00093245,-0.00169737,-0.00055262,0.0120
 9208,-0.01118987,-0.00682850,-0.17243354,0.10944855,0.05791937,-0.0007
 8475,-0.00037377,0.00085778,0.00086309,0.00060267,0.00038748,-0.000518
 29,0.00011396,0.00010525,0.00026233,0.00036509,0.00003741,0.00009072,0
 .00006049,-0.00001630,0.00002347,0.00000119,0.00005159,-0.00005622,0.0
 0003153,-0.00000185,-0.00003856,-0.00002032,0.00003521,0.00000756,0.00
 000386,-0.00000451,0.00002915,0.00003478,-0.00003543,0.00002551,-0.000
 05088,-0.00003388,0.00002012,-0.00002213,-0.00003129,-0.00001727,-0.00
 000582,-0.00001272,-0.00000059,-0.00000648,0.00000868,-0.00000375,0.00
 002046,-0.00000094,-0.00002015,-0.00000442,0.00000244,-0.00000321,-0.0
 0000782,0.00000593,-0.00000810,-0.00001102,-0.00000754,-0.01471641,0.0
 1113904,0.00745899,-0.00115024,-0.00281386,0.00291512,0.00097948,-0.00
 019908,0.00005239,-0.00008731,-0.00011668,-0.00065116,-0.00001725,0.00
 003613,0.00004933,-0.00000710,0.00000299,-0.00001375,0.00002233,-0.000
 00368,0.00003118,0.00002384,0.00000480,-0.00000172,-0.00007167,0.00000
 357,0.00013127,0.18958301,0.00018493,-0.00026864,-0.00026636,0.0000715
 4,0.00053972,-0.00064871,-0.00297910,-0.00065441,-0.00281852,0.0184195
 5,-0.02196712,-0.00896606,0.11148807,-0.13916873,-0.05488884,-0.001160
 21,-0.00108999,0.00143159,-0.00071010,0.00098046,0.00019020,0.00019896
 ,-0.00004113,0.00008219,0.00005510,-0.00008738,0.00001218,-0.00018508,
 -0.00010824,0.00000685,0.00005870,0.00004251,-0.00001885,0.00004604,0.
 00005702,0.00003910,-0.00000228,-0.00000026,-0.00002308,-0.00000965,-0
 .00001133,-0.00001012,0.00002236,0.00003582,0.00000745,0.00000301,-0.0
 0004214,-0.00001524,0.00000571,0.00001390,-0.00000970,0.00001317,0.000
 00516,0.00000696,0.00001569,0.00000358,-0.00000983,0.00000736,-0.00001
 869,-0.00000132,0.00001505,0.00000575,-0.00000102,0.00000572,0.0000073
 7,-0.00000467,0.00000451,0.00000760,0.00000312,-0.01384202,0.01066958,
 0.00736242,-0.00248442,-0.00105242,0.00291894,0.00049275,0.00055457,-0
 .00067269,0.00036406,0.00091848,-0.00060151,-0.00004887,0.00005750,0.0
 0010646,-0.00001164,0.00001624,-0.00001319,0.00000474,-0.00000310,-0.0
 0001393,0.00001809,-0.00003319,0.00005688,0.00010552,0.00009325,0.0000
 0057,-0.11631784,0.15650038,0.00009102,0.00000055,0.00010430,-0.000174
 14,-0.00001464,-0.00019714,-0.00152768,-0.00101208,-0.00143870,0.01017
 047,-0.00987938,-0.00433544,0.05800981,-0.05440961,-0.08035141,-0.0003
 7297,-0.00040809,0.00069268,-0.00008587,0.00011534,0.00027041,-0.00038
 827,-0.00005172,0.00013919,0.00004934,0.00043495,0.00009716,0.00013981
 ,0.00008296,-0.00004429,-0.00001256,-0.00001816,-0.00001227,-0.0000433
 6,-0.00005207,-0.00003110,0.00000152,0.00001258,0.00002499,0.00000602,
 -0.00000204,0.00001163,0.00000471,-0.00001724,0.00001461,-0.00001555,0
 .00003728,0.00003014,-0.00002040,-0.00001030,-0.00000900,-0.00000174,-
 0.00000105,0.00000060,-0.00000730,-0.00000036,0.00000215,-0.00000198,0
 .00000432,0.00000361,-0.00000360,-0.00000228,0.00000007,-0.00000294,-0
 .00000259,-0.00000062,-0.00000007,-0.00000104,0.00000158,0.01845205,-0
 .01239224,-0.00960681,0.00245334,0.00285430,-0.00254269,-0.00048220,-0
 .00067449,0.00021506,-0.00066681,0.00002868,0.00103151,-0.00002308,0.0
 0004050,0.00003028,0.00000348,-0.00000629,-0.00000858,0.00002905,-0.00
 000966,0.00002324,0.00001697,-0.00000666,0.00002195,-0.00008794,-0.000
 07037,0.00009252,-0.06830078,0.05956642,0.08522018,0.00034493,-0.00077
 726,-0.00053027,0.00038108,-0.00017676,-0.00014297,0.00027262,0.000393
 06,0.00056133,-0.01040274,0.00353001,-0.01124844,-0.13587894,0.0436679
 1,-0.11856030,-0.00007650,0.00002608,0.00014756,0.00027006,-0.00264784
 ,-0.00132031,-0.00057665,0.00127283,0.00023060,-0.00138134,0.00092658,
 0.00026617,0.00018869,0.00003282,-0.00003728,0.00005300,-0.00006754,-0
 .00008924,-0.00003120,-0.00006639,0.00011167,-0.00001983,-0.00000314,0
 .00001533,-0.00001177,0.00002115,-0.00001878,0.00005923,0.00004686,0.0
 0001676,-0.00000407,-0.00000345,0.00000580,-0.00002857,-0.00000817,-0.
 00004544,0.00001213,0.00000669,0.00000465,0.00001022,0.00000563,-0.000
 00503,0.00000333,-0.00000619,-0.00000143,0.00000578,0.00000146,0.00000
 027,0.00000259,0.00000285,-0.00000263,0.00000247,0.00000412,0.00000271
 ,0.01135890,-0.00655774,0.01652295,0.00085272,0.00049997,-0.00026856,-
 0.00172271,-0.00239983,0.00362875,0.00071510,0.00043653,-0.00061841,0.
 00002124,0.00025408,0.00030096,-0.00009546,0.00009677,-0.00008432,-0.0
 0002953,-0.00001146,-0.00003847,0.00001117,-0.00004115,0.00002695,-0.0
 0006230,0.00010310,0.00068207,-0.01312548,0.00612010,-0.01731753,0.149
 04971,0.00009930,-0.00059934,0.00019420,0.00034455,-0.00117365,0.00008
 076,-0.00011856,0.00057693,0.00002319,-0.01745042,0.00941201,-0.022079
 02,0.04483428,-0.07165398,0.05708965,0.00000455,0.00036117,0.00032073,
 -0.00261693,-0.00382105,-0.00275687,0.00122660,-0.00193314,-0.00012328
 ,0.00104942,-0.00045248,-0.00017402,-0.00009217,0.00007219,0.00006399,
 -0.00003607,-0.00004922,0.00006837,-0.00001941,0.00001533,-0.00002079,
 -0.00002281,-0.00002660,-0.00001773,-0.00000572,0.00003538,-0.00002026
 ,-0.00003327,-0.00005518,-0.00002305,0.00000690,0.00000452,-0.00002539
 ,0.00000756,-0.00000541,0.00002637,-0.00001909,-0.00000128,-0.00000663
 ,-0.00000411,-0.00000614,0.00000106,-0.00001022,0.00001026,0.00000205,
 -0.00000411,-0.00000320,-0.00000028,-0.00000125,-0.00000150,-0.0000005
 7,-0.00000523,-0.00000428,-0.00000308,0.00910791,-0.00548231,0.0139930
 4,-0.00007820,0.00062292,-0.00073359,-0.00258649,-0.00108735,0.0020724
 4,0.00039028,-0.00022828,-0.00023992,0.00000851,0.00005504,0.00006365,
 -0.00001934,0.00002192,-0.00002636,0.00000518,-0.00000420,0.00001012,0
 .00001216,0.00001338,-0.00002148,-0.00033519,-0.00059267,0.00078328,0.
 01111553,-0.00591856,0.01581918,-0.04479403,0.08158174,0.00027422,0.00
 022945,-0.00023373,-0.00019303,-0.00071085,-0.00001760,0.00010691,0.00
 007843,0.00005812,-0.00818135,0.00417132,-0.01006255,-0.11685360,0.053
 97035,-0.20523411,0.00009045,-0.00002262,0.00015969,-0.00089467,-0.001
 93712,0.00007133,-0.00072098,-0.00014187,0.00042168,-0.00024026,0.0009
 8439,0.00023684,0.00056705,0.00021277,-0.00010575,-0.00002414,-0.00004
 744,0.00001654,-0.00013565,-0.00005816,-0.00001553,-0.00002724,-0.0000
 0444,0.00007876,0.00001697,0.00000564,0.00001312,0.00004532,-0.0000100
 4,-0.00002755,0.00000030,0.00002467,0.00000820,-0.00001445,-0.00003138
 ,-0.00004734,-0.00001777,-0.00001053,-0.00001316,-0.00002485,-0.000005
 86,0.00002168,-0.00000874,0.00003928,-0.00000180,-0.00003521,-0.000011
 91,0.00000284,-0.00001128,-0.00001712,0.00001127,-0.00000891,-0.000014
 91,-0.00000592,-0.01123707,0.00758647,-0.01791932,-0.00031398,-0.00069
 142,0.00019805,0.00305421,0.00235814,-0.00191992,0.00004811,0.00016812
 ,0.00082287,-0.00000453,0.00008326,0.00009423,-0.00003093,0.00001848,-
 0.00002020,0.00001563,-0.00000282,0.00003626,0.00003101,-0.00000567,0.
 00000710,0.00015571,0.00081877,-0.00011621,0.00675502,-0.00281736,0.01
 061228,0.12766084,-0.06426866,0.22298557,-0.25813535,-0.09841765,-0.00
 500346,-0.01080656,-0.00562006,0.00065383,0.00037382,0.00104961,-0.001
 06734,0.00050260,-0.00044036,-0.00001132,0.00001539,0.00013196,-0.0001
 5291,0.00022507,-0.00016780,0.00045135,-0.00003003,-0.00005390,0.00007
 429,-0.00037362,0.00041647,0.00241727,0.00009926,0.00002658,0.00000242
 ,0.00016957,0.00004509,-0.00011404,-0.00009255,-0.00006089,0.00003329,
 -0.00008412,-0.00004327,-0.00005304,-0.00002409,-0.00000363,0.00000911
 ,0.00002576,0.00002855,0.00002780,-0.00002316,-0.00002144,0.00000851,0
 .00001605,0.00001662,-0.00000966,0.00001394,-0.00001020,-0.00000024,-0
 .00002201,-0.00001032,-0.00001111,-0.00002277,-0.00001102,0.00001654,-
 0.00000405,0.00002066,0.00000223,-0.00002170,-0.00000477,0.00000034,-0
 .00000733,-0.00001096,0.00000975,-0.00000636,-0.00000977,-0.00000684,-
 0.00004928,0.00004188,0.00007453,0.00000377,-0.00000211,-0.00003991,0.
 00001331,-0.00001236,-0.00000410,0.00001838,0.00003606,-0.00001787,-0.
 01731336,-0.00778822,-0.00121045,0.00021777,0.00038029,0.00060610,-0.0
 0113301,0.00249967,-0.00263323,0.00070223,-0.00010673,-0.00044013,0.00
 386853,0.00112924,-0.00033271,0.00005675,-0.00001453,0.00006867,-0.000
 02457,0.00004583,0.00005807,0.28189517,-0.09845000,-0.09694266,-0.0037
 2355,0.00073369,-0.00068100,-0.00066675,-0.00029986,0.00035609,0.00014
 243,0.00021196,-0.00042113,-0.00027533,-0.00042181,-0.00004568,-0.0001
 4540,0.00000206,-0.00001059,0.00022869,0.00003131,0.00001235,0.0000580
 3,-0.00054414,0.00076526,0.00036314,0.00030812,0.00025450,0.00020405,0
 .00009059,0.00002331,-0.00001526,-0.00002149,-0.00003137,0.00004796,-0
 .00006218,-0.00000661,-0.00003493,-0.00003091,0.00001820,0.00000528,0.
 00002251,-0.00002093,0.00000238,0.00000032,-0.00002820,-0.00000446,0.0
 0000677,0.00001245,-0.00000778,0.00000847,-0.00000959,-0.00000293,-0.0
 0001335,-0.00000718,-0.00000638,-0.00001099,-0.00000697,0.00000839,-0.
 00000392,0.00001322,0.00000115,-0.00001378,-0.00000354,0.00000081,-0.0
 0000385,-0.00000622,0.00000363,-0.00000345,-0.00000672,-0.00000374,0.0
 0015557,0.00000384,0.00013396,-0.00000753,0.00000254,-0.00002476,-0.00
 002763,-0.00005076,0.00006118,0.00001128,0.00002521,-0.00001279,0.0175
 4180,0.00747632,0.00114064,-0.00013665,0.00083015,-0.00070510,0.002806
 83,-0.00105289,0.00258445,-0.00066902,0.00051854,-0.00062846,-0.028335
 18,-0.01292656,-0.00016010,0.00003168,-0.00001857,0.00003848,0.0001996
 5,0.00016765,0.00005703,0.10648697,0.10134712,-0.00618921,-0.00489216,
 -0.04707132,0.02853935,0.01454821,-0.00331630,0.00116976,0.00026875,0.
 00077659,-0.00025858,0.00021766,0.00010715,-0.00001427,-0.00005197,0.0
 0014474,-0.00006685,-0.00007937,-0.00034924,0.00002101,0.00004562,-0.0
 0005407,0.00143401,-0.00049954,-0.00623864,0.00111623,0.00053704,0.000
 30105,-0.00027315,-0.00007676,0.00039980,0.00025170,0.00013732,-0.0001
 9280,0.00010904,0.00006782,0.00006018,0.00005638,0.00000199,0.00006130
 ,-0.00001819,0.00000697,0.00000010,0.00002190,0.00002338,-0.00000376,-
 0.00002437,-0.00002360,0.00002655,-0.00000544,0.00001022,0.00000003,0.
 00004103,0.00002314,0.00001013,0.00002693,0.00001316,-0.00001526,0.000
 00465,-0.00001753,0.00000329,0.00002334,0.00000697,-0.00000249,0.00000
 672,0.00000933,-0.00000628,0.00000807,0.00001153,0.00000557,0.00004268
 ,-0.00008204,-0.00011301,-0.00000963,-0.00000012,0.00005422,-0.0000159
 3,0.00002034,0.00000992,-0.00003588,-0.00005175,0.00001989,-0.02063183
 ,-0.00906439,-0.00129439,0.00079908,0.00013359,0.00068865,-0.00255003,
 0.00304350,-0.00244357,0.00026424,-0.00063366,0.00021547,-0.01020025,-
 0.00432563,-0.00025674,-0.00006537,-0.00003106,-0.00006739,0.00004552,
 -0.00006060,-0.00010227,0.00670332,0.00099784,0.05736337,-0.00108001,0
 .01185819,0.00566324,-0.04941796,0.02368593,0.00675186,-0.00442890,0.0
 2335977,0.00428952,-0.00255901,0.00033895,-0.00240796,-0.00014637,-0.0
 0024126,-0.00026671,0.00027356,0.00043795,-0.00000224,0.00010726,0.000
 84414,-0.00069175,-0.00287198,-0.03426303,-0.00888873,-0.00126363,0.00
 020863,0.00036544,-0.00043883,0.00124603,0.00048617,0.00001509,-0.0000
 7782,0.00016160,-0.00024669,-0.00001436,-0.00021599,-0.00006133,0.0000
 0700,0.00020755,0.00002267,-0.00000142,-0.00001341,-0.00000950,-0.0002
 3184,-0.00014348,-0.00001746,0.00005469,0.00002606,-0.00001062,-0.0000
 6430,0.00002176,-0.00003116,-0.00001809,-0.00003242,-0.00003477,-0.000
 02819,0.00003759,-0.00004386,0.00008513,0.00000754,-0.00007752,-0.0000
 2805,0.00000260,-0.00002242,-0.00003749,0.00000863,-0.00002015,-0.0000
 3699,-0.00000750,-0.00003232,0.00012707,0.00019077,0.00001428,-0.00002
 055,-0.00010823,0.00003287,-0.00004726,0.00000721,0.00005949,0.0000985
 9,-0.00001934,0.00014358,-0.00049839,-0.00102127,0.00029279,-0.0001228
 6,-0.00003457,0.00001987,-0.00008890,0.00001982,-0.00018142,0.00002256
 ,-0.00004103,-0.00038412,-0.00011073,0.00249266,0.00003941,0.00004501,
 0.00004052,-0.00014329,-0.00000595,0.00009880,-0.00004346,0.00040613,-
 0.00032595,0.06254590,0.00105349,-0.00103702,-0.00140837,0.02973963,-0
 .26940506,-0.06611081,0.00203032,-0.01455699,-0.00345040,0.00246821,0.
 00080527,0.00181308,0.00012814,0.00049962,-0.00015500,-0.00018340,0.00
 153091,0.00034466,-0.00007202,-0.00070955,0.00044512,-0.00892728,-0.01
 657453,-0.00299838,0.00143650,0.00106573,-0.00012102,-0.00072994,0.000
 13026,0.00023880,0.00017394,0.00000351,0.00022819,-0.00004798,0.000090
 85,-0.00029405,-0.00008734,-0.00006298,0.00014364,0.00001014,0.0000113
 7,-0.00000791,-0.00007823,-0.00011060,-0.00008872,0.00000418,0.0000115
 6,0.00001147,0.00004409,-0.00000191,-0.00000801,-0.00002042,-0.0000116
 5,-0.00001667,-0.00001891,-0.00002373,0.00002168,-0.00003534,0.0000451
 6,0.00000317,-0.00004069,-0.00001570,0.00000169,-0.00000906,-0.0000210
 0,0.00000519,-0.00000925,-0.00001999,-0.00000244,0.00001084,0.00005047
 ,0.00004743,-0.00000234,0.00000667,-0.00004167,0.00002108,-0.00001252,
 -0.00000038,-0.00000802,0.00000437,-0.00001170,-0.00036354,0.00095431,
 0.00065380,-0.00032548,0.00029897,-0.00056204,0.00003562,-0.00002051,-
 0.00000204,-0.00002093,0.00029862,0.00002322,0.00033292,0.00136203,0.0
 0041192,0.00001217,-0.00002495,0.00000685,-0.00008730,0.00014940,0.000
 00359,0.00045449,0.00045042,-0.00023422,-0.02688830,0.29483922,0.00511
 039,-0.03052076,-0.01489557,0.00826530,-0.06758202,-0.06217329,-0.0057
 4064,0.02250800,0.00320050,-0.00229174,0.00045697,-0.00177601,-0.00020
 603,-0.00023163,-0.00012009,0.00017830,0.00033390,0.00085329,-0.000017
 99,0.00070437,-0.00062450,-0.00138890,0.00256817,0.00133969,0.00088094
 ,0.00004959,0.00027538,-0.00025814,-0.00030697,0.00003231,0.00003551,0
 .00006715,0.00007583,0.00005050,-0.00000456,-0.00004949,-0.00007679,0.
 00001134,-0.00002680,0.00002193,-0.00002341,0.00000615,-0.00001156,-0.
 00003464,0.00002989,0.00000103,0.00002314,-0.00001869,0.00003257,0.000
 03178,-0.00001732,-0.00000216,-0.00000571,0.00000242,-0.00000351,0.000
 00022,-0.00000327,0.00000122,-0.00001639,-0.00000042,0.00001201,0.0000
 0365,-0.00000017,0.00000275,0.00000532,-0.00000204,0.00000329,0.000004
 87,-0.00000044,0.00002237,0.00003940,0.00004293,-0.00000277,-0.0000058
 5,0.00001739,-0.00001695,-0.00001941,0.00002952,0.00002564,0.00001161,
 -0.00000845,-0.00003487,-0.00157226,0.00115000,-0.00040892,0.00116976,
 -0.00042723,-0.00004120,0.00005443,-0.00008261,0.00017857,0.00028075,0
 .00054986,0.00235829,0.00052046,-0.00583823,-0.00000917,0.00004070,0.0
 0000531,0.00009854,-0.00001049,-0.00001347,-0.00010907,0.00033822,0.00
 127953,-0.00665874,0.07111031,0.07718810\\0.00000104,0.00000007,0.0000
 0180,-0.00000253,0.00000162,-0.00000021,0.00000408,0.00000299,0.000000
 40,0.00000156,-0.00000304,-0.00000317,-0.00000050,-0.00000136,0.000002
 29,0.00000039,-0.00000154,0.00000038,-0.00000057,-0.00000041,0.0000008
 5,0.00000086,0.00000074,0.00000036,-0.00000132,-0.00000029,-0.00000153
 ,0.00000035,0.00000050,0.00000073,0.00000234,-0.00000147,0.00000055,-0
 .00000304,0.00000069,0.00000037,-0.00000076,-0.00000083,0.00000175,-0.
 00000012,0.00000072,0.00000006,0.00000107,0.00000184,0.00000159,0.0000
 0039,-0.00000031,0.00000029,-0.00000083,-0.00000013,-0.00000498,-0.000
 00022,0.00000072,0.00000006,-0.00000017,-0.00000022,0.00000010,0.00000
 038,0.00000050,-0.00000053,-0.00000011,0.00000069,0.00000220,0.0000001
 0,-0.00000115,0.00000017,-0.00000068,0.00000162,-0.00000037,-0.0000005
 3,0.00000031,-0.00000173,-0.00000030,-0.00000066,-0.00000056,0.0000001
 7,-0.00000083,-0.00000058,-0.00000057,-0.00000082,-0.00000034,0.000000
 13,0.00000003,-0.00000078,-0.00000075,0.00000066,0.00000079,0.00000036
 ,0.00000072,0.00000053,0.00000021,0.00000113,0.00000030,-0.00000011,-0
 .00000038,-0.00000029,0.00000022,-0.00000049,-0.00000052,-0.00000021,0
 .00000042,-0.00000155,-0.00000060,0.00000010,-0.00000094,0.00000025,-0
 .00000216,0.00000253\\\@


 READER, WHETHER YOU BE DILETTANTE OR PROFESSOR ... SHOW YOURSELF TO BE
 MORE HUMAN THAN CRITICAL, AND THEN YOUR PLEASURE WILL INCREASE.
                                           -- DOMENICO SCARLATTI (1738)
 Job cpu time:       0 days  3 hours 22 minutes 11.8 seconds.
 Elapsed time:       0 days  0 hours  6 minutes 44.4 seconds.
 File lengths (MBytes):  RWF=    442 Int=      0 D2E=      0 Chk=     13 Scr=      1
 Normal termination of Gaussian 16 at Sat Sep 16 14:04:30 2023.
