 Entering Gaussian System, Link 0=/home/ubuntu/g16/g16
 Input=/home/ubuntu/products/MOLECULE_41.gjf
 Output=/home/ubuntu/products/MOLECULE_41.log
 Initial command:
 /home/ubuntu/g16/l1.exe "/home/ubuntu/Scratch/Gau-41587.inp" -scrdir="/home/ubuntu/Scratch/"
 Entering Link 1 = /home/ubuntu/g16/l1.exe PID=     41589.
  
 Copyright (c) 1988-2017, Gaussian, Inc.  All Rights Reserved.
  
 This is part of the Gaussian(R) 16 program.  It is based on
 the Gaussian(R) 09 system (copyright 2009, Gaussian, Inc.),
 the Gaussian(R) 03 system (copyright 2003, Gaussian, Inc.),
 the Gaussian(R) 98 system (copyright 1998, Gaussian, Inc.),
 the Gaussian(R) 94 system (copyright 1995, Gaussian, Inc.),
 the Gaussian 92(TM) system (copyright 1992, Gaussian, Inc.),
 the Gaussian 90(TM) system (copyright 1990, Gaussian, Inc.),
 the Gaussian 88(TM) system (copyright 1988, Gaussian, Inc.),
 the Gaussian 86(TM) system (copyright 1986, Carnegie Mellon
 University), and the Gaussian 82(TM) system (copyright 1983,
 Carnegie Mellon University). Gaussian is a federally registered
 trademark of Gaussian, Inc.
  
 This software contains proprietary and confidential information,
 including trade secrets, belonging to Gaussian, Inc.
  
 This software is provided under written license and may be
 used, copied, transmitted, or stored only in accord with that
 written license.
  
 The following legend is applicable only to US Government
 contracts under FAR:
  
                    RESTRICTED RIGHTS LEGEND
  
 Use, reproduction and disclosure by the US Government is
 subject to restrictions as set forth in subparagraphs (a)
 and (c) of the Commercial Computer Software - Restricted
 Rights clause in FAR 52.227-19.
  
 Gaussian, Inc.
 340 Quinnipiac St., Bldg. 40, Wallingford CT 06492
  
  
 ---------------------------------------------------------------
 Warning -- This program may not be used in any manner that
 competes with the business of Gaussian, Inc. or will provide
 assistance to any competitor of Gaussian, Inc.  The licensee
 of this program is prohibited from giving any competitor of
 Gaussian, Inc. access to this program.  By using this program,
 the user acknowledges that Gaussian, Inc. is engaged in the
 business of creating and licensing software in the field of
 computational chemistry and represents and warrants to the
 licensee that it is not a competitor of Gaussian, Inc. and that
 it will not use this program in any manner prohibited above.
 ---------------------------------------------------------------
  

 Cite this work as:
 Gaussian 16, Revision B.01,
 M. J. Frisch, G. W. Trucks, H. B. Schlegel, G. E. Scuseria, 
 M. A. Robb, J. R. Cheeseman, G. Scalmani, V. Barone, 
 G. A. Petersson, H. Nakatsuji, X. Li, M. Caricato, A. V. Marenich, 
 J. Bloino, B. G. Janesko, R. Gomperts, B. Mennucci, H. P. Hratchian, 
 J. V. Ortiz, A. F. Izmaylov, J. L. Sonnenberg, D. Williams-Young, 
 F. Ding, F. Lipparini, F. Egidi, J. Goings, B. Peng, A. Petrone, 
 T. Henderson, D. Ranasinghe, V. G. Zakrzewski, J. Gao, N. Rega, 
 G. Zheng, W. Liang, M. Hada, M. Ehara, K. Toyota, R. Fukuda, 
 J. Hasegawa, M. Ishida, T. Nakajima, Y. Honda, O. Kitao, H. Nakai, 
 T. Vreven, K. Throssell, J. A. Montgomery, Jr., J. E. Peralta, 
 F. Ogliaro, M. J. Bearpark, J. J. Heyd, E. N. Brothers, K. N. Kudin, 
 V. N. Staroverov, T. A. Keith, R. Kobayashi, J. Normand, 
 K. Raghavachari, A. P. Rendell, J. C. Burant, S. S. Iyengar, 
 J. Tomasi, M. Cossi, J. M. Millam, M. Klene, C. Adamo, R. Cammi, 
 J. W. Ochterski, R. L. Martin, K. Morokuma, O. Farkas, 
 J. B. Foresman, and D. J. Fox, Gaussian, Inc., Wallingford CT, 2016.
 
 ******************************************
 Gaussian 16:  EM64L-G16RevB.01 20-Dec-2017
                18-Sep-2023 
 ******************************************
 %nprocshared=30
 Will use up to   30 processors via shared memory.
 %mem=30GB
 %chk=MOLECULE_41.chk
 ----------------------------------------------------------------------
 # opt freq b3lyp/6-31+g(d) geom=connectivity empiricaldispersion=gd3 v
 olume
 ----------------------------------------------------------------------
 1/18=20,19=15,26=3,38=1,57=2/1,3;
 2/9=110,12=2,17=6,18=5,40=1/2;
 3/5=1,6=6,7=11,11=2,25=1,30=1,71=1,74=-5,124=31/1,2,3;
 4//1;
 5/5=2,38=5/2;
 6/7=2,8=2,9=2,10=2,28=1,44=1/1,4;
 7//1,2,3,16;
 1/18=20,19=15,26=3/3(2);
 2/9=110/2;
 99//99;
 2/9=110/2;
 3/5=1,6=6,7=11,11=2,25=1,30=1,71=1,74=-5,124=31/1,2,3;
 4/5=5,16=3,69=1/1;
 5/5=2,38=5/2;
 7//1,2,3,16;
 1/18=20,19=15,26=3/3(-5);
 2/9=110/2;
 6/7=2,8=2,9=2,10=2,19=2,28=1,44=1/1,4;
 99/9=1/99;
 -------------------
 Title Card Required
 -------------------
 Symbolic Z-matrix:
 Charge =  0 Multiplicity = 1
 C                    -5.86814  -1.20357   0.00354 
 C                    -3.8976   -0.02131   0.0012 
 C                    -4.58917   1.20744   0.00155 
 C                    -5.98139   1.193     0.0033 
 C                    -6.64188  -0.03719   0.00438 
 H                    -6.34735  -2.18114   0.00441 
 H                    -4.03252   2.13939   0.00055 
 H                    -6.53992   2.12541   0.00377 
 H                    -7.72632  -0.09807   0.00576 
 C                    -2.47074  -0.03537  -0.00086 
 C                    -1.24955  -0.02047  -0.00241 
 C                     0.11036  -0.00971  -0.00398 
 C                     1.3327    0.00001  -0.00526 
 C                     2.75372   0.00184  -0.00529 
 C                     3.47463   1.21432  -0.0072 
 C                     3.47464  -1.21092  -0.00763 
 C                     4.86689   1.20562  -0.00938 
 H                     2.93212   2.15527  -0.01024 
 C                     4.86678  -1.20202  -0.0098 
 H                     2.93176  -2.15158  -0.01098 
 C                     5.58888   0.00183  -0.00778 
 H                     5.40478   2.15131  -0.01397 
 H                     5.40463  -2.14771  -0.01472 
 C                     7.09874   0.00154   0.02718 
 H                     7.46529  -0.00405   1.06292 
 H                     7.51211  -0.88298  -0.47004 
 H                     7.51242   0.89104  -0.46081 
 N                    -4.53288  -1.21532   0.002 
 

 GradGradGradGradGradGradGradGradGradGradGradGradGradGradGradGradGradGrad
 Berny optimization.
 Initialization pass.
                           ----------------------------
                           !    Initial Parameters    !
                           ! (Angstroms and Degrees)  !
 --------------------------                            --------------------------
 ! Name  Definition              Value          Derivative Info.                !
 --------------------------------------------------------------------------------
 ! R1    R(1,5)                  1.3997         estimate D2E/DX2                !
 ! R2    R(1,6)                  1.0887         estimate D2E/DX2                !
 ! R3    R(1,28)                 1.3353         estimate D2E/DX2                !
 ! R4    R(2,3)                  1.41           estimate D2E/DX2                !
 ! R5    R(2,10)                 1.4269         estimate D2E/DX2                !
 ! R6    R(2,28)                 1.3525         estimate D2E/DX2                !
 ! R7    R(3,4)                  1.3923         estimate D2E/DX2                !
 ! R8    R(3,7)                  1.0855         estimate D2E/DX2                !
 ! R9    R(4,5)                  1.3963         estimate D2E/DX2                !
 ! R10   R(4,8)                  1.0869         estimate D2E/DX2                !
 ! R11   R(5,9)                  1.0861         estimate D2E/DX2                !
 ! R12   R(10,11)                1.2213         estimate D2E/DX2                !
 ! R13   R(11,12)                1.36           estimate D2E/DX2                !
 ! R14   R(12,13)                1.2224         estimate D2E/DX2                !
 ! R15   R(13,14)                1.421          estimate D2E/DX2                !
 ! R16   R(14,15)                1.4106         estimate D2E/DX2                !
 ! R17   R(14,16)                1.4109         estimate D2E/DX2                !
 ! R18   R(15,17)                1.3923         estimate D2E/DX2                !
 ! R19   R(15,18)                1.0861         estimate D2E/DX2                !
 ! R20   R(16,19)                1.3922         estimate D2E/DX2                !
 ! R21   R(16,20)                1.0861         estimate D2E/DX2                !
 ! R22   R(17,21)                1.4037         estimate D2E/DX2                !
 ! R23   R(17,22)                1.088          estimate D2E/DX2                !
 ! R24   R(19,21)                1.4038         estimate D2E/DX2                !
 ! R25   R(19,23)                1.088          estimate D2E/DX2                !
 ! R26   R(21,24)                1.5103         estimate D2E/DX2                !
 ! R27   R(24,25)                1.0987         estimate D2E/DX2                !
 ! R28   R(24,26)                1.0957         estimate D2E/DX2                !
 ! R29   R(24,27)                1.0957         estimate D2E/DX2                !
 ! A1    A(5,1,6)              120.3267         estimate D2E/DX2                !
 ! A2    A(5,1,28)             124.0635         estimate D2E/DX2                !
 ! A3    A(6,1,28)             115.6099         estimate D2E/DX2                !
 ! A4    A(3,2,10)             119.9361         estimate D2E/DX2                !
 ! A5    A(3,2,28)             122.6131         estimate D2E/DX2                !
 ! A6    A(10,2,28)            117.4509         estimate D2E/DX2                !
 ! A7    A(2,3,4)              118.7775         estimate D2E/DX2                !
 ! A8    A(2,3,7)              119.7785         estimate D2E/DX2                !
 ! A9    A(4,3,7)              121.444          estimate D2E/DX2                !
 ! A10   A(3,4,5)              118.8256         estimate D2E/DX2                !
 ! A11   A(3,4,8)              120.3284         estimate D2E/DX2                !
 ! A12   A(5,4,8)              120.8461         estimate D2E/DX2                !
 ! A13   A(1,5,4)              118.2094         estimate D2E/DX2                !
 ! A14   A(1,5,9)              120.3458         estimate D2E/DX2                !
 ! A15   A(4,5,9)              121.4448         estimate D2E/DX2                !
 ! A16   A(13,14,15)           120.8084         estimate D2E/DX2                !
 ! A17   A(13,14,16)           120.6552         estimate D2E/DX2                !
 ! A18   A(15,14,16)           118.5361         estimate D2E/DX2                !
 ! A19   A(14,15,17)           120.3765         estimate D2E/DX2                !
 ! A20   A(14,15,18)           119.2997         estimate D2E/DX2                !
 ! A21   A(17,15,18)           120.3235         estimate D2E/DX2                !
 ! A22   A(14,16,19)           120.3628         estimate D2E/DX2                !
 ! A23   A(14,16,20)           119.2806         estimate D2E/DX2                !
 ! A24   A(19,16,20)           120.3563         estimate D2E/DX2                !
 ! A25   A(15,17,21)           121.3116         estimate D2E/DX2                !
 ! A26   A(15,17,22)           119.2725         estimate D2E/DX2                !
 ! A27   A(21,17,22)           119.4159         estimate D2E/DX2                !
 ! A28   A(16,19,21)           121.3225         estimate D2E/DX2                !
 ! A29   A(16,19,23)           119.262          estimate D2E/DX2                !
 ! A30   A(21,19,23)           119.4155         estimate D2E/DX2                !
 ! A31   A(17,21,19)           118.0898         estimate D2E/DX2                !
 ! A32   A(17,21,24)           120.9574         estimate D2E/DX2                !
 ! A33   A(19,21,24)           120.9381         estimate D2E/DX2                !
 ! A34   A(21,24,25)           110.8151         estimate D2E/DX2                !
 ! A35   A(21,24,26)           111.5204         estimate D2E/DX2                !
 ! A36   A(21,24,27)           111.5304         estimate D2E/DX2                !
 ! A37   A(25,24,26)           107.3272         estimate D2E/DX2                !
 ! A38   A(25,24,27)           107.3389         estimate D2E/DX2                !
 ! A39   A(26,24,27)           108.1088         estimate D2E/DX2                !
 ! A40   A(1,28,2)             117.5109         estimate D2E/DX2                !
 ! A41   L(2,10,11,7,-1)       178.7365         estimate D2E/DX2                !
 ! A42   L(10,11,12,7,-1)      180.2457         estimate D2E/DX2                !
 ! A43   L(11,12,13,20,-1)     180.0022         estimate D2E/DX2                !
 ! A44   L(12,13,14,20,-1)     179.6185         estimate D2E/DX2                !
 ! A45   L(2,10,11,7,-2)       179.9868         estimate D2E/DX2                !
 ! A46   L(10,11,12,7,-2)      179.9899         estimate D2E/DX2                !
 ! A47   L(11,12,13,20,-2)     180.0104         estimate D2E/DX2                !
 ! A48   L(12,13,14,20,-2)     180.0738         estimate D2E/DX2                !
 ! D1    D(6,1,5,4)            179.9959         estimate D2E/DX2                !
 ! D2    D(6,1,5,9)             -0.0089         estimate D2E/DX2                !
 ! D3    D(28,1,5,4)             0.0123         estimate D2E/DX2                !
 ! D4    D(28,1,5,9)          -179.9924         estimate D2E/DX2                !
 ! D5    D(5,1,28,2)            -0.0004         estimate D2E/DX2                !
 ! D6    D(6,1,28,2)          -179.9846         estimate D2E/DX2                !
 ! D7    D(10,2,3,4)           179.9869         estimate D2E/DX2                !
 ! D8    D(10,2,3,7)            -0.0187         estimate D2E/DX2                !
 ! D9    D(28,2,3,4)             0.0251         estimate D2E/DX2                !
 ! D10   D(28,2,3,7)          -179.9805         estimate D2E/DX2                !
 ! D11   D(3,2,14,15)           -0.042          estimate D2E/DX2                !
 ! D12   D(3,2,14,16)         -179.9075         estimate D2E/DX2                !
 ! D13   D(28,2,14,15)         179.9514         estimate D2E/DX2                !
 ! D14   D(28,2,14,16)           0.0859         estimate D2E/DX2                !
 ! D15   D(3,2,28,1)            -0.0186         estimate D2E/DX2                !
 ! D16   D(10,2,28,1)         -179.9813         estimate D2E/DX2                !
 ! D17   D(2,3,4,5)             -0.0121         estimate D2E/DX2                !
 ! D18   D(2,3,4,8)            179.9898         estimate D2E/DX2                !
 ! D19   D(7,3,4,5)            179.9936         estimate D2E/DX2                !
 ! D20   D(7,3,4,8)             -0.0045         estimate D2E/DX2                !
 ! D21   D(3,4,5,1)             -0.0053         estimate D2E/DX2                !
 ! D22   D(3,4,5,9)            179.9995         estimate D2E/DX2                !
 ! D23   D(8,4,5,1)            179.9927         estimate D2E/DX2                !
 ! D24   D(8,4,5,9)             -0.0024         estimate D2E/DX2                !
 ! D25   D(13,14,15,17)       -179.8968         estimate D2E/DX2                !
 ! D26   D(13,14,15,18)         -0.0956         estimate D2E/DX2                !
 ! D27   D(16,14,15,17)         -0.0921         estimate D2E/DX2                !
 ! D28   D(16,14,15,18)        179.7091         estimate D2E/DX2                !
 ! D29   D(13,14,16,19)        179.8973         estimate D2E/DX2                !
 ! D30   D(13,14,16,20)          0.0941         estimate D2E/DX2                !
 ! D31   D(15,14,16,19)          0.0923         estimate D2E/DX2                !
 ! D32   D(15,14,16,20)       -179.7109         estimate D2E/DX2                !
 ! D33   D(14,15,17,21)         -0.0934         estimate D2E/DX2                !
 ! D34   D(14,15,17,22)        179.8109         estimate D2E/DX2                !
 ! D35   D(18,15,17,21)       -179.8926         estimate D2E/DX2                !
 ! D36   D(18,15,17,22)          0.0117         estimate D2E/DX2                !
 ! D37   D(14,16,19,21)          0.093          estimate D2E/DX2                !
 ! D38   D(14,16,19,23)       -179.8108         estimate D2E/DX2                !
 ! D39   D(20,16,19,21)        179.8941         estimate D2E/DX2                !
 ! D40   D(20,16,19,23)         -0.0097         estimate D2E/DX2                !
 ! D41   D(15,17,21,19)          0.2729         estimate D2E/DX2                !
 ! D42   D(15,17,21,24)       -178.3477         estimate D2E/DX2                !
 ! D43   D(22,17,21,19)       -179.6313         estimate D2E/DX2                !
 ! D44   D(22,17,21,24)          1.7481         estimate D2E/DX2                !
 ! D45   D(16,19,21,17)         -0.2727         estimate D2E/DX2                !
 ! D46   D(16,19,21,24)        178.3482         estimate D2E/DX2                !
 ! D47   D(23,19,21,17)        179.6309         estimate D2E/DX2                !
 ! D48   D(23,19,21,24)         -1.7482         estimate D2E/DX2                !
 ! D49   D(17,21,24,25)         89.5879         estimate D2E/DX2                !
 ! D50   D(17,21,24,26)       -150.913          estimate D2E/DX2                !
 ! D51   D(17,21,24,27)        -29.9325         estimate D2E/DX2                !
 ! D52   D(19,21,24,25)        -88.9934         estimate D2E/DX2                !
 ! D53   D(19,21,24,26)         30.5057         estimate D2E/DX2                !
 ! D54   D(19,21,24,27)        151.4862         estimate D2E/DX2                !
 --------------------------------------------------------------------------------
 Trust Radius=3.00D-01 FncErr=1.00D-07 GrdErr=1.00D-06 EigMax=2.50D+02 EigMin=1.00D-04
 Number of steps in this run=    141 maximum allowed number of steps=    168.
 GradGradGradGradGradGradGradGradGradGradGradGradGradGradGradGradGradGrad

                          Input orientation:                          
 ---------------------------------------------------------------------
 Center     Atomic      Atomic             Coordinates (Angstroms)
 Number     Number       Type             X           Y           Z
 ---------------------------------------------------------------------
      1          6           0       -5.868138   -1.203569    0.003542
      2          6           0       -3.897602   -0.021312    0.001200
      3          6           0       -4.589166    1.207440    0.001548
      4          6           0       -5.981389    1.193004    0.003296
      5          6           0       -6.641881   -0.037185    0.004382
      6          1           0       -6.347347   -2.181142    0.004412
      7          1           0       -4.032515    2.139386    0.000551
      8          1           0       -6.539919    2.125411    0.003769
      9          1           0       -7.726315   -0.098066    0.005762
     10          6           0       -2.470737   -0.035370   -0.000863
     11          6           0       -1.249554   -0.020470   -0.002408
     12          6           0        0.110355   -0.009709   -0.003979
     13          6           0        1.332702    0.000010   -0.005256
     14          6           0        2.753719    0.001843   -0.005288
     15          6           0        3.474625    1.214324   -0.007200
     16          6           0        3.474641   -1.210922   -0.007630
     17          6           0        4.866890    1.205624   -0.009379
     18          1           0        2.932117    2.155267   -0.010241
     19          6           0        4.866779   -1.202019   -0.009801
     20          1           0        2.931763   -2.151579   -0.010975
     21          6           0        5.588878    0.001834   -0.007781
     22          1           0        5.404780    2.151314   -0.013965
     23          1           0        5.404626   -2.147713   -0.014724
     24          6           0        7.098737    0.001540    0.027178
     25          1           0        7.465287   -0.004045    1.062917
     26          1           0        7.512111   -0.882979   -0.470043
     27          1           0        7.512417    0.891035   -0.460809
     28          7           0       -4.532879   -1.215324    0.001999
 ---------------------------------------------------------------------
                    Distance matrix (angstroms):
                    1          2          3          4          5
     1  C    0.000000
     2  C    2.297988   0.000000
     3  C    2.729238   1.409997   0.000000
     4  C    2.399247   2.411791   1.392299   0.000000
     5  C    1.399689   2.744327   2.400570   1.396286   0.000000
     6  H    1.088711   3.265904   3.817551   3.393934   2.164094
     7  H    3.813774   2.164906   1.085534   2.166508   3.397980
     8  H    3.396086   3.404448   2.155948   1.086894   2.164998
     9  H    2.162166   3.829485   3.397950   2.170630   1.086142
    10  C    3.592637   1.426936   2.456079   3.719354   4.171148
    11  C    4.767712   2.648051   3.558200   4.884958   5.392357
    12  C    6.096535   4.007977   4.854583   6.209341   6.752297
    13  C    7.300738   5.230351   6.043712   7.410751   7.974676
    14  C    8.705717   6.651364   7.441201   8.815954   9.395686
    15  C    9.650572   7.475065   8.063799   9.456044  10.193630
    16  C    9.342789   7.467611   8.418643   9.756817  10.184391
    17  C   11.002055   8.849961   9.456062  10.848294  11.575689
    18  H    9.419472   7.168172   7.580779   8.965307   9.821838
    19  C   10.734925   8.843561   9.758100  11.109413  11.567467
    20  H    8.850830   7.153909   8.236962   9.520017   9.804364
    21  C   11.520258   9.486512  10.249203  11.631427  12.230827
    22  H   11.761557   9.552740  10.038431  11.426439  12.243852
    23  H   11.312248   9.542184  10.541973  11.866004  12.230005
    24  C   13.022776  10.996393  11.749976  13.134301  13.740691
    25  H   13.429123  11.412396  12.161580  13.541374  14.146865
    26  H   13.392465  11.451903  12.289555  13.660465  14.187175
    27  H   13.551466  11.455757  12.114545  13.505161  14.192327
    28  N    1.335312   1.352495   2.423418   2.810378   2.415762
                    6          7          8          9         10
     6  H    0.000000
     7  H    4.901574   0.000000
     8  H    4.310856   2.507445   0.000000
     9  H    2.498151   4.318608   2.520196   0.000000
    10  C    4.430854   2.677446   4.607303   5.255956   0.000000
    11  C    5.536790   3.522763   5.709011   6.477231   1.221275
    12  C    6.813010   4.667119   6.984622   7.837174   2.581221
    13  C    7.983775   5.776030   8.154482   9.059555   3.803606
    14  C    9.359216   7.114921   9.533170  10.480516   5.224590
    15  C   10.392327   7.563924  10.055908  11.277570   6.075286
    16  C    9.869798   8.220829  10.555693  11.256111   6.060486
    17  C   11.714499   8.948263  11.443840  12.660515   7.441835
    18  H   10.242710   6.964658   9.472093  10.894032   5.830078
    19  C   11.256798   9.505921  11.882118  12.641399   7.429690
    20  H    9.279170   8.180078  10.392575  10.854115   5.802193
    21  C   12.134208   9.855983  12.313303  13.315575   8.059704
    22  H   12.525294   9.437314  11.944740  13.322378   8.173465
    23  H   11.752036  10.365283  12.685901  13.289962   8.153743
    24  C   13.622107  11.334719  13.803054  14.825402   9.569586
    25  H   14.023161  11.744035  14.205709  15.228631   9.992857
    26  H   13.928206  11.942970  14.378263  15.266044  10.029747
    27  H   14.203794  11.621389  14.114095  15.277924  10.036590
    28  N    2.055506   3.391820   3.897271   3.383240   2.375864
                   11         12         13         14         15
    11  C    0.000000
    12  C    1.359952   0.000000
    13  C    2.582339   1.222386   0.000000
    14  C    4.003336   2.643390   1.421018   0.000000
    15  C    4.882889   3.580025   2.462193   1.410610   0.000000
    16  C    4.871881   3.572303   2.460542   1.410862   2.425246
    17  C    6.238128   4.909347   3.734168   2.431994   1.392294
    18  H    4.713838   3.556614   2.683894   2.160807   1.086139
    19  C    6.229417   4.903591   3.732907   2.431939   2.788694
    20  H    4.693092   3.542316   2.680739   2.160777   3.409401
    21  C    6.838470   5.478536   4.256177   2.835160   2.437252
    22  H    6.999781   5.718484   4.605432   3.412979   2.145576
    23  H    6.985945   5.709683   4.603626   3.412915   3.876629
    24  C    8.348372   6.988461   5.766126   4.345139   3.821808
    25  H    8.779729   7.431913   6.224918   4.831146   4.307546
    26  H    8.816427   7.467651   6.259456   4.862222   4.573204
    27  H    8.821174   7.470646   6.260218   4.862445   4.076033
    28  N    3.493983   4.797204   5.990169   7.387561   8.367998
                   16         17         18         19         20
    16  C    0.000000
    17  C    2.788916   0.000000
    18  H    3.409629   2.155265   0.000000
    19  C    1.392168   2.407643   3.874827   0.000000
    20  H    1.086077   3.874988   4.306846   2.155447   0.000000
    21  C    2.437371   1.403702   3.419892   1.403814   3.420155
    22  H    3.876868   1.087969   2.472669   3.396219   4.962934
    23  H    2.145337   3.396183   4.962757   1.087953   2.472869
    24  C    3.821694   2.536197   4.690486   2.536052   4.690528
    25  H    4.304402   3.060194   5.134581   3.055832   5.130106
    26  H    4.077074   3.401715   5.515315   2.703958   4.774901
    27  H    4.574629   2.702141   4.772886   3.403481   5.517449
    28  N    8.007527   9.706533   8.190678   9.399675   7.523139
                   21         22         23         24         25
    21  C    0.000000
    22  H    2.157358   0.000000
    23  H    2.157440   4.299027   0.000000
    24  C    1.510264   2.737282   2.736979   0.000000
    25  H    2.160403   3.170321   3.162743   1.098702   0.000000
    26  H    2.166888   3.722336   2.499672   1.095664   1.767678
    27  H    2.167006   2.496018   3.725019   1.095657   1.767804
    28  N   10.194682  10.492453   9.981164  11.695122  12.105731
                   26         27         28
    26  H    0.000000
    27  H    1.774038   0.000000
    28  N   12.058817  12.236834   0.000000
 Stoichiometry    C16H11N
 Framework group  C1[X(C16H11N)]
 Deg. of freedom    78
 Full point group                 C1      NOp   1
 Largest Abelian subgroup         C1      NOp   1
 Largest concise Abelian subgroup C1      NOp   1
                         Standard orientation:                         
 ---------------------------------------------------------------------
 Center     Atomic      Atomic             Coordinates (Angstroms)
 Number     Number       Type             X           Y           Z
 ---------------------------------------------------------------------
      1          6           0       -5.868138   -1.203569    0.003542
      2          6           0       -3.897602   -0.021312    0.001200
      3          6           0       -4.589166    1.207440    0.001548
      4          6           0       -5.981389    1.193004    0.003296
      5          6           0       -6.641881   -0.037185    0.004382
      6          1           0       -6.347347   -2.181142    0.004412
      7          1           0       -4.032515    2.139386    0.000551
      8          1           0       -6.539919    2.125411    0.003769
      9          1           0       -7.726315   -0.098066    0.005762
     10          6           0       -2.470737   -0.035370   -0.000863
     11          6           0       -1.249554   -0.020470   -0.002408
     12          6           0        0.110355   -0.009709   -0.003979
     13          6           0        1.332702    0.000010   -0.005256
     14          6           0        2.753719    0.001843   -0.005288
     15          6           0        3.474625    1.214324   -0.007200
     16          6           0        3.474641   -1.210922   -0.007630
     17          6           0        4.866890    1.205624   -0.009379
     18          1           0        2.932117    2.155267   -0.010241
     19          6           0        4.866779   -1.202019   -0.009801
     20          1           0        2.931763   -2.151579   -0.010975
     21          6           0        5.588878    0.001834   -0.007781
     22          1           0        5.404780    2.151314   -0.013965
     23          1           0        5.404626   -2.147713   -0.014724
     24          6           0        7.098737    0.001540    0.027178
     25          1           0        7.465287   -0.004045    1.062917
     26          1           0        7.512111   -0.882979   -0.470043
     27          1           0        7.512417    0.891035   -0.460809
     28          7           0       -4.532879   -1.215324    0.001999
 ---------------------------------------------------------------------
 Rotational constants (GHZ):           2.8307899           0.1112217           0.1070891
 Standard basis: 6-31+G(d) (6D, 7F)
 There are   345 symmetry adapted cartesian basis functions of A   symmetry.
 There are   345 symmetry adapted basis functions of A   symmetry.
   345 basis functions,   588 primitive gaussians,   345 cartesian basis functions
    57 alpha electrons       57 beta electrons
       nuclear repulsion energy       889.7341763541 Hartrees.
 NAtoms=   28 NActive=   28 NUniq=   28 SFac= 1.00D+00 NAtFMM=   60 NAOKFM=F Big=F
 Integral buffers will be    131072 words long.
 Raffenetti 2 integral format.
 Two-electron integral symmetry is turned on.
 Nuclear repulsion after empirical dispersion term =      889.7170839088 Hartrees.
 One-electron integrals computed using PRISM.
 NBasis=   345 RedAO= T EigKep=  3.47D-06  NBF=   345
 NBsUse=   339 1.00D-06 EigRej=  7.29D-07 NBFU=   339
 ExpMin= 4.38D-02 ExpMax= 4.17D+03 ExpMxC= 6.27D+02 IAcc=3 IRadAn=         5 AccDes= 0.00D+00
 Harris functional with IExCor=  402 and IRadAn=       5 diagonalized for initial guess.
 HarFok:  IExCor=  402 AccDes= 0.00D+00 IRadAn=         5 IDoV= 1 UseB2=F ITyADJ=14
 ICtDFT=  3500011 ScaDFX=  1.000000  1.000000  1.000000  1.000000
 FoFCou: FMM=F IPFlag=           0 FMFlag=      100000 FMFlg1=           0
         NFxFlg=           0 DoJE=T BraDBF=F KetDBF=T FulRan=T
         wScrn=  0.000000 ICntrl=       500 IOpCl=  0 I1Cent=   200000004 NGrid=           0
         NMat0=    1 NMatS0=      1 NMatT0=    0 NMatD0=    1 NMtDS0=    0 NMtDT0=    0
 Petite list used in FoFCou.
 Requested convergence on RMS density matrix=1.00D-08 within 128 cycles.
 Requested convergence on MAX density matrix=1.00D-06.
 Requested convergence on             energy=1.00D-06.
 No special actions if energy rises.
 SCF Done:  E(RB3LYP) =  -671.014851766     A.U. after   15 cycles
            NFock= 15  Conv=0.76D-08     -V/T= 2.0099

 **********************************************************************

            Population analysis using the SCF Density.

 **********************************************************************

 Orbital symmetries:
       Occupied  (A) (A) (A) (A) (A) (A) (A) (A) (A) (A) (A) (A)
                 (A) (A) (A) (A) (A) (A) (A) (A) (A) (A) (A) (A)
                 (A) (A) (A) (A) (A) (A) (A) (A) (A) (A) (A) (A)
                 (A) (A) (A) (A) (A) (A) (A) (A) (A) (A) (A) (A)
                 (A) (A) (A) (A) (A) (A) (A) (A) (A)
       Virtual   (A) (A) (A) (A) (A) (A) (A) (A) (A) (A) (A) (A)
                 (A) (A) (A) (A) (A) (A) (A) (A) (A) (A) (A) (A)
                 (A) (A) (A) (A) (A) (A) (A) (A) (A) (A) (A) (A)
                 (A) (A) (A) (A) (A) (A) (A) (A) (A) (A) (A) (A)
                 (A) (A) (A) (A) (A) (A) (A) (A) (A) (A) (A) (A)
                 (A) (A) (A) (A) (A) (A) (A) (A) (A) (A) (A) (A)
                 (A) (A) (A) (A) (A) (A) (A) (A) (A) (A) (A) (A)
                 (A) (A) (A) (A) (A) (A) (A) (A) (A) (A) (A) (A)
                 (A) (A) (A) (A) (A) (A) (A) (A) (A) (A) (A) (A)
                 (A) (A) (A) (A) (A) (A) (A) (A) (A) (A) (A) (A)
                 (A) (A) (A) (A) (A) (A) (A) (A) (A) (A) (A) (A)
                 (A) (A) (A) (A) (A) (A) (A) (A) (A) (A) (A) (A)
                 (A) (A) (A) (A) (A) (A) (A) (A) (A) (A) (A) (A)
                 (A) (A) (A) (A) (A) (A) (A) (A) (A) (A) (A) (A)
                 (A) (A) (A) (A) (A) (A) (A) (A) (A) (A) (A) (A)
                 (A) (A) (A) (A) (A) (A) (A) (A) (A) (A) (A) (A)
                 (A) (A) (A) (A) (A) (A) (A) (A) (A) (A) (A) (A)
                 (A) (A) (A) (A) (A) (A) (A) (A) (A) (A) (A) (A)
                 (A) (A) (A) (A) (A) (A) (A) (A) (A) (A) (A) (A)
                 (A) (A) (A) (A) (A) (A) (A) (A) (A) (A) (A) (A)
                 (A) (A) (A) (A) (A) (A) (A) (A) (A) (A) (A) (A)
                 (A) (A) (A) (A) (A) (A) (A) (A) (A) (A) (A) (A)
                 (A) (A) (A) (A) (A) (A) (A) (A) (A) (A) (A) (A)
                 (A) (A) (A) (A) (A) (A)
 The electronic state is 1-A.
 Alpha  occ. eigenvalues --  -14.34688 -10.26011 -10.23699 -10.22788 -10.22409
 Alpha  occ. eigenvalues --  -10.21734 -10.21700 -10.21686 -10.21461 -10.21396
 Alpha  occ. eigenvalues --  -10.21182 -10.21024 -10.20990 -10.20911 -10.20454
 Alpha  occ. eigenvalues --  -10.20433 -10.19723  -0.95778  -0.87674  -0.81827
 Alpha  occ. eigenvalues --   -0.81618  -0.80398  -0.77872  -0.76104  -0.74059
 Alpha  occ. eigenvalues --   -0.70434  -0.66305  -0.64447  -0.62308  -0.62151
 Alpha  occ. eigenvalues --   -0.59244  -0.55280  -0.53801  -0.50204  -0.49545
 Alpha  occ. eigenvalues --   -0.48083  -0.47603  -0.45129  -0.43976  -0.43491
 Alpha  occ. eigenvalues --   -0.43258  -0.42098  -0.41870  -0.40151  -0.38813
 Alpha  occ. eigenvalues --   -0.38610  -0.36724  -0.35898  -0.35130  -0.34425
 Alpha  occ. eigenvalues --   -0.31052  -0.29762  -0.27138  -0.26928  -0.26769
 Alpha  occ. eigenvalues --   -0.25222  -0.21971
 Alpha virt. eigenvalues --   -0.07674  -0.03865  -0.02717  -0.02369  -0.02356
 Alpha virt. eigenvalues --    0.00014   0.00339   0.01585   0.02177   0.02336
 Alpha virt. eigenvalues --    0.03102   0.03180   0.04420   0.04745   0.05172
 Alpha virt. eigenvalues --    0.05493   0.05648   0.05722   0.05975   0.06394
 Alpha virt. eigenvalues --    0.07125   0.08049   0.08519   0.08624   0.08869
 Alpha virt. eigenvalues --    0.09168   0.09866   0.10631   0.10824   0.11104
 Alpha virt. eigenvalues --    0.11592   0.12852   0.13388   0.13497   0.13804
 Alpha virt. eigenvalues --    0.14140   0.14453   0.14898   0.14984   0.15212
 Alpha virt. eigenvalues --    0.15353   0.15559   0.15889   0.16306   0.16740
 Alpha virt. eigenvalues --    0.17062   0.17796   0.17880   0.19528   0.19652
 Alpha virt. eigenvalues --    0.19808   0.19959   0.20243   0.20448   0.20709
 Alpha virt. eigenvalues --    0.21003   0.21344   0.21800   0.22648   0.22907
 Alpha virt. eigenvalues --    0.23687   0.23742   0.23896   0.24569   0.24845
 Alpha virt. eigenvalues --    0.25539   0.25671   0.25759   0.25936   0.26808
 Alpha virt. eigenvalues --    0.27381   0.27794   0.28365   0.28755   0.29273
 Alpha virt. eigenvalues --    0.29405   0.29808   0.30903   0.31569   0.32013
 Alpha virt. eigenvalues --    0.32491   0.33317   0.34299   0.34552   0.35088
 Alpha virt. eigenvalues --    0.35638   0.35685   0.35872   0.38396   0.40811
 Alpha virt. eigenvalues --    0.41531   0.44025   0.45004   0.48749   0.51971
 Alpha virt. eigenvalues --    0.54317   0.55843   0.56437   0.59177   0.63293
 Alpha virt. eigenvalues --    0.64194   0.65149   0.65379   0.66092   0.67202
 Alpha virt. eigenvalues --    0.67370   0.68621   0.69793   0.70181   0.70597
 Alpha virt. eigenvalues --    0.70815   0.70881   0.71608   0.72180   0.73001
 Alpha virt. eigenvalues --    0.73436   0.73728   0.73867   0.74966   0.75928
 Alpha virt. eigenvalues --    0.76283   0.77233   0.77586   0.78399   0.78451
 Alpha virt. eigenvalues --    0.79858   0.81281   0.82066   0.84125   0.85240
 Alpha virt. eigenvalues --    0.85954   0.86955   0.88105   0.89508   0.89942
 Alpha virt. eigenvalues --    0.91661   0.92758   0.94720   0.95357   0.96241
 Alpha virt. eigenvalues --    0.96686   0.97287   0.97599   0.97947   0.98887
 Alpha virt. eigenvalues --    0.99967   1.02617   1.03185   1.04662   1.06040
 Alpha virt. eigenvalues --    1.08906   1.09604   1.10897   1.11861   1.12449
 Alpha virt. eigenvalues --    1.13196   1.13896   1.17007   1.17491   1.19332
 Alpha virt. eigenvalues --    1.19353   1.21177   1.22765   1.22881   1.23184
 Alpha virt. eigenvalues --    1.23584   1.24410   1.25945   1.26885   1.28009
 Alpha virt. eigenvalues --    1.30704   1.31344   1.37127   1.39063   1.41162
 Alpha virt. eigenvalues --    1.42387   1.43639   1.44089   1.44960   1.45044
 Alpha virt. eigenvalues --    1.45421   1.46505   1.47963   1.48897   1.49243
 Alpha virt. eigenvalues --    1.49772   1.49925   1.50769   1.54998   1.58742
 Alpha virt. eigenvalues --    1.61737   1.62631   1.65027   1.66779   1.78070
 Alpha virt. eigenvalues --    1.79974   1.81905   1.82875   1.83567   1.84941
 Alpha virt. eigenvalues --    1.85810   1.86811   1.87196   1.89157   1.91293
 Alpha virt. eigenvalues --    1.91494   1.92441   1.93253   1.94280   1.98193
 Alpha virt. eigenvalues --    1.98986   2.00237   2.01480   2.04757   2.06756
 Alpha virt. eigenvalues --    2.08046   2.10513   2.12940   2.14667   2.15125
 Alpha virt. eigenvalues --    2.16639   2.17102   2.18254   2.20241   2.21812
 Alpha virt. eigenvalues --    2.22618   2.24286   2.26772   2.29139   2.30377
 Alpha virt. eigenvalues --    2.30988   2.35494   2.36321   2.36388   2.39781
 Alpha virt. eigenvalues --    2.40325   2.41361   2.51470   2.55680   2.59118
 Alpha virt. eigenvalues --    2.60542   2.61797   2.63126   2.63823   2.64888
 Alpha virt. eigenvalues --    2.65429   2.67059   2.69877   2.72382   2.74144
 Alpha virt. eigenvalues --    2.76674   2.80500   2.81138   2.82765   2.88487
 Alpha virt. eigenvalues --    2.92032   2.98604   3.02420   3.14472   3.15905
 Alpha virt. eigenvalues --    3.29427   3.33694   3.38854   3.48546   3.72396
 Alpha virt. eigenvalues --    4.19124   4.21392   4.22376   4.24113   4.27381
 Alpha virt. eigenvalues --    4.28224   4.28854   4.34095   4.38571   4.39998
 Alpha virt. eigenvalues --    4.40338   4.43537   4.55468   4.61477   4.75998
 Alpha virt. eigenvalues --    4.85726   5.58038
          Condensed to atoms (all electrons):
               1          2          3          4          5          6
     1  C    6.077999   0.210647  -1.791646   1.065484  -0.465945   0.411595
     2  C    0.210647   6.930711  -1.855934   1.109897  -0.657372   0.052195
     3  C   -1.791646  -1.855934  13.270428  -3.772235   1.806937  -0.017689
     4  C    1.065484   1.109897  -3.772235   7.668098  -0.776946   0.024426
     5  C   -0.465945  -0.657372   1.806937  -0.776946   6.270909  -0.110366
     6  H    0.411595   0.052195  -0.017689   0.024426  -0.110366   0.557074
     7  H   -0.006866  -0.020651   0.286360  -0.006013   0.002802   0.000021
     8  H   -0.008669   0.000584   0.002922   0.271094   0.031918  -0.000151
     9  H   -0.000280   0.007453   0.001451   0.004721   0.279717  -0.001917
    10  C    0.600934   0.133147  -1.321329   0.765176  -0.499075  -0.004110
    11  C   -0.127434  -0.353679  -0.018968  -0.111474   0.012419   0.003479
    12  C    0.129250   0.108282  -0.640002   0.206730  -0.078509  -0.000089
    13  C   -0.021916  -0.153384   0.078264  -0.033047   0.007722   0.000019
    14  C    0.006371   0.052324  -0.045004   0.011517  -0.002927   0.000001
    15  C   -0.000226  -0.008317   0.000347  -0.000002  -0.000030   0.000000
    16  C    0.000169   0.002543  -0.000135  -0.000101   0.000039   0.000000
    17  C    0.000035   0.000323  -0.000448   0.000075  -0.000019   0.000000
    18  H    0.000000  -0.000030  -0.000009  -0.000001   0.000000   0.000000
    19  C   -0.000068   0.001155   0.000615  -0.000094   0.000026   0.000000
    20  H   -0.000001   0.000016   0.000004   0.000000   0.000000   0.000000
    21  C    0.000076   0.002093  -0.000745   0.000137  -0.000025   0.000000
    22  H    0.000000   0.000000   0.000000   0.000000   0.000000   0.000000
    23  H    0.000000  -0.000001   0.000000   0.000000   0.000000   0.000000
    24  C    0.000003   0.000178  -0.000034   0.000005  -0.000001   0.000000
    25  H    0.000000   0.000000   0.000000   0.000000   0.000000   0.000000
    26  H    0.000000   0.000000   0.000000   0.000000   0.000000   0.000000
    27  H    0.000000   0.000000   0.000000   0.000000   0.000000   0.000000
    28  N    0.067911   0.307160   0.271319  -0.206421   0.193396  -0.095863
               7          8          9         10         11         12
     1  C   -0.006866  -0.008669  -0.000280   0.600934  -0.127434   0.129250
     2  C   -0.020651   0.000584   0.007453   0.133147  -0.353679   0.108282
     3  C    0.286360   0.002922   0.001451  -1.321329  -0.018968  -0.640002
     4  C   -0.006013   0.271094   0.004721   0.765176  -0.111474   0.206730
     5  C    0.002802   0.031918   0.279717  -0.499075   0.012419  -0.078509
     6  H    0.000021  -0.000151  -0.001917  -0.004110   0.003479  -0.000089
     7  H    0.509195  -0.004417  -0.000118   0.026610   0.001935   0.001285
     8  H   -0.004417   0.523614  -0.004316  -0.006145   0.000018  -0.000122
     9  H   -0.000118  -0.004316   0.518188   0.000648   0.000356  -0.000017
    10  C    0.026610  -0.006145   0.000648  10.571207  -0.972286  -1.586854
    11  C    0.001935   0.000018   0.000356  -0.972286  10.038031  -1.933208
    12  C    0.001285  -0.000122  -0.000017  -1.586854  -1.933208   9.865968
    13  C    0.000498   0.000002   0.000002  -0.019210  -1.642530  -0.595304
    14  C   -0.000012  -0.000001   0.000000  -0.262339   0.337306  -0.379935
    15  C   -0.000014   0.000000   0.000000   0.033795  -0.120350   0.069676
    16  C    0.000005   0.000000   0.000000  -0.026567  -0.000149  -0.187638
    17  C   -0.000001   0.000000   0.000000  -0.003477   0.013927   0.009442
    18  H    0.000000   0.000000   0.000000   0.000110   0.000704  -0.006607
    19  C    0.000000   0.000000   0.000000   0.007101  -0.007857   0.092611
    20  H    0.000000   0.000000   0.000000   0.000240   0.001391  -0.007221
    21  C    0.000000   0.000000   0.000000  -0.024543   0.058931  -0.172589
    22  H    0.000000   0.000000   0.000000   0.000023  -0.000209   0.002307
    23  H    0.000000   0.000000   0.000000   0.000006  -0.000177   0.001755
    24  C    0.000000   0.000000   0.000000  -0.003146   0.015211  -0.080194
    25  H    0.000000   0.000000   0.000000   0.000000   0.000003  -0.000043
    26  H    0.000000   0.000000   0.000000   0.000000   0.000002  -0.000043
    27  H    0.000000   0.000000   0.000000   0.000000   0.000002  -0.000009
    28  N    0.005600   0.001640   0.004104  -0.349790  -0.031638  -0.047063
              13         14         15         16         17         18
     1  C   -0.021916   0.006371  -0.000226   0.000169   0.000035   0.000000
     2  C   -0.153384   0.052324  -0.008317   0.002543   0.000323  -0.000030
     3  C    0.078264  -0.045004   0.000347  -0.000135  -0.000448  -0.000009
     4  C   -0.033047   0.011517  -0.000002  -0.000101   0.000075  -0.000001
     5  C    0.007722  -0.002927  -0.000030   0.000039  -0.000019   0.000000
     6  H    0.000019   0.000001   0.000000   0.000000   0.000000   0.000000
     7  H    0.000498  -0.000012  -0.000014   0.000005  -0.000001   0.000000
     8  H    0.000002  -0.000001   0.000000   0.000000   0.000000   0.000000
     9  H    0.000002   0.000000   0.000000   0.000000   0.000000   0.000000
    10  C   -0.019210  -0.262339   0.033795  -0.026567  -0.003477   0.000110
    11  C   -1.642530   0.337306  -0.120350  -0.000149   0.013927   0.000704
    12  C   -0.595304  -0.379935   0.069676  -0.187638   0.009442  -0.006607
    13  C    9.746649   0.250922  -0.159161  -0.143694   0.002574   0.030859
    14  C    0.250922   6.323175   0.397412   0.233564  -0.136212  -0.020995
    15  C   -0.159161   0.397412   6.788039  -0.266894   0.212148   0.349487
    16  C   -0.143694   0.233564  -0.266894   7.015510  -1.019889   0.022562
    17  C    0.002574  -0.136212   0.212148  -1.019889   6.767051  -0.085297
    18  H    0.030859  -0.020995   0.349487   0.022562  -0.085297   0.523623
    19  C   -0.075110   0.021268  -0.935180   0.121716  -0.030696  -0.008551
    20  H    0.031681  -0.021966   0.024307   0.346991  -0.008770  -0.000150
    21  C   -0.156980  -0.087658  -0.119346  -0.027665   0.148859   0.001387
    22  H   -0.008723   0.028693  -0.086552   0.001530   0.278484  -0.004284
    23  H   -0.008190   0.027029   0.003267  -0.083797   0.040193   0.000017
    24  C    0.109554  -0.524236  -0.024346   0.150194   0.018766   0.001394
    25  H    0.000231  -0.000744  -0.001115  -0.000660  -0.012688   0.000001
    26  H    0.000390  -0.002687  -0.003633   0.004499   0.013667   0.000002
    27  H    0.000390  -0.001564   0.003019  -0.004424   0.008137  -0.000005
    28  N    0.003194  -0.000896   0.000094  -0.000221   0.000017   0.000000
              19         20         21         22         23         24
     1  C   -0.000068  -0.000001   0.000076   0.000000   0.000000   0.000003
     2  C    0.001155   0.000016   0.002093   0.000000  -0.000001   0.000178
     3  C    0.000615   0.000004  -0.000745   0.000000   0.000000  -0.000034
     4  C   -0.000094   0.000000   0.000137   0.000000   0.000000   0.000005
     5  C    0.000026   0.000000  -0.000025   0.000000   0.000000  -0.000001
     6  H    0.000000   0.000000   0.000000   0.000000   0.000000   0.000000
     7  H    0.000000   0.000000   0.000000   0.000000   0.000000   0.000000
     8  H    0.000000   0.000000   0.000000   0.000000   0.000000   0.000000
     9  H    0.000000   0.000000   0.000000   0.000000   0.000000   0.000000
    10  C    0.007101   0.000240  -0.024543   0.000023   0.000006  -0.003146
    11  C   -0.007857   0.001391   0.058931  -0.000209  -0.000177   0.015211
    12  C    0.092611  -0.007221  -0.172589   0.002307   0.001755  -0.080194
    13  C   -0.075110   0.031681  -0.156980  -0.008723  -0.008190   0.109554
    14  C    0.021268  -0.021966  -0.087658   0.028693   0.027029  -0.524236
    15  C   -0.935180   0.024307  -0.119346  -0.086552   0.003267  -0.024346
    16  C    0.121716   0.346991  -0.027665   0.001530  -0.083797   0.150194
    17  C   -0.030696  -0.008770   0.148859   0.278484   0.040193   0.018766
    18  H   -0.008551  -0.000150   0.001387  -0.004284   0.000017   0.001394
    19  C    6.743603  -0.083493   0.228833   0.042133   0.278025  -0.152790
    20  H   -0.083493   0.519737   0.001378   0.000017  -0.004243   0.001241
    21  C    0.228833   0.001378   7.235571   0.052291   0.049027  -1.265790
    22  H    0.042133   0.000017   0.052291   0.542097  -0.000161  -0.029855
    23  H    0.278025  -0.004243   0.049027  -0.000161   0.541260  -0.026985
    24  C   -0.152790   0.001241  -1.265790  -0.029855  -0.026985   7.201793
    25  H   -0.014356   0.000001  -0.043732   0.000319   0.000328   0.404145
    26  H    0.004861  -0.000005  -0.154329   0.000067   0.002838   0.475389
    27  H    0.013764   0.000002  -0.152226   0.002877   0.000068   0.471024
    28  N   -0.000021   0.000000   0.000002   0.000000   0.000000   0.000000
              25         26         27         28
     1  C    0.000000   0.000000   0.000000   0.067911
     2  C    0.000000   0.000000   0.000000   0.307160
     3  C    0.000000   0.000000   0.000000   0.271319
     4  C    0.000000   0.000000   0.000000  -0.206421
     5  C    0.000000   0.000000   0.000000   0.193396
     6  H    0.000000   0.000000   0.000000  -0.095863
     7  H    0.000000   0.000000   0.000000   0.005600
     8  H    0.000000   0.000000   0.000000   0.001640
     9  H    0.000000   0.000000   0.000000   0.004104
    10  C    0.000000   0.000000   0.000000  -0.349790
    11  C    0.000003   0.000002   0.000002  -0.031638
    12  C   -0.000043  -0.000043  -0.000009  -0.047063
    13  C    0.000231   0.000390   0.000390   0.003194
    14  C   -0.000744  -0.002687  -0.001564  -0.000896
    15  C   -0.001115  -0.003633   0.003019   0.000094
    16  C   -0.000660   0.004499  -0.004424  -0.000221
    17  C   -0.012688   0.013667   0.008137   0.000017
    18  H    0.000001   0.000002  -0.000005   0.000000
    19  C   -0.014356   0.004861   0.013764  -0.000021
    20  H    0.000001  -0.000005   0.000002   0.000000
    21  C   -0.043732  -0.154329  -0.152226   0.000002
    22  H    0.000319   0.000067   0.002877   0.000000
    23  H    0.000328   0.002838   0.000068   0.000000
    24  C    0.404145   0.475389   0.471024   0.000000
    25  H    0.495733  -0.028926  -0.028900   0.000000
    26  H   -0.028926   0.502244  -0.025570   0.000000
    27  H   -0.028900  -0.025570   0.502667   0.000000
    28  N    0.000000   0.000000   0.000000   7.027506
 Mulliken charges:
               1
     1  C   -0.147421
     2  C    0.130661
     3  C   -0.254470
     4  C   -0.221027
     5  C   -0.014670
     6  H    0.181375
     7  H    0.203782
     8  H    0.192027
     9  H    0.190007
    10  C   -1.060124
    11  C    0.836242
    12  C    1.228141
    13  C   -1.245702
    14  C   -0.202406
    15  C   -0.156424
    16  C   -0.137490
    17  C   -0.216200
    18  H    0.195783
    19  C   -0.247496
    20  H    0.198843
    21  C    0.427045
    22  H    0.178946
    23  H    0.179741
    24  C   -0.741518
    25  H    0.230403
    26  H    0.211233
    27  H    0.210747
    28  N   -0.150029
 Sum of Mulliken charges =   0.00000
 Mulliken charges with hydrogens summed into heavy atoms:
               1
     1  C    0.033954
     2  C    0.130661
     3  C   -0.050688
     4  C   -0.028999
     5  C    0.175337
    10  C   -1.060124
    11  C    0.836242
    12  C    1.228141
    13  C   -1.245702
    14  C   -0.202406
    15  C    0.039358
    16  C    0.061353
    17  C   -0.037254
    19  C   -0.067755
    21  C    0.427045
    24  C   -0.089135
    28  N   -0.150029
 Electronic spatial extent (au):  <R**2>=           9395.8417
 Charge=              0.0000 electrons
 Dipole moment (field-independent basis, Debye):
    X=              0.6020    Y=              1.9809    Z=              0.0513  Tot=              2.0710
 Quadrupole moment (field-independent basis, Debye-Ang):
   XX=            -55.2510   YY=            -92.6870   ZZ=           -104.6148
   XY=             -7.6498   XZ=              0.3077   YZ=              0.0025
 Traceless Quadrupole moment (field-independent basis, Debye-Ang):
   XX=             28.9333   YY=             -8.5028   ZZ=            -20.4305
   XY=             -7.6498   XZ=              0.3077   YZ=              0.0025
 Octapole moment (field-independent basis, Debye-Ang**2):
  XXX=            -72.8076  YYY=              8.9926  ZZZ=              0.8212  XYY=              7.0113
  XXY=             25.1180  XXZ=              2.3937  XZZ=              1.6909  YZZ=             -1.1574
  YYZ=             -0.6307  XYZ=              0.0134
 Hexadecapole moment (field-independent basis, Debye-Ang**3):
 XXXX=         -10109.4375 YYYY=           -583.5821 ZZZZ=           -132.5511 XXXY=            -79.9293
 XXXZ=             12.6225 YYYX=            -33.9929 YYYZ=              0.0070 ZZZX=              5.9231
 ZZZY=             -0.0090 XXYY=          -2007.4435 XXZZ=          -2264.3470 YYZZ=           -137.4351
 XXYZ=              0.0164 YYXZ=             -4.7226 ZZXY=              5.4778
 N-N= 8.897170839088D+02 E-N=-3.332372058333D+03  KE= 6.644190889058D+02
 Evaluate density.
 Using the total density.
 Monte-Carlo method of calculating molar volume:
 based on  0.001 e/bohr**3 density envelope.
 Number of points per bohr**3 =   20 CutOff= 1.00D-04
 Using the SCF density.
 There are       415 points.  Will hold       415 in memory.
 LenV=  4026267635 MDV=  4026531840.
 Box volume = 8991.083 fraction occupied=0.219
 Integrated density= 3.0273544661146275D+02 error= 1.8873544661146275D+02
 Molar volume = 1971.539 bohr**3/mol (175.938 cm**3/mol)
 Recommended a0 for SCRF calculation =  5.03 angstrom (  9.51 bohr)
 Calling FoFJK, ICntrl=      2127 FMM=F ISym2X=0 I1Cent= 0 IOpClX= 0 NMat=1 NMatS=1 NMatT=0.
 ***** Axes restored to original set *****
 -------------------------------------------------------------------
 Center     Atomic                   Forces (Hartrees/Bohr)
 Number     Number              X              Y              Z
 -------------------------------------------------------------------
      1        6          -0.000038577    0.000002524    0.000031633
      2        6          -0.000037972   -0.000098896   -0.000080935
      3        6          -0.000012923    0.000066058    0.000025548
      4        6           0.000020236    0.000022233   -0.000001138
      5        6           0.000001451   -0.000031109   -0.000008184
      6        1           0.000008989    0.000002971   -0.000012108
      7        1          -0.000003905   -0.000010917    0.000003054
      8        1           0.000000909   -0.000005996   -0.000001775
      9        1           0.000008254    0.000005801   -0.000000736
     10        6           0.000055835    0.000011918    0.000028077
     11        6          -0.000013290   -0.000016109   -0.000005744
     12        6           0.000008459    0.000030567   -0.000003169
     13        6          -0.000024150   -0.000007961    0.000007322
     14        6           0.000024723   -0.000043228    0.000001706
     15        6          -0.000020074    0.000042982    0.000000247
     16        6          -0.000036115   -0.000002708    0.000001236
     17        6           0.000010767    0.000024148   -0.000002347
     18        1           0.000002501   -0.000007457   -0.000003027
     19        6           0.000026394   -0.000013255   -0.000001204
     20        1           0.000003634    0.000004818   -0.000003153
     21        6           0.000047244   -0.000012954   -0.000004765
     22        1          -0.000022262   -0.000000643    0.000005695
     23        1          -0.000023302    0.000000267    0.000006028
     24        6          -0.000023859    0.000005611    0.000004005
     25        1           0.000018374   -0.000002867   -0.000006009
     26        1          -0.000002568    0.000010154   -0.000000088
     27        1          -0.000004726   -0.000010627    0.000001357
     28        7           0.000025954    0.000034673    0.000018477
 -------------------------------------------------------------------
 Cartesian Forces:  Max     0.000098896 RMS     0.000024124

 GradGradGradGradGradGradGradGradGradGradGradGradGradGradGradGradGradGrad
 Berny optimization.
 FormGI is forming the generalized inverse of G from B-inverse, IUseBI=4.
 Internal  Forces:  Max     0.000045613 RMS     0.000014515
 Search for a local minimum.
 Step number   1 out of a maximum of  141
 All quantities printed in internal units (Hartrees-Bohrs-Radians)
 Mixed Optimization -- En-DIIS/RFO-DIIS
 Second derivative matrix not updated -- first step.
 ITU=  0
     Eigenvalues ---    0.00230   0.00630   0.00947   0.01329   0.01468
     Eigenvalues ---    0.01811   0.01900   0.01975   0.02044   0.02049
     Eigenvalues ---    0.02057   0.02090   0.02093   0.02100   0.02115
     Eigenvalues ---    0.02129   0.02130   0.02146   0.02165   0.02234
     Eigenvalues ---    0.02361   0.02483   0.02619   0.03703   0.04290
     Eigenvalues ---    0.04438   0.04453   0.07034   0.07167   0.16000
     Eigenvalues ---    0.16000   0.16000   0.16000   0.16000   0.16000
     Eigenvalues ---    0.16000   0.16000   0.16000   0.16000   0.16000
     Eigenvalues ---    0.22000   0.22000   0.22423   0.22956   0.23998
     Eigenvalues ---    0.24420   0.24992   0.25000   0.25000   0.31324
     Eigenvalues ---    0.33826   0.34166   0.34167   0.34962   0.35048
     Eigenvalues ---    0.35050   0.35174   0.35262   0.35263   0.35270
     Eigenvalues ---    0.35334   0.40875   0.41210   0.41392   0.41433
     Eigenvalues ---    0.42307   0.44258   0.44392   0.44519   0.44915
     Eigenvalues ---    0.45705   0.46409   0.46933   0.52957   0.53099
     Eigenvalues ---    0.56795   0.94334   0.94821
 RFO step:  Lambda=-4.10439477D-07 EMin= 2.30000000D-03
 Linear search not attempted -- first point.
 Iteration  1 RMS(Cart)=  0.00473230 RMS(Int)=  0.00000310
 Iteration  2 RMS(Cart)=  0.00001049 RMS(Int)=  0.00000010
 Iteration  3 RMS(Cart)=  0.00000000 RMS(Int)=  0.00000010
 Variable       Old X    -DE/DX   Delta X   Delta X   Delta X     New X
                                 (Linear)    (Quad)   (Total)
    R1        2.64503  -0.00001   0.00000  -0.00002  -0.00002   2.64501
    R2        2.05737  -0.00001   0.00000  -0.00002  -0.00002   2.05735
    R3        2.52337   0.00002   0.00000   0.00003   0.00003   2.52340
    R4        2.66451   0.00004   0.00000   0.00010   0.00010   2.66461
    R5        2.69652   0.00003   0.00000   0.00007   0.00007   2.69658
    R6        2.55584  -0.00004   0.00000  -0.00007  -0.00007   2.55578
    R7        2.63106  -0.00002   0.00000  -0.00004  -0.00004   2.63103
    R8        2.05136  -0.00001   0.00000  -0.00003  -0.00003   2.05133
    R9        2.63860   0.00002   0.00000   0.00004   0.00004   2.63864
   R10        2.05393  -0.00001   0.00000  -0.00002  -0.00002   2.05392
   R11        2.05251  -0.00001   0.00000  -0.00002  -0.00002   2.05249
   R12        2.30788  -0.00003   0.00000  -0.00003  -0.00003   2.30785
   R13        2.56994  -0.00001   0.00000  -0.00003  -0.00003   2.56991
   R14        2.30998  -0.00002   0.00000  -0.00002  -0.00002   2.30995
   R15        2.68534   0.00000   0.00000   0.00000   0.00000   2.68534
   R16        2.66567   0.00001   0.00000   0.00003   0.00003   2.66570
   R17        2.66614  -0.00002   0.00000  -0.00005  -0.00005   2.66610
   R18        2.63105   0.00001   0.00000   0.00001   0.00001   2.63107
   R19        2.05251  -0.00001   0.00000  -0.00002  -0.00002   2.05248
   R20        2.63082   0.00002   0.00000   0.00004   0.00004   2.63086
   R21        2.05239  -0.00001   0.00000  -0.00002  -0.00002   2.05237
   R22        2.65261   0.00004   0.00000   0.00009   0.00009   2.65270
   R23        2.05596  -0.00001   0.00000  -0.00003  -0.00003   2.05593
   R24        2.65282   0.00003   0.00000   0.00007   0.00007   2.65289
   R25        2.05593  -0.00001   0.00000  -0.00003  -0.00003   2.05590
   R26        2.85398  -0.00001   0.00000  -0.00004  -0.00004   2.85394
   R27        2.07625   0.00000   0.00000   0.00000   0.00000   2.07625
   R28        2.07051  -0.00001   0.00000  -0.00003  -0.00003   2.07048
   R29        2.07049  -0.00001   0.00000  -0.00003  -0.00003   2.07046
    A1        2.10010   0.00001   0.00000   0.00006   0.00006   2.10015
    A2        2.16532   0.00000   0.00000  -0.00002  -0.00002   2.16529
    A3        2.01777   0.00000   0.00000  -0.00003  -0.00003   2.01774
    A4        2.09328  -0.00005   0.00000  -0.00018  -0.00018   2.09310
    A5        2.14000   0.00001   0.00000   0.00004   0.00004   2.14005
    A6        2.04990   0.00003   0.00000   0.00014   0.00014   2.05004
    A7        2.07306  -0.00001   0.00000  -0.00004  -0.00004   2.07302
    A8        2.09053   0.00000   0.00000   0.00001   0.00001   2.09054
    A9        2.11960   0.00001   0.00000   0.00004   0.00004   2.11963
   A10        2.07390   0.00000   0.00000  -0.00001  -0.00001   2.07389
   A11        2.10013   0.00000   0.00000   0.00002   0.00002   2.10014
   A12        2.10916   0.00000   0.00000  -0.00001  -0.00001   2.10915
   A13        2.06314   0.00001   0.00000   0.00004   0.00004   2.06318
   A14        2.10043   0.00000   0.00000   0.00002   0.00002   2.10045
   A15        2.11961  -0.00001   0.00000  -0.00005  -0.00005   2.11956
   A16        2.10850  -0.00003   0.00000  -0.00012  -0.00012   2.10838
   A17        2.10583   0.00001   0.00000   0.00006   0.00006   2.10589
   A18        2.06885   0.00002   0.00000   0.00006   0.00006   2.06891
   A19        2.10097  -0.00001   0.00000  -0.00003  -0.00003   2.10094
   A20        2.08217   0.00000   0.00000   0.00000   0.00000   2.08218
   A21        2.10004   0.00000   0.00000   0.00002   0.00002   2.10007
   A22        2.10073   0.00000   0.00000  -0.00003  -0.00003   2.10070
   A23        2.08184   0.00000   0.00000   0.00002   0.00002   2.08186
   A24        2.10061   0.00000   0.00000   0.00001   0.00001   2.10062
   A25        2.11729   0.00000   0.00000   0.00001   0.00001   2.11730
   A26        2.08170  -0.00002   0.00000  -0.00013  -0.00013   2.08157
   A27        2.08420   0.00002   0.00000   0.00012   0.00012   2.08432
   A28        2.11748   0.00000   0.00000   0.00002   0.00002   2.11749
   A29        2.08151  -0.00002   0.00000  -0.00014  -0.00014   2.08138
   A30        2.08419   0.00002   0.00000   0.00012   0.00012   2.08431
   A31        2.06106  -0.00001   0.00000  -0.00003  -0.00003   2.06102
   A32        2.11111   0.00000   0.00000   0.00000   0.00000   2.11111
   A33        2.11077   0.00001   0.00000   0.00003   0.00003   2.11080
   A34        1.93409   0.00003   0.00000   0.00023   0.00023   1.93432
   A35        1.94640  -0.00001   0.00000  -0.00005  -0.00005   1.94635
   A36        1.94657  -0.00001   0.00000  -0.00006  -0.00006   1.94651
   A37        1.87321  -0.00001   0.00000  -0.00003  -0.00003   1.87318
   A38        1.87342  -0.00001   0.00000  -0.00001  -0.00001   1.87341
   A39        1.88685   0.00000   0.00000  -0.00008  -0.00008   1.88677
   A40        2.05095   0.00000   0.00000  -0.00001  -0.00001   2.05094
   A41        3.11954  -0.00005   0.00000  -0.00102  -0.00102   3.11852
   A42        3.14588  -0.00004   0.00000  -0.00163  -0.00163   3.14425
   A43        3.14163   0.00000   0.00000  -0.00002  -0.00002   3.14161
   A44        3.13493   0.00003   0.00000   0.00167   0.00167   3.13660
   A45        3.14136   0.00001   0.00000   0.00025   0.00025   3.14162
   A46        3.14142   0.00000   0.00000   0.00019   0.00019   3.14161
   A47        3.14177  -0.00001   0.00000  -0.00023  -0.00023   3.14155
   A48        3.14288  -0.00002   0.00000  -0.00139  -0.00139   3.14149
    D1        3.14152   0.00000   0.00000   0.00013   0.00013  -3.14154
    D2       -0.00016   0.00001   0.00000   0.00030   0.00030   0.00014
    D3        0.00022  -0.00001   0.00000  -0.00041  -0.00041  -0.00019
    D4       -3.14146  -0.00001   0.00000  -0.00024  -0.00024   3.14148
    D5       -0.00001   0.00000   0.00000   0.00000   0.00000  -0.00001
    D6       -3.14132  -0.00001   0.00000  -0.00051  -0.00051   3.14135
    D7        3.14136   0.00001   0.00000   0.00067   0.00067  -3.14115
    D8       -0.00033   0.00001   0.00000   0.00082   0.00082   0.00049
    D9        0.00044  -0.00002   0.00000  -0.00081  -0.00081  -0.00038
   D10       -3.14125  -0.00001   0.00000  -0.00066  -0.00066   3.14127
   D11       -0.00073  -0.00001   0.00000  -0.00100  -0.00100  -0.00173
   D12       -3.13998   0.00000   0.00000   0.00055   0.00055  -3.13943
   D13        3.14074   0.00000   0.00000  -0.00016  -0.00016   3.14058
   D14        0.00150   0.00001   0.00000   0.00138   0.00138   0.00288
   D15       -0.00032   0.00001   0.00000   0.00062   0.00062   0.00030
   D16       -3.14127  -0.00001   0.00000  -0.00083  -0.00083   3.14109
   D17       -0.00021   0.00001   0.00000   0.00037   0.00037   0.00016
   D18        3.14141   0.00001   0.00000   0.00032   0.00032  -3.14145
   D19        3.14148   0.00000   0.00000   0.00022   0.00022  -3.14149
   D20       -0.00008   0.00000   0.00000   0.00016   0.00016   0.00008
   D21       -0.00009   0.00000   0.00000   0.00020   0.00020   0.00011
   D22        3.14158   0.00000   0.00000   0.00003   0.00003  -3.14157
   D23        3.14147   0.00000   0.00000   0.00026   0.00026  -3.14146
   D24       -0.00004   0.00000   0.00000   0.00008   0.00008   0.00004
   D25       -3.13979   0.00000   0.00000   0.00042   0.00042  -3.13938
   D26       -0.00167   0.00000   0.00000   0.00021   0.00021  -0.00145
   D27       -0.00161   0.00001   0.00000   0.00013   0.00013  -0.00147
   D28        3.13652   0.00000   0.00000  -0.00007  -0.00007   3.13645
   D29        3.13980  -0.00001   0.00000  -0.00043  -0.00043   3.13937
   D30        0.00164   0.00000   0.00000  -0.00021  -0.00021   0.00143
   D31        0.00161  -0.00001   0.00000  -0.00015  -0.00015   0.00146
   D32       -3.13655   0.00000   0.00000   0.00007   0.00007  -3.13648
   D33       -0.00163   0.00000   0.00000   0.00006   0.00006  -0.00157
   D34        3.13829   0.00000   0.00000  -0.00009  -0.00009   3.13820
   D35       -3.13972   0.00000   0.00000   0.00026   0.00026  -3.13945
   D36        0.00020   0.00000   0.00000   0.00011   0.00011   0.00032
   D37        0.00162   0.00000   0.00000  -0.00003  -0.00003   0.00160
   D38       -3.13829   0.00000   0.00000   0.00010   0.00010  -3.13819
   D39        3.13974   0.00000   0.00000  -0.00025  -0.00025   3.13949
   D40       -0.00017   0.00000   0.00000  -0.00013  -0.00013  -0.00030
   D41        0.00476  -0.00001   0.00000  -0.00024  -0.00024   0.00453
   D42       -3.11276  -0.00001   0.00000  -0.00054  -0.00054  -3.11329
   D43       -3.13516   0.00000   0.00000  -0.00008  -0.00008  -3.13524
   D44        0.03051  -0.00001   0.00000  -0.00038  -0.00038   0.03013
   D45       -0.00476   0.00001   0.00000   0.00022   0.00022  -0.00454
   D46        3.11276   0.00001   0.00000   0.00052   0.00052   3.11328
   D47        3.13515   0.00000   0.00000   0.00010   0.00010   3.13525
   D48       -0.03051   0.00001   0.00000   0.00040   0.00040  -0.03012
   D49        1.56360   0.00000   0.00000   0.00037   0.00037   1.56397
   D50       -2.63393   0.00001   0.00000   0.00045   0.00045  -2.63348
   D51       -0.52242   0.00000   0.00000   0.00027   0.00027  -0.52215
   D52       -1.55323   0.00000   0.00000   0.00006   0.00006  -1.55317
   D53        0.53243   0.00001   0.00000   0.00014   0.00014   0.53256
   D54        2.64393  -0.00001   0.00000  -0.00004  -0.00004   2.64389
         Item               Value     Threshold  Converged?
 Maximum Force            0.000046     0.000450     YES
 RMS     Force            0.000015     0.000300     YES
 Maximum Displacement     0.014253     0.001800     NO 
 RMS     Displacement     0.004735     0.001200     NO 
 Predicted change in Energy=-2.052030D-07
 GradGradGradGradGradGradGradGradGradGradGradGradGradGradGradGradGradGrad

                          Input orientation:                          
 ---------------------------------------------------------------------
 Center     Atomic      Atomic             Coordinates (Angstroms)
 Number     Number       Type             X           Y           Z
 ---------------------------------------------------------------------
      1          6           0       -5.871284   -1.201038    0.002948
      2          6           0       -3.897776   -0.023792    0.000614
      3          6           0       -4.586212    1.206776    0.001030
      4          6           0       -5.978448    1.195850    0.002205
      5          6           0       -6.642042   -0.032694    0.003123
      6          1           0       -6.352928   -2.177403    0.003592
      7          1           0       -4.027188    2.137280    0.000383
      8          1           0       -6.534638    2.129645    0.002419
      9          1           0       -7.726616   -0.090791    0.004033
     10          6           0       -2.470912   -0.041248   -0.000042
     11          6           0       -1.249725   -0.028012   -0.000632
     12          6           0        0.110167   -0.016881   -0.001301
     13          6           0        1.332499   -0.006854   -0.001935
     14          6           0        2.753510   -0.002284   -0.002815
     15          6           0        3.471937    1.211686   -0.005222
     16          6           0        3.476824   -1.213595   -0.005870
     17          6           0        4.864222    1.205796   -0.008730
     18          1           0        2.927511    2.151508   -0.007787
     19          6           0        4.868960   -1.201891   -0.009390
     20          1           0        2.935833   -2.155329   -0.008912
     21          6           0        5.588676    0.003431   -0.008085
     22          1           0        5.400069    2.152623   -0.013764
     23          1           0        5.408565   -2.146559   -0.014937
     24          6           0        7.098559    0.006195    0.024740
     25          1           0        7.466820    0.001035    1.059874
     26          1           0        7.512970   -0.877295   -0.473416
     27          1           0        7.509676    0.896636   -0.463650
     28          7           0       -4.536043   -1.216169    0.001740
 ---------------------------------------------------------------------
                    Distance matrix (angstroms):
                    1          2          3          4          5
     1  C    0.000000
     2  C    2.297966   0.000000
     3  C    2.729281   1.410050   0.000000
     4  C    2.399282   2.411789   1.392279   0.000000
     5  C    1.399676   2.744281   2.400567   1.396309   0.000000
     6  H    1.088701   3.265856   3.817584   3.393976   2.164107
     7  H    3.813799   2.164944   1.085517   2.166497   3.397978
     8  H    3.396099   3.404458   2.155934   1.086886   2.165005
     9  H    2.162153   3.829427   3.397914   2.170608   1.086130
    10  C    3.592721   1.426971   2.456025   3.719304   4.171139
    11  C    4.768103   2.648055   3.557647   4.884533   5.392320
    12  C    6.097540   4.007949   4.853176   6.208217   6.752228
    13  C    7.302094   5.230303   6.041858   7.409214   7.974584
    14  C    8.707704   6.651322   7.438640   8.813776   9.395603
    15  C    9.649719   7.472558   8.058154   9.450401  10.190246
    16  C    9.348121   7.469967   8.418480   9.757441  10.187544
    17  C   11.002003   8.847858   9.450440  10.842680  11.572731
    18  H    9.415863   7.163557   7.572888   8.957091   9.815661
    19  C   10.740251   8.845546   9.757155  11.109256  11.570235
    20  H    8.858675   7.158335   8.239236   9.523389   9.810271
    21  C   11.523087   9.486495  10.245803  11.628427  12.230776
    22  H   11.759707   9.549184  10.030985  11.418682  12.238804
    23  H   11.319422   9.545384  10.542328  11.867437  12.234617
    24  C   13.025924  10.996402  11.746311  13.131028  13.740672
    25  H   13.433804  11.413882  12.159381  13.539626  14.148422
    26  H   13.396641  11.452437  12.286524  13.658056  14.188192
    27  H   13.552418  11.453938  12.108783  13.499483  14.189878
    28  N    1.335327   1.352460   2.423464   2.810403   2.415749
                    6          7          8          9         10
     6  H    0.000000
     7  H    4.901588   0.000000
     8  H    4.310879   2.507462   0.000000
     9  H    2.498193   4.318574   2.520148   0.000000
    10  C    4.430938   2.677309   4.607239   5.255939   0.000000
    11  C    5.537380   3.521760   5.708397   6.477197   1.221259
    12  C    6.814651   4.664560   6.982909   7.837133   2.581195
    13  C    7.986056   5.772656   8.152085   9.059505   3.803567
    14  C    9.362606   7.110247   9.529682  10.480502   5.224569
    15  C   10.392977   7.556033  10.048595  11.274047   6.073494
    16  C    9.876894   8.218188  10.554937  11.259567   6.062178
    17  C   11.716255   8.940074  11.436242  12.657429   7.440389
    18  H   10.240417   6.954719   9.462180  10.887537   5.826767
    19  C   11.264216   9.502190  11.880292  12.644496   7.431077
    20  H    9.288796   8.179869  10.394756  10.860493   5.805369
    21  C   12.139113   9.849783  12.308356  13.315631   8.059716
    22  H   12.525268   9.427280  11.934740  13.317022   8.171022
    23  H   11.761547  10.362671  12.685674  13.295094   8.155901
    24  C   13.627583  11.328034  13.797594  14.825506   9.569621
    25  H   14.030209  11.738752  14.201761  15.230356   9.994185
    26  H   13.934882  11.936809  14.373705  15.267335  10.030003
    27  H   14.207034  11.612656  14.106038  15.275416  10.035273
    28  N    2.055491   3.391837   3.897288   3.383228   2.375965
                   11         12         13         14         15
    11  C    0.000000
    12  C    1.359938   0.000000
    13  C    2.582311   1.222373   0.000000
    14  C    4.003318   2.643384   1.421019   0.000000
    15  C    4.881697   3.579231   2.462122   1.410626   0.000000
    16  C    4.872977   3.573028   2.460563   1.410839   2.425285
    17  C    6.237203   4.908771   3.734118   2.431995   1.392302
    18  H    4.711652   3.555191   2.683770   2.160815   1.086127
    19  C    6.230279   4.904124   3.732925   2.431919   2.788735
    20  H    4.695151   3.543643   2.680798   2.160759   3.409429
    21  C    6.838477   5.478551   4.256194   2.835176   2.437308
    22  H    6.998221   5.717514   4.605280   3.412919   2.145490
    23  H    6.987222   5.710406   4.603567   3.412826   3.876652
    24  C    8.348392   6.988478   5.766136   4.345144   3.821843
    25  H    8.780870   7.432817   6.225544   4.831626   4.308038
    26  H    8.816441   7.467577   6.259248   4.862054   4.573072
    27  H    8.820231   7.470008   6.259952   4.862257   4.075874
    28  N    3.494511   4.798497   5.991848   7.389934   8.367932
                   16         17         18         19         20
    16  C    0.000000
    17  C    2.788966   0.000000
    18  H    3.409643   2.155278   0.000000
    19  C    1.392190   2.407692   3.874857   0.000000
    20  H    1.086068   3.875028   4.306845   2.155464   0.000000
    21  C    2.437432   1.403750   3.419946   1.403850   3.420207
    22  H    3.876900   1.087951   2.472565   3.396301   4.962956
    23  H    2.145257   3.396268   4.962768   1.087935   2.472754
    24  C    3.821751   2.536222   4.690529   2.536088   4.690586
    25  H    4.304789   3.060536   5.135150   3.056016   5.130502
    26  H    4.077030   3.401627   5.515151   2.703973   4.774863
    27  H    4.574552   2.702029   4.772709   3.403461   5.517365
    28  N    8.012872   9.707266   8.188161   9.405021   7.530676
                   21         22         23         24         25
    21  C    0.000000
    22  H    2.157459   0.000000
    23  H    2.157533   4.299191   0.000000
    24  C    1.510242   2.737427   2.737153   0.000000
    25  H    2.160548   3.170724   3.162878   1.098702   0.000000
    26  H    2.166823   3.722370   2.499952   1.095650   1.767646
    27  H    2.166932   2.496066   3.725191   1.095640   1.767784
    28  N   10.197914  10.491679   9.988050  11.698661  12.110738
                   26         27         28
    26  H    0.000000
    27  H    1.773960   0.000000
    28  N   12.063140  12.238460   0.000000
 Stoichiometry    C16H11N
 Framework group  C1[X(C16H11N)]
 Deg. of freedom    78
 Full point group                 C1      NOp   1
 Largest Abelian subgroup         C1      NOp   1
 Largest concise Abelian subgroup C1      NOp   1
                         Standard orientation:                         
 ---------------------------------------------------------------------
 Center     Atomic      Atomic             Coordinates (Angstroms)
 Number     Number       Type             X           Y           Z
 ---------------------------------------------------------------------
      1          6           0       -5.871086   -1.200132    0.002564
      2          6           0       -3.897613   -0.022828    0.000229
      3          6           0       -4.586086    1.207719    0.000646
      4          6           0       -5.978321    1.196752    0.001820
      5          6           0       -6.641878   -0.031812    0.002738
      6          1           0       -6.352701   -2.176511    0.003207
      7          1           0       -4.027090    2.138241   -0.000002
      8          1           0       -6.534539    2.130531    0.002034
      9          1           0       -7.726451   -0.089940    0.003649
     10          6           0       -2.470749   -0.040241   -0.000427
     11          6           0       -1.249562   -0.026969   -0.001017
     12          6           0        0.110330   -0.015797   -0.001685
     13          6           0        1.332661   -0.005734   -0.002320
     14          6           0        2.753672   -0.001122   -0.003199
     15          6           0        3.472064    1.212869   -0.005606
     16          6           0        3.477023   -1.212411   -0.006255
     17          6           0        4.864349    1.207021   -0.009115
     18          1           0        2.927609    2.152676   -0.008172
     19          6           0        4.869158   -1.200666   -0.009774
     20          1           0        2.936060   -2.154161   -0.009297
     21          6           0        5.588838    0.004678   -0.008469
     22          1           0        5.400167    2.153864   -0.014149
     23          1           0        5.408791   -2.145318   -0.015321
     24          6           0        7.098721    0.007487    0.024355
     25          1           0        7.466982    0.002338    1.059490
     26          1           0        7.513159   -0.875991   -0.473800
     27          1           0        7.509812    0.897940   -0.464034
     28          7           0       -4.535845   -1.215223    0.001356
 ---------------------------------------------------------------------
 Rotational constants (GHZ):           2.8305631           0.1112238           0.1070905
 Standard basis: 6-31+G(d) (6D, 7F)
 There are   345 symmetry adapted cartesian basis functions of A   symmetry.
 There are   345 symmetry adapted basis functions of A   symmetry.
   345 basis functions,   588 primitive gaussians,   345 cartesian basis functions
    57 alpha electrons       57 beta electrons
       nuclear repulsion energy       889.7351796193 Hartrees.
 NAtoms=   28 NActive=   28 NUniq=   28 SFac= 1.00D+00 NAtFMM=   60 NAOKFM=F Big=F
 Integral buffers will be    131072 words long.
 Raffenetti 2 integral format.
 Two-electron integral symmetry is turned on.
 Nuclear repulsion after empirical dispersion term =      889.7180870256 Hartrees.
 One-electron integrals computed using PRISM.
 NBasis=   345 RedAO= T EigKep=  3.47D-06  NBF=   345
 NBsUse=   339 1.00D-06 EigRej=  7.26D-07 NBFU=   339
 Initial guess from the checkpoint file:  "MOLECULE_41.chk"
 B after Tr=     0.000000    0.000000    0.000000
         Rot=    1.000000    0.000014    0.000031    0.000005 Ang=   0.00 deg.
 Requested convergence on RMS density matrix=1.00D-08 within 128 cycles.
 Requested convergence on MAX density matrix=1.00D-06.
 Requested convergence on             energy=1.00D-06.
 No special actions if energy rises.
 SCF Done:  E(RB3LYP) =  -671.014851717     A.U. after   11 cycles
            NFock= 11  Conv=0.54D-08     -V/T= 2.0099
 Calling FoFJK, ICntrl=      2127 FMM=F ISym2X=0 I1Cent= 0 IOpClX= 0 NMat=1 NMatS=1 NMatT=0.
 ***** Axes restored to original set *****
 -------------------------------------------------------------------
 Center     Atomic                   Forces (Hartrees/Bohr)
 Number     Number              X              Y              Z
 -------------------------------------------------------------------
      1        6          -0.000027119    0.000007989   -0.000029239
      2        6          -0.000011826   -0.000091341    0.000085131
      3        6          -0.000002127    0.000024506   -0.000026298
      4        6           0.000014731    0.000005683   -0.000000123
      5        6           0.000003893   -0.000020402    0.000006892
      6        1           0.000001476    0.000000392    0.000010276
      7        1           0.000001979   -0.000002666   -0.000002834
      8        1          -0.000001996   -0.000001107    0.000001235
      9        1          -0.000000835    0.000002243    0.000001316
     10        6           0.000002818   -0.000002861   -0.000024648
     11        6          -0.000000020    0.000105871   -0.000003152
     12        6           0.000001752   -0.000073634    0.000024030
     13        6          -0.000002959    0.000054553   -0.000049683
     14        6           0.000006322   -0.000062937    0.000018938
[...]
 -0.00004987,0.00001042,-0.00238162,0.00032911,-0.00002325,-0.00565460,
 0.00019876,0.00070183,0.00569172,0.00015261,-0.00068154,0.00571744,-0.
 00041388,0.00023746,-0.06602211,-0.00010630,0.00001318,0.00752180,-0.0
 0043957,-0.00034938,-0.06611091,-0.00010429,-0.00001701,0.00753637,0.0
 0527842,0.00014162,0.17204614,-0.00000601,0.00002987,-0.00000051,0.000
 19973,-0.00001835,0.00000005,-0.00009253,0.00000422,-0.00000017,0.0000
 3535,0.00001676,0.00000067,-0.00002988,-0.00003173,-0.00000005,-0.0000
 0906,-0.00000585,-0.00000002,0.00000668,-0.00000783,-0.00000024,-0.000
 00950,0.00000493,0.,-0.00000603,-0.00000005,0.00000005,-0.00014374,0.0
 0001523,0.00000034,0.00008820,0.00010612,-0.00000397,-0.00042582,-0.00
 001822,-0.00000050,-0.00033207,-0.00128340,0.00003906,-0.00497857,0.00
 161936,0.00003064,-0.01169476,-0.02946944,-0.00005055,-0.00065062,0.00
 072370,-0.00001641,-0.12608736,-0.11805397,0.00096350,0.00054720,0.000
 33836,-0.00001845,-0.00132253,0.00332009,0.00004107,0.00007869,-0.0000
 9792,0.00000330,0.01055397,0.01413980,-0.00000212,0.13288289,-0.000007
 99,0.00002953,-0.00000018,0.00012137,-0.00001301,0.00000056,-0.0000584
 3,0.00001420,-0.00000004,0.00003366,0.00000758,0.00000020,-0.00002396,
 -0.00002989,-0.00000002,-0.00000509,-0.00000474,-0.00000001,0.00000378
 ,-0.00000330,-0.00000011,-0.00000450,0.00000399,0.,-0.00000430,-0.0000
 0044,0.00000002,-0.00007985,0.00001064,-0.00000229,0.00003365,-0.00001
 877,0.00000368,-0.00000507,-0.00000951,-0.00000650,0.00004742,0.000046
 64,0.00001456,0.00090532,0.00196319,0.00004124,0.00194594,0.00368437,-
 0.00004634,0.00092756,0.00012707,0.00000770,-0.11777237,-0.26808260,0.
 00121207,-0.00031520,0.00090466,-0.00003436,0.00417952,-0.00302874,0.0
 0008075,-0.00011278,-0.00000184,-0.00001373,-0.01582806,-0.02007163,0.
 00012958,0.12669698,0.28445807,0.00000020,-0.00000145,-0.00000518,-0.0
 0000735,0.00000076,0.00000495,0.00000329,-0.00000087,0.00000309,-0.000
 00179,-0.00000047,0.00000137,0.00000131,0.00000150,0.00000026,0.000000
 29,0.00000026,0.00000052,-0.00000023,0.00000023,0.00000108,0.00000025,
 -0.00000021,0.00000059,0.00000024,0.00000002,0.00000103,0.00000676,-0.
 00000196,0.00000506,-0.00000631,0.00000533,-0.00003394,0.00001385,-0.0
 0001201,-0.00016804,-0.00000973,0.00002119,0.00052817,0.00004278,0.000
 02894,0.00729254,-0.00004350,0.00007683,0.00293704,0.00003632,-0.00001
 378,-0.00063061,0.00074043,0.00151822,-0.03647700,0.00000357,-0.000016
 62,-0.00420913,-0.00007114,-0.00015633,0.00623528,0.00000155,0.0000068
 3,-0.00105559,0.00068790,-0.00002769,0.00365102,-0.00092941,-0.0013355
 4,0.02527604,-0.00001124,0.00003412,0.00000053,0.00019935,0.00000252,0
 .00000031,-0.00009048,0.00000818,0.00000016,0.00003545,0.00001770,-0.0
 0000074,-0.00002805,-0.00003611,0.00000011,-0.00001082,-0.00000631,0.0
 0000007,0.00000704,-0.00000949,0.00000033,-0.00000775,0.00000444,0.000
 00008,-0.00000613,-0.00000022,0.,-0.00014462,0.00002263,0.00000041,0.0
 0008883,-0.00010511,-0.00000480,-0.00042308,0.00000511,0.00000050,-0.0
 0033752,0.00129734,0.00003941,-0.00497869,-0.00161231,0.00003007,-0.00
 064718,-0.00073028,-0.00001641,-0.01175206,0.02944222,-0.00003305,-0.0
 0131298,-0.00331547,0.00003858,0.00007932,0.00009868,0.00000324,-0.126
 48004,0.11829950,0.00103396,0.00054949,-0.00033156,-0.00001906,0.01057
 349,-0.01411911,-0.00000952,0.00062391,-0.00081436,-0.00004203,0.13328
 904,0.00000907,-0.00003161,-0.00000009,-0.00011968,0.00000884,0.000000
 12,0.00005597,-0.00001556,-0.00000016,-0.00003381,-0.00000728,0.000000
 36,0.00002390,0.00003128,-0.00000014,0.00000570,0.00000493,-0.00000003
 ,-0.00000383,0.00000380,-0.00000011,0.00000372,-0.00000374,-0.00000003
 ,0.00000429,0.00000043,0.,0.00007773,0.00000153,-0.00000028,-0.0000313
 0,-0.00003017,0.00000072,0.00000001,-0.00000879,0.00000209,-0.00004409
 ,0.00005713,-0.00001223,-0.00092822,0.00195300,-0.00004467,-0.00092555
 ,0.00012613,-0.00000747,-0.00195634,0.00374542,0.00004640,-0.00416521,
 -0.00303302,-0.00008586,0.00011420,-0.00000261,0.00001443,0.11804568,-
 0.26781659,-0.00134534,0.00030766,0.00089863,0.00003740,0.01585222,-0.
 02004695,-0.00014380,0.00081322,-0.00113828,0.00002449,-0.12696250,0.2
 8412720,0.00000020,-0.00000157,0.00000340,-0.00000734,0.00000022,0.000
 00388,0.00000327,-0.00000080,-0.00000451,-0.00000179,-0.00000051,-0.00
 000596,0.00000129,0.00000156,-0.00000016,0.00000032,0.00000028,0.00000
 087,-0.00000022,0.00000025,0.00000352,0.00000022,-0.00000020,0.0000014
 4,0.00000024,0.00000001,0.00000064,0.00000660,0.00000185,0.00000758,-0
 .00000617,-0.00000698,-0.00003924,0.00001355,0.00001299,-0.00016569,-0
 .00000943,-0.00002129,0.00052393,0.00004261,-0.00003267,0.00729914,0.0
 0003622,0.00001490,-0.00062506,-0.00004395,-0.00007645,0.00298162,-0.0
 0007464,0.00015113,0.00623848,0.00000158,-0.00000631,-0.00106004,0.000
 81171,-0.00165218,-0.03656645,0.00000330,0.00001927,-0.00421588,0.0006
 9772,0.00001381,0.00365508,-0.00004162,-0.00002541,0.00020099,-0.00100
 608,0.00148515,0.02530930,0.00001623,-0.00000128,0.00000103,0.00009557
 ,-0.00000054,-0.00000232,-0.00002385,0.00002663,-0.00000059,0.00001950
 ,0.00000626,0.00000119,-0.00001388,-0.00000416,-0.00000058,0.00000003,
 -0.00000028,-0.00000006,-0.00000087,0.00000127,-0.00000012,0.00000036,
 0.00000027,-0.00000005,0.00000046,0.00000003,0.00000001,-0.00023734,-0
 .00000582,0.00000552,0.00038605,0.00000827,-0.00000454,-0.00074775,0.0
 0000094,0.00004774,0.00124714,-0.00000432,-0.00022576,-0.00208048,0.00
 002688,0.00016490,0.00297231,0.00124942,0.00043782,0.00302856,-0.00126
 616,0.00043854,-0.02221384,0.00459880,-0.00048426,-0.00005482,-0.00017
 496,-0.00012284,-0.02222628,-0.00466140,-0.00048198,-0.00005431,0.0001
 7309,-0.00012254,-0.21203968,-0.00004232,-0.00285278,0.00105169,-0.001
 50876,-0.00043389,0.00104459,0.00149778,-0.00043501,0.48775301,-0.0000
 0024,-0.00000215,0.00000594,-0.00000575,-0.00000177,0.00000647,0.00000
 098,-0.00000104,-0.00000136,-0.00000184,0.00000052,-0.00000423,0.00000
 240,0.00000131,-0.00000124,0.,-0.00000032,0.00000046,-0.00000129,0.000
 00057,0.00000207,0.00000015,-0.00000002,0.00000033,0.00000033,0.000000
 45,-0.00000023,0.00000463,-0.00000304,-0.00001512,-0.00000428,-0.00000
 495,0.00001745,0.00000714,0.00004848,-0.00001307,-0.00001019,0.0001739
 3,0.00000664,0.00002557,-0.00045490,-0.00000104,0.00163781,-0.00482979
 ,0.00115560,-0.00167713,-0.00485709,-0.00116012,0.02937480,0.00345625,
 0.00162872,0.00138557,0.00005556,-0.00010361,-0.02941801,0.00344790,-0
 .00163095,-0.00138393,0.00006196,0.00010473,-0.00016162,-0.08980929,-0
 .00001251,0.00122762,0.00061942,-0.00085271,-0.00120887,0.00063096,0.0
 0085328,0.00008884,0.58572613,-0.00001921,0.00008243,-0.00001739,0.000
 32342,-0.00002863,0.00000288,-0.00014661,0.00004938,0.00001127,0.00009
 785,0.00001652,-0.00002010,-0.00006849,-0.00008304,0.00001317,-0.00001
 196,-0.00001101,0.00000190,0.00000726,-0.00000537,0.00000127,-0.000008
 71,0.00000921,0.00000082,-0.00000882,-0.00000122,-0.00000083,-0.000324
 87,0.00002582,-0.00001910,0.00030246,-0.00001848,0.00009051,-0.0005252
 8,0.00001458,-0.00009908,0.00078156,-0.00000100,-0.00057123,-0.0012722
 6,0.00001025,-0.00103880,0.00137415,-0.00040659,0.00648837,0.00138940,
 0.00039260,0.00643507,0.00016046,0.00041462,0.00492481,0.00016649,-0.0
 0000260,-0.00003619,0.00012839,-0.00041780,0.00490312,0.00016465,0.000
 00273,-0.00004352,0.00154874,-0.00000363,-0.07143893,-0.00023423,0.000
 55302,-0.00328692,-0.00023460,-0.00055021,-0.00325317,-0.01226378,0.00
 003674,0.53794761,-0.00002529,0.00006847,-0.00000019,0.00022954,-0.000
 02189,-0.00000004,-0.00011378,0.00002737,-0.00000021,0.00007075,0.0000
 1236,0.00000084,-0.00005019,-0.00006691,0.00000020,-0.00001050,-0.0000
 0936,-0.00000011,0.00000668,-0.00000566,-0.00000082,-0.00000805,0.0000
 0766,-0.00000027,-0.00000792,-0.00000094,-0.00000034,-0.00015804,0.000
 01205,-0.00000273,0.00006270,0.00000250,0.00001902,-0.00009050,-0.0000
 0060,-0.00001242,0.00000673,0.00000192,-0.00012494,-0.00011856,0.00000
 806,-0.00025672,-0.00043498,-0.00017704,0.00150596,-0.00041933,0.00017
 766,0.00149979,-0.00034205,-0.00128598,0.00050620,-0.00010808,0.000035
 72,-0.00005220,-0.00030750,0.00127507,0.00051989,-0.00010398,-0.000034
 66,-0.00005516,-0.01516579,0.00018868,-0.03132360,0.00004011,0.0003554
 6,-0.00068019,0.00004238,-0.00036023,-0.00067950,-0.07159006,0.0004219
 9,-0.08066909,0.08064396,-0.00000075,0.00000127,-0.00000183,0.00000092
 ,0.00000274,-0.00000307,0.00000034,0.00000073,0.00000044,0.00000038,0.
 00000019,0.00000123,0.00000006,-0.00000112,0.00000030,-0.00000038,-0.0
 0000017,-0.00000008,-0.00000002,-0.00000025,-0.00000048,0.00000039,-0.
 00000008,-0.00000004,-0.00000003,0.00000003,0.00000006,-0.00000104,-0.
 00001031,0.00000727,0.00000132,0.00002685,-0.00000773,-0.00000229,-0.0
 0004785,0.00000363,0.00000487,0.00002999,0.00000111,-0.00000874,0.0011
 1821,-0.00000069,-0.00113536,-0.00057302,-0.00039659,0.00115715,-0.000
 57305,0.00038778,0.00185032,-0.00035024,-0.00058462,0.00001654,-0.0000
 1605,0.00006452,-0.00186740,-0.00035364,0.00058100,-0.00001538,-0.0000
 1584,-0.00006415,0.00002211,0.00033504,-0.00003326,0.00005979,-0.00012
 698,0.00031031,-0.00005900,-0.00013380,-0.00029934,0.00039578,-0.04654
 362,0.00130040,-0.00047646,0.04566478,-0.00000584,0.00001084,-0.000000
 18,0.00001508,-0.00000248,-0.00000038,-0.00001214,-0.00000215,0.000000
 73,0.00000596,-0.00000003,0.00000018,-0.00000399,-0.00000839,0.0000002
 8,-0.00000181,-0.00000176,-0.00000033,0.00000166,-0.00000187,-0.000000
 86,-0.00000145,0.00000136,-0.00000041,-0.00000176,-0.00000011,-0.00000
 036,0.00003869,-0.00000240,0.00000118,-0.00008670,0.00000634,-0.000001
 46,0.00017521,-0.00000232,0.00001593,-0.00032313,-0.00000170,-0.000084
 11,0.00055067,-0.00000119,-0.00006694,-0.00060708,-0.00003602,0.000078
 91,-0.00061348,0.00003325,0.00008651,0.00044188,-0.00071139,0.00028099
 ,-0.00004442,-0.00000115,0.00003338,0.00043977,0.00071093,0.00030525,-
 0.00004449,0.00000138,0.00003269,-0.00190804,-0.00001646,0.00369412,-0
 .00005466,-0.00005134,-0.00029602,-0.00005811,0.00004601,-0.00030353,-
 0.07643533,0.00130425,-0.27728829,0.08643864,-0.00143650,0.30142230,-0
 .00001087,0.00003202,-0.00000113,0.00011523,-0.00000908,-0.00000329,-0
 .00005429,0.00001473,0.00000051,0.00003401,0.00000606,0.00000008,-0.00
 002395,-0.00003156,0.00000036,-0.00000527,-0.00000448,0.00000004,0.000
 00343,-0.00000318,-0.00000020,-0.00000357,0.00000351,0.00000001,-0.000
 00372,-0.00000046,0.00000014,-0.00008856,0.00000780,0.00000515,0.00005
 725,0.00000488,0.00000059,-0.00008091,-0.00000605,-0.00001651,0.000093
 51,-0.00008454,0.00005188,0.00002616,-0.00015817,0.00016261,-0.0001277
 1,0.00144969,-0.00088565,-0.00002519,0.00008124,-0.00040289,-0.0056484
 2,-0.00195483,0.00046878,-0.00045802,-0.00000540,-0.00003121,0.0011759
 5,0.00168345,-0.00057226,0.00003300,-0.00001790,0.00002350,-0.01314190
 ,0.02833244,0.01476716,0.00004328,0.00003338,0.00027203,-0.00028005,-0
 .00128120,0.00041841,-0.08323256,0.07566313,0.04522443,0.00400932,-0.0
 0923691,-0.00400643,0.09298937,0.00000437,-0.00001285,-0.00000185,-0.0
 0004270,0.00000310,-0.00000338,0.00002116,-0.00000315,0.00000097,-0.00
 001078,-0.00000267,0.00000179,0.00000738,0.00001188,0.00000063,0.00000
 273,0.00000233,-0.00000042,-0.00000219,0.00000250,-0.00000148,0.000001
 60,-0.00000167,-0.00000048,0.00000225,0.00000015,-0.00000023,0.0000079
 1,-0.00000358,0.00000317,0.00001826,0.00000039,0.00000927,-0.00004252,
 -0.00001269,0.00000946,0.00012005,0.00006380,-0.00015432,-0.00029399,0
 .00028746,0.00005111,-0.00010267,-0.00009152,-0.00000737,0.00070483,0.
 00012946,0.00058329,0.00035829,0.00045962,-0.00060681,0.00005666,0.000
 00175,0.00000891,-0.00206453,0.00035727,0.00036753,0.00006034,0.000003
 24,-0.00003736,0.00015603,0.00063362,0.00206220,-0.00018721,0.00043167
 ,-0.00006243,-0.00007908,0.00023141,-0.00048979,0.07762376,-0.22265061
 ,-0.09787308,-0.00100906,0.00092729,0.00049334,-0.08496620,0.23913265,
 0.00000560,-0.00002280,-0.00000020,-0.00008510,0.00000647,0.00000176,0
 .00003844,-0.00001340,-0.00000006,-0.00002545,-0.00000463,-0.00000036,
 0.00001747,0.00002253,0.00000013,0.00000356,0.00000325,0.00000014,-0.0
 0000197,0.00000200,0.00000028,0.00000210,-0.00000248,0.00000015,0.0000
 0268,0.00000028,0.00000014,0.00007862,-0.00000159,-0.00000411,-0.00007
 010,-0.00000282,0.00000519,0.00011294,-0.00000052,-0.00000425,-0.00017
 420,0.00001146,0.00001081,0.00019890,0.00047261,-0.00001949,-0.0009119
 3,-0.00011047,0.00009717,0.00019494,0.00003495,-0.00004627,-0.00000908
 ,0.00008211,0.00052313,-0.00004272,0.00001198,-0.00007898,-0.00010791,
 -0.00028402,0.00040353,0.00001804,-0.00000587,-0.00002512,-0.00274406,
 0.00288894,0.00065572,-0.00004033,-0.00014145,-0.00002807,0.00031640,0
 .00039039,0.00004707,0.04689804,-0.09822065,-0.10294534,0.01169188,-0.
 02658620,-0.01411854,-0.04828884,0.10870865,0.10765273,-0.00000892,0.0
 0003068,0.00000101,0.00011382,-0.00001157,0.00000332,-0.00005529,0.000
 01253,0.00000009,0.00003323,0.00000640,-0.00000110,-0.00002400,-0.0000
 2992,-0.00000032,-0.00000465,-0.00000428,-0.00000003,0.00000310,-0.000
 00249,0.00000068,-0.00000409,0.00000359,0.00000012,-0.00000367,-0.0000
 0036,0.00000011,-0.00008763,0.00001277,-0.00001208,0.00005756,-0.00001
 640,0.00002058,-0.00008105,0.00001146,-0.00002835,0.00009434,0.0000900
 2,0.00005405,0.00002923,0.00016647,0.00016100,-0.00003007,-0.00007772,
 -0.00039308,-0.00011604,-0.00147123,-0.00087159,0.00118365,-0.00169721
 ,-0.00056442,0.00003343,0.00001785,0.00002218,-0.00569412,0.00194915,0
 .00046204,-0.00045835,0.00000826,-0.00002927,-0.01305463,-0.02852223,0
 .01447132,-0.00029124,0.00129043,0.00041258,0.00004355,-0.00003208,0.0
 0026630,-0.08307525,-0.07596854,0.04419024,0.00399539,0.00929353,-0.00
 389258,0.00463155,0.00964093,-0.00709808,0.09279775,-0.00000325,0.0000
 1179,-0.00000200,0.00004504,-0.00000548,0.00000054,-0.00002360,0.00000
 237,0.00000041,0.00001145,0.00000266,0.00000060,-0.00000821,-0.0000110
 8,0.00000035,-0.00000225,-0.00000225,0.00000008,0.00000224,-0.00000211
 ,0.00000007,-0.00000230,0.00000192,0.00000022,-0.00000227,-0.00000020,
 0.00000040,-0.00001033,0.00000409,0.00000245,-0.00001543,-0.00000101,-
 0.00001484,0.00003816,-0.00001131,-0.00000463,-0.00011317,0.00006236,0
 .00014905,0.00028446,0.00028306,-0.00004862,-0.00068865,0.00013749,-0.
 00058119,0.00010923,-0.00009163,0.00001134,0.00205863,0.00036846,-0.00
 036422,-0.00006143,0.00000427,0.00003769,-0.00035807,0.00046911,0.0006
 0753,-0.00005664,0.00000284,-0.00000987,-0.00011636,0.00061391,-0.0020
 2501,0.00007803,0.00024300,0.00048614,0.00018901,0.00043044,0.00005768
 ,-0.07799890,-0.22506603,0.09654464,0.00088225,0.00064120,-0.00033316,
 -0.00953547,-0.01990563,0.01274708,0.08531343,0.24181956,0.00000438,-0
 .00002099,-0.00000009,-0.00008417,0.00000834,0.00000077,0.00003917,-0.
 00001220,-0.00000035,-0.00002512,-0.00000437,-0.00000025,0.00001765,0.
 00002098,-0.00000012,0.00000299,0.00000303,0.00000020,-0.00000204,0.00
 000162,0.00000051,0.00000264,-0.00000261,0.00000025,0.00000260,0.00000
 036,0.00000012,0.00007803,-0.00000105,-0.00000201,-0.00007020,-0.00000
 497,0.00000387,0.00011300,0.00000059,-0.00000553,-0.00017494,-0.000009
 58,0.00001256,0.00020158,-0.00047454,-0.00001976,0.00019419,-0.0000323
 4,-0.00005145,-0.00091336,0.00011230,0.00011043,-0.00010803,0.00027777
 ,0.00038570,0.00001766,0.00000562,-0.00002562,-0.00000256,-0.00007652,
 0.00055049,-0.00004239,-0.00001168,-0.00008255,-0.00273178,-0.00287433
 ,0.00058077,0.00031412,-0.00038623,0.00005670,-0.00003932,0.00014275,-
 0.00003540,0.04587192,0.09689725,-0.10076697,0.01167454,0.02675530,-0.
 01379255,-0.00718762,-0.01306329,0.00787376,-0.04717348,-0.10726226,0.
 10520697,-0.35289656,-0.01244183,0.00027023,-0.14008789,-0.06839376,0.
 00010205,0.06477789,-0.03220635,-0.00002301,-0.05561990,-0.03615588,0.
 00005422,-0.04817271,0.08794411,0.00002799,-0.02726920,-0.00511282,0.0
 0002804,-0.00044474,0.00320068,0.00000619,-0.00035001,-0.00048771,-0.0
 0000538,-0.00078286,0.00408723,0.00000554,-0.05063384,-0.03972530,0.00
 005317,0.00871810,-0.00086880,-0.00000018,-0.00492494,0.00194876,-0.00
 000076,0.00254699,-0.00007612,0.00000007,-0.00065524,-0.00010877,-0.00
 000020,0.00000852,0.00044908,-0.00000441,0.00005618,-0.00041933,-0.000
 00430,-0.00024674,0.00007338,-0.00000130,0.00006010,0.00003138,0.00000
 172,-0.00024271,-0.00009287,-0.00000143,0.00006556,-0.00003869,0.00000
 143,0.00016725,-0.00000075,0.00004124,-0.00007200,-0.00003376,0.000002
 22,-0.00006577,0.00003288,0.00000220,-0.00002454,0.00000075,-0.0000715
 9,-0.00005296,0.00000026,-0.00000612,-0.00002707,0.00001438,0.00002015
 ,-0.00002760,-0.00001560,0.00002052,0.60619671,0.01237285,-0.12431272,
 0.00001826,-0.06410845,-0.27178493,0.00015570,0.01761327,-0.06629908,0
 .00002473,-0.03333242,-0.01701231,0.00003111,0.02452702,0.04330948,-0.
 00002954,-0.03130005,0.00691191,0.00002502,0.00410480,-0.00505404,0.00
 000229,-0.00046338,0.00027076,-0.00000272,0.00356642,-0.00438749,0.000
 00136,-0.03837257,-0.00073007,0.00003595,0.01020374,-0.00110019,-0.000
 01213,-0.00507212,0.00034317,0.00000731,0.00271155,-0.00003803,-0.0000
 0349,-0.00087616,-0.00000381,0.00000009,0.00020826,0.00030893,-0.00000
 230,0.00018530,-0.00034956,-0.00000325,-0.00019309,0.00013694,-0.00000
 063,0.00002099,0.00000818,0.00000094,-0.00018863,-0.00011602,0.0000000
 4,0.00001671,0.00000438,0.00000133,0.00012024,-0.00000558,0.00002440,-
 0.00002013,-0.00001428,0.00000100,-0.00003168,0.00001729,0.00000114,-0
 .00002913,0.00000117,-0.00005029,-0.00002843,-0.00000231,0.00000273,-0
 .00001690,0.00000479,0.00001423,-0.00001349,-0.00000180,0.00001108,0.0
 9839547,0.43989518,0.00026901,0.00003733,-0.06353945,0.00009490,0.0001
 7560,-0.06924988,-0.00004508,0.00006213,0.02208844,0.00005965,0.000036
 70,-0.00837683,0.00005066,-0.00008829,0.02310197,0.00003398,0.00000088
 ,-0.00436994,0.00000479,0.00000110,0.00700858,-0.00000309,-0.00000123,
 -0.00386245,0.00000531,0.00000174,0.00748048,0.00005427,0.00002430,-0.
 00197990,-0.00001061,0.00000878,0.00103188,0.00000683,-0.00000588,0.00
 071512,-0.00000324,0.00000089,-0.00014397,0.00000072,-0.00000119,0.000
 01445,0.00000067,0.00000066,0.00002958,-0.00000066,0.00000105,-0.00002
 498,0.00000016,-0.00000008,0.00004383,0.00000004,-0.00000028,-0.000021
 28,0.00000070,0.00000038,-0.00002957,-0.00000021,-0.00000017,-0.000004
 27,-0.00000083,-0.00000001,-0.00001921,0.00000046,0.00000018,-0.000005
 23,-0.00000045,0.00000011,-0.00000181,-0.00000030,-0.00000307,0.000005
 07,0.00000155,0.00000121,0.00000153,0.00000032,0.00000197,-0.00000093,
 -0.00000124,-0.00000048,-0.00000042,-0.00051831,-0.00025433,0.09010918
 \\0.00001733,-0.00001091,0.00002536,0.00000515,0.00002508,-0.00006480,
 0.00000903,-0.00000391,0.00002063,-0.00000991,-0.00000184,-0.00000050,
 -0.00000431,0.00001276,-0.00000609,0.00000030,0.00000074,-0.00000931,-
 0.00000312,-0.00000121,0.00000197,0.00000342,-0.00000070,-0.00000108,0
 .00000366,-0.00000042,-0.00000092,0.00001728,-0.00002736,0.00002156,-0
 .00000591,0.00006949,0.00000053,0.00000173,-0.00003670,-0.00000575,-0.
 00000537,-0.00001564,0.00000712,0.00000107,0.00002307,0.,-0.00000624,0
 .00000133,0.00000134,-0.00000117,-0.00001306,0.00000281,0.00000466,0.0
 0001287,0.00000420,0.00000081,-0.00000097,-0.00000311,-0.00000357,-0.0
 0001686,-0.00000023,-0.00000045,0.00000223,-0.00000316,0.00001149,0.00
 000400,-0.00000002,-0.00000617,-0.00000129,-0.00000143,-0.00000547,0.0
 0000165,-0.00000113,0.00000304,-0.00000066,-0.00000483,0.00000115,0.00
 000151,0.00000037,-0.00000179,0.00000461,0.00000261,-0.00000157,-0.000
 00499,0.00000027,-0.00002508,-0.00002281,0.00001361\\\@


 CURIOUSER AND CURIOUSER

                  -- ALICE, IN WONDERLAND
 Job cpu time:       0 days  2 hours  7 minutes 10.5 seconds.
 Elapsed time:       0 days  0 hours  4 minutes 14.4 seconds.
 File lengths (MBytes):  RWF=    337 Int=      0 D2E=      0 Chk=     11 Scr=      1
 Normal termination of Gaussian 16 at Mon Sep 18 06:39:09 2023.
