 Entering Gaussian System, Link 0=/home/ubuntu/g16/g16
 Input=/home/ubuntu/products/molecule_33.gjf
 Output=/home/ubuntu/products/molecule_33.log
 Initial command:
 /home/ubuntu/g16/l1.exe "/home/ubuntu/Scratch/Gau-29824.inp" -scrdir="/home/ubuntu/Scratch/"
 Entering Link 1 = /home/ubuntu/g16/l1.exe PID=     29826.
  
 Copyright (c) 1988-2017, Gaussian, Inc.  All Rights Reserved.
  
 This is part of the Gaussian(R) 16 program.  It is based on
 the Gaussian(R) 09 system (copyright 2009, Gaussian, Inc.),
 the Gaussian(R) 03 system (copyright 2003, Gaussian, Inc.),
 the Gaussian(R) 98 system (copyright 1998, Gaussian, Inc.),
 the Gaussian(R) 94 system (copyright 1995, Gaussian, Inc.),
 the Gaussian 92(TM) system (copyright 1992, Gaussian, Inc.),
 the Gaussian 90(TM) system (copyright 1990, Gaussian, Inc.),
 the Gaussian 88(TM) system (copyright 1988, Gaussian, Inc.),
 the Gaussian 86(TM) system (copyright 1986, Carnegie Mellon
 University), and the Gaussian 82(TM) system (copyright 1983,
 Carnegie Mellon University). Gaussian is a federally registered
 trademark of Gaussian, Inc.
  
 This software contains proprietary and confidential information,
 including trade secrets, belonging to Gaussian, Inc.
  
 This software is provided under written license and may be
 used, copied, transmitted, or stored only in accord with that
 written license.
  
 The following legend is applicable only to US Government
 contracts under FAR:
  
                    RESTRICTED RIGHTS LEGEND
  
 Use, reproduction and disclosure by the US Government is
 subject to restrictions as set forth in subparagraphs (a)
 and (c) of the Commercial Computer Software - Restricted
 Rights clause in FAR 52.227-19.
  
 Gaussian, Inc.
 340 Quinnipiac St., Bldg. 40, Wallingford CT 06492
  
  
 ---------------------------------------------------------------
 Warning -- This program may not be used in any manner that
 competes with the business of Gaussian, Inc. or will provide
 assistance to any competitor of Gaussian, Inc.  The licensee
 of this program is prohibited from giving any competitor of
 Gaussian, Inc. access to this program.  By using this program,
 the user acknowledges that Gaussian, Inc. is engaged in the
 business of creating and licensing software in the field of
 computational chemistry and represents and warrants to the
 licensee that it is not a competitor of Gaussian, Inc. and that
 it will not use this program in any manner prohibited above.
 ---------------------------------------------------------------
  

 Cite this work as:
 Gaussian 16, Revision B.01,
 M. J. Frisch, G. W. Trucks, H. B. Schlegel, G. E. Scuseria, 
 M. A. Robb, J. R. Cheeseman, G. Scalmani, V. Barone, 
 G. A. Petersson, H. Nakatsuji, X. Li, M. Caricato, A. V. Marenich, 
 J. Bloino, B. G. Janesko, R. Gomperts, B. Mennucci, H. P. Hratchian, 
 J. V. Ortiz, A. F. Izmaylov, J. L. Sonnenberg, D. Williams-Young, 
 F. Ding, F. Lipparini, F. Egidi, J. Goings, B. Peng, A. Petrone, 
 T. Henderson, D. Ranasinghe, V. G. Zakrzewski, J. Gao, N. Rega, 
 G. Zheng, W. Liang, M. Hada, M. Ehara, K. Toyota, R. Fukuda, 
 J. Hasegawa, M. Ishida, T. Nakajima, Y. Honda, O. Kitao, H. Nakai, 
 T. Vreven, K. Throssell, J. A. Montgomery, Jr., J. E. Peralta, 
 F. Ogliaro, M. J. Bearpark, J. J. Heyd, E. N. Brothers, K. N. Kudin, 
 V. N. Staroverov, T. A. Keith, R. Kobayashi, J. Normand, 
 K. Raghavachari, A. P. Rendell, J. C. Burant, S. S. Iyengar, 
 J. Tomasi, M. Cossi, J. M. Millam, M. Klene, C. Adamo, R. Cammi, 
 J. W. Ochterski, R. L. Martin, K. Morokuma, O. Farkas, 
 J. B. Foresman, and D. J. Fox, Gaussian, Inc., Wallingford CT, 2016.
 
 ******************************************
 Gaussian 16:  EM64L-G16RevB.01 20-Dec-2017
                18-Sep-2023 
 ******************************************
 %nprocshared=30
 Will use up to   30 processors via shared memory.
 %mem=30GB
 %chk=molecule_33.chk
 ---------------------------------------------------------
 # opt freq b3lyp/6-31+g(d) empiricaldispersion=gd3 volume
 ---------------------------------------------------------
 1/18=20,19=15,26=3,38=1/1,3;
 2/9=110,12=2,17=6,18=5,40=1/2;
 3/5=1,6=6,7=11,11=2,25=1,30=1,71=1,74=-5,124=31/1,2,3;
 4//1;
 5/5=2,38=5/2;
 6/7=2,8=2,9=2,10=2,28=1,44=1/1,4;
 7//1,2,3,16;
 1/18=20,19=15,26=3/3(2);
 2/9=110/2;
 99//99;
 2/9=110/2;
 3/5=1,6=6,7=11,11=2,25=1,30=1,71=1,74=-5,124=31/1,2,3;
 4/5=5,16=3,69=1/1;
 5/5=2,38=5/2;
 7//1,2,3,16;
 1/18=20,19=15,26=3/3(-5);
 2/9=110/2;
 6/7=2,8=2,9=2,10=2,19=2,28=1,44=1/1,4;
 99/9=1/99;
 -------------------
 Title Card Required
 -------------------
 Symbolic Z-matrix:
 Charge =  0 Multiplicity = 1
 C                    -5.13628  -1.15637   0.00017 
 C                    -3.74243  -1.20775   0.00014 
 C                    -3.0105    0.       -0.00001 
 C                    -3.74244   1.20774  -0.00013 
 C                    -5.13628   1.15636  -0.00011 
 H                    -5.72245  -2.06918   0.00022 
 H                    -3.22424  -2.15964   0.00022 
 H                    -3.22425   2.15964  -0.00026 
 H                    -5.72246   2.06916  -0.0002 
 C                    -1.5873    0.00001  -0.00004 
 C                    -0.36783   0.00001  -0.00006 
 C                     1.05639   0.00002  -0.00004 
 C                     1.77531  -1.21632  -0.00016 
 C                     1.77533   1.21634   0.00011 
 C                     3.17074  -1.21924  -0.00013 
 H                     1.233    -2.15503  -0.00027 
 C                     3.17076   1.21924   0.00012 
 H                     1.23303   2.15506   0.0002 
 C                     3.84712  -0.00001   0.00001 
 H                     3.72338  -2.15056  -0.00022 
 H                     3.72342   2.15054   0.00023 
 N                    -5.83958  -0.00001   0.00003 
 Cl                    5.6719   -0.00001   0.00004 
 

 GradGradGradGradGradGradGradGradGradGradGradGradGradGradGradGradGradGrad
 Berny optimization.
 Initialization pass.
                           ----------------------------
                           !    Initial Parameters    !
                           ! (Angstroms and Degrees)  !
 --------------------------                            --------------------------
 ! Name  Definition              Value          Derivative Info.                !
 --------------------------------------------------------------------------------
 ! R1    R(1,2)                  1.3948         estimate D2E/DX2                !
 ! R2    R(1,6)                  1.0848         estimate D2E/DX2                !
 ! R3    R(1,22)                 1.3534         estimate D2E/DX2                !
 ! R4    R(2,3)                  1.4122         estimate D2E/DX2                !
 ! R5    R(2,7)                  1.0838         estimate D2E/DX2                !
 ! R6    R(3,4)                  1.4122         estimate D2E/DX2                !
 ! R7    R(3,10)                 1.4232         estimate D2E/DX2                !
 ! R8    R(4,5)                  1.3948         estimate D2E/DX2                !
 ! R9    R(4,8)                  1.0838         estimate D2E/DX2                !
 ! R10   R(5,9)                  1.0848         estimate D2E/DX2                !
 ! R11   R(5,22)                 1.3534         estimate D2E/DX2                !
 ! R12   R(10,11)                1.2195         estimate D2E/DX2                !
 ! R13   R(11,12)                1.4242         estimate D2E/DX2                !
 ! R14   R(12,13)                1.4129         estimate D2E/DX2                !
 ! R15   R(12,14)                1.4129         estimate D2E/DX2                !
 ! R16   R(13,15)                1.3954         estimate D2E/DX2                !
 ! R17   R(13,16)                1.0841         estimate D2E/DX2                !
 ! R18   R(14,17)                1.3954         estimate D2E/DX2                !
 ! R19   R(14,18)                1.0841         estimate D2E/DX2                !
 ! R20   R(15,19)                1.3943         estimate D2E/DX2                !
 ! R21   R(15,20)                1.0829         estimate D2E/DX2                !
 ! R22   R(17,19)                1.3943         estimate D2E/DX2                !
 ! R23   R(17,21)                1.0829         estimate D2E/DX2                !
 ! R24   R(19,23)                1.8248         estimate D2E/DX2                !
 ! A1    A(2,1,6)              120.596          estimate D2E/DX2                !
 ! A2    A(2,1,22)             123.4192         estimate D2E/DX2                !
 ! A3    A(6,1,22)             115.9849         estimate D2E/DX2                !
 ! A4    A(1,2,3)              119.1061         estimate D2E/DX2                !
 ! A5    A(1,2,7)              120.6742         estimate D2E/DX2                !
 ! A6    A(3,2,7)              120.2198         estimate D2E/DX2                !
 ! A7    A(2,3,4)              117.5654         estimate D2E/DX2                !
 ! A8    A(2,3,10)             121.2174         estimate D2E/DX2                !
 ! A9    A(4,3,10)             121.2172         estimate D2E/DX2                !
 ! A10   A(3,4,5)              119.1061         estimate D2E/DX2                !
 ! A11   A(3,4,8)              120.2196         estimate D2E/DX2                !
 ! A12   A(5,4,8)              120.6743         estimate D2E/DX2                !
 ! A13   A(4,5,9)              120.5961         estimate D2E/DX2                !
 ! A14   A(4,5,22)             123.4192         estimate D2E/DX2                !
 ! A15   A(9,5,22)             115.9847         estimate D2E/DX2                !
 ! A16   A(11,12,13)           120.5852         estimate D2E/DX2                !
 ! A17   A(11,12,14)           120.5868         estimate D2E/DX2                !
 ! A18   A(13,12,14)           118.828          estimate D2E/DX2                !
 ! A19   A(12,13,15)           120.7055         estimate D2E/DX2                !
 ! A20   A(12,13,16)           119.3985         estimate D2E/DX2                !
 ! A21   A(15,13,16)           119.8959         estimate D2E/DX2                !
 ! A22   A(12,14,17)           120.7054         estimate D2E/DX2                !
 ! A23   A(12,14,18)           119.3988         estimate D2E/DX2                !
 ! A24   A(17,14,18)           119.8958         estimate D2E/DX2                !
 ! A25   A(13,15,19)           118.8996         estimate D2E/DX2                !
 ! A26   A(13,15,20)           120.8047         estimate D2E/DX2                !
 ! A27   A(19,15,20)           120.2957         estimate D2E/DX2                !
 ! A28   A(14,17,19)           118.8999         estimate D2E/DX2                !
 ! A29   A(14,17,21)           120.8051         estimate D2E/DX2                !
 ! A30   A(19,17,21)           120.295          estimate D2E/DX2                !
 ! A31   A(15,19,17)           121.9615         estimate D2E/DX2                !
 ! A32   A(15,19,23)           119.0194         estimate D2E/DX2                !
 ! A33   A(17,19,23)           119.0191         estimate D2E/DX2                !
 ! A34   A(1,22,5)             117.384          estimate D2E/DX2                !
 ! A35   L(3,10,11,7,-1)       179.9999         estimate D2E/DX2                !
 ! A36   L(10,11,12,16,-1)     180.0002         estimate D2E/DX2                !
 ! A37   L(3,10,11,7,-2)       180.0008         estimate D2E/DX2                !
 ! A38   L(10,11,12,16,-2)     180.002          estimate D2E/DX2                !
 ! D1    D(6,1,2,3)            179.9962         estimate D2E/DX2                !
 ! D2    D(6,1,2,7)             -0.0031         estimate D2E/DX2                !
 ! D3    D(22,1,2,3)             0.0018         estimate D2E/DX2                !
 ! D4    D(22,1,2,7)          -179.9975         estimate D2E/DX2                !
 ! D5    D(2,1,22,5)            -0.0019         estimate D2E/DX2                !
 ! D6    D(6,1,22,5)          -179.9965         estimate D2E/DX2                !
 ! D7    D(1,2,3,4)             -0.0006         estimate D2E/DX2                !
 ! D8    D(1,2,3,10)           179.9998         estimate D2E/DX2                !
 ! D9    D(7,2,3,4)            179.9987         estimate D2E/DX2                !
 ! D10   D(7,2,3,10)            -0.0009         estimate D2E/DX2                !
 ! D11   D(2,3,4,5)             -0.0005         estimate D2E/DX2                !
 ! D12   D(2,3,4,8)           -179.9991         estimate D2E/DX2                !
 ! D13   D(10,3,4,5)           179.9992         estimate D2E/DX2                !
 ! D14   D(10,3,4,8)             0.0006         estimate D2E/DX2                !
 ! D15   D(2,3,12,13)            0.0123         estimate D2E/DX2                !
 ! D16   D(2,3,12,14)         -179.9862         estimate D2E/DX2                !
 ! D17   D(4,3,12,13)         -179.9885         estimate D2E/DX2                !
 ! D18   D(4,3,12,14)            0.013          estimate D2E/DX2                !
 ! D19   D(3,4,5,9)           -179.9997         estimate D2E/DX2                !
 ! D20   D(3,4,5,22)             0.0004         estimate D2E/DX2                !
 ! D21   D(8,4,5,9)             -0.0011         estimate D2E/DX2                !
 ! D22   D(8,4,5,22)           179.999          estimate D2E/DX2                !
 ! D23   D(4,5,22,1)             0.0007         estimate D2E/DX2                !
 ! D24   D(9,5,22,1)          -179.9991         estimate D2E/DX2                !
 ! D25   D(11,12,13,15)       -179.9997         estimate D2E/DX2                !
 ! D26   D(11,12,13,16)          0.0002         estimate D2E/DX2                !
 ! D27   D(14,12,13,15)          0.0003         estimate D2E/DX2                !
 ! D28   D(14,12,13,16)       -179.9998         estimate D2E/DX2                !
 ! D29   D(11,12,14,17)       -179.9999         estimate D2E/DX2                !
 ! D30   D(11,12,14,18)          0.0002         estimate D2E/DX2                !
 ! D31   D(13,12,14,17)          0.0001         estimate D2E/DX2                !
 ! D32   D(13,12,14,18)       -179.9998         estimate D2E/DX2                !
 ! D33   D(12,13,15,19)         -0.0005         estimate D2E/DX2                !
 ! D34   D(12,13,15,20)        179.9997         estimate D2E/DX2                !
 ! D35   D(16,13,15,19)        179.9997         estimate D2E/DX2                !
 ! D36   D(16,13,15,20)         -0.0002         estimate D2E/DX2                !
 ! D37   D(12,14,17,19)         -0.0004         estimate D2E/DX2                !
 ! D38   D(12,14,17,21)        179.9999         estimate D2E/DX2                !
 ! D39   D(18,14,17,19)        179.9996         estimate D2E/DX2                !
 ! D40   D(18,14,17,21)         -0.0001         estimate D2E/DX2                !
 ! D41   D(13,15,19,17)          0.0002         estimate D2E/DX2                !
 ! D42   D(13,15,19,23)        180.0            estimate D2E/DX2                !
 ! D43   D(20,15,19,17)       -180.0            estimate D2E/DX2                !
 ! D44   D(20,15,19,23)         -0.0002         estimate D2E/DX2                !
 ! D45   D(14,17,19,15)          0.0002         estimate D2E/DX2                !
 ! D46   D(14,17,19,23)       -179.9996         estimate D2E/DX2                !
 ! D47   D(21,17,19,15)        179.9999         estimate D2E/DX2                !
 ! D48   D(21,17,19,23)          0.0002         estimate D2E/DX2                !
 --------------------------------------------------------------------------------
 Trust Radius=3.00D-01 FncErr=1.00D-07 GrdErr=1.00D-06 EigMax=2.50D+02 EigMin=1.00D-04
 Number of steps in this run=    120 maximum allowed number of steps=    138.
 GradGradGradGradGradGradGradGradGradGradGradGradGradGradGradGradGradGrad

                          Input orientation:                          
 ---------------------------------------------------------------------
 Center     Atomic      Atomic             Coordinates (Angstroms)
 Number     Number       Type             X           Y           Z
 ---------------------------------------------------------------------
      1          6           0       -5.136279   -1.156368    0.000173
      2          6           0       -3.742432   -1.207747    0.000140
      3          6           0       -3.010501    0.000001   -0.000009
      4          6           0       -3.742440    1.207743   -0.000130
      5          6           0       -5.136285    1.156356   -0.000108
      6          1           0       -5.722450   -2.069178    0.000224
      7          1           0       -3.224238   -2.159639    0.000216
      8          1           0       -3.224250    2.159637   -0.000261
      9          1           0       -5.722462    2.069159   -0.000204
     10          6           0       -1.587298    0.000008   -0.000043
     11          6           0       -0.367833    0.000012   -0.000059
     12          6           0        1.056386    0.000021   -0.000038
     13          6           0        1.775311   -1.216316   -0.000160
     14          6           0        1.775327    1.216340    0.000105
     15          6           0        3.170739   -1.219239   -0.000134
     16          1           0        1.232996   -2.155030   -0.000273
     17          6           0        3.170755    1.219238    0.000123
     18          1           0        1.233032    2.155064    0.000202
     19          6           0        3.847117   -0.000005    0.000005
     20          1           0        3.723378   -2.150555   -0.000223
     21          1           0        3.723417    2.150540    0.000231
     22          7           0       -5.839582   -0.000008    0.000033
     23         17           0        5.671897   -0.000013    0.000040
 ---------------------------------------------------------------------
                    Distance matrix (angstroms):
                    1          2          3          4          5
     1  C    0.000000
     2  C    1.394794   0.000000
     3  C    2.419942   1.412225   0.000000
     4  C    2.744414   2.415490   1.412224   0.000000
     5  C    2.312724   2.744414   2.419941   1.394792   0.000000
     6  H    1.084813   2.159290   3.411183   3.828662   3.278362
     7  H    2.159272   1.083800   2.170191   3.407021   3.827760
     8  H    3.827760   3.407020   2.170188   1.083800   2.159271
     9  H    3.278359   3.828659   3.411180   2.159288   1.084810
    10  C    3.732623   2.470481   1.423203   2.470478   3.732620
    11  C    4.906658   3.584215   2.642668   3.584214   4.906655
    12  C    6.299709   4.948470   4.066887   4.948467   6.299705
    13  C    6.911850   5.517750   4.937957   6.026744   7.307512
    14  C    7.307533   6.026762   4.937978   5.517774   6.911872
    15  C    8.307256   6.913181   6.300339   7.326820   8.640029
    16  H    6.447092   5.064803   4.759351   6.005265   7.178650
    17  C    8.640042   7.326828   6.300354   6.913205   8.307278
    18  H    7.178698   6.005309   4.759398   5.064853   6.447140
    19  C    9.057515   7.685044   6.857618   7.685052   9.057521
    20  H    8.915264   7.525105   7.068947   8.186367   9.456706
    21  H    9.456736   8.186391   7.068979   7.525150   8.915308
    22  N    1.353441   2.420056   2.829081   2.420055   1.353442
    23  Cl  10.869859   9.491481   8.682398   9.491492  10.869866
                    6          7          8          9         10
     6  H    0.000000
     7  H    2.499849   0.000000
     8  H    4.911607   4.319276   0.000000
     9  H    4.138337   4.911604   2.499850   0.000000
    10  C    4.623961   2.709917   2.709909   4.623956   0.000000
    11  C    5.740511   3.580942   3.580935   5.740507   1.219465
    12  C    7.087609   4.794567   4.794558   7.087603   2.643684
    13  C    7.546111   5.087765   6.032634   8.186021   3.575833
    14  C    8.186042   6.032652   5.087787   7.546134   3.575851
    15  C    8.933712   6.463751   7.232751   9.481697   4.911769
    16  H    6.955976   4.457236   6.203498   8.137700   3.549401
    17  C    9.481707   7.232755   6.463779   8.933738   4.911781
    18  H    8.137748   6.203541   4.457284   6.956024   3.549440
    19  C    9.790714   7.393787   7.393800   9.790724   5.434415
    20  H    9.446179   6.947622   8.176019  10.345525   5.729590
    21  H   10.345551   8.176035   6.947673   9.446230   5.729614
    22  N    2.072483   3.391759   3.391759   2.072479   4.252284
    23  Cl  11.580699   9.154518   9.154535  11.580712   7.259195
                   11         12         13         14         15
    11  C    0.000000
    12  C    1.424219   0.000000
    13  C    2.464248   1.412915   0.000000
    14  C    2.464262   1.412908   2.432656   0.000000
    15  C    3.742735   2.440714   1.395431   2.806995   0.000000
    16  H    2.684559   2.162276   1.084108   3.414712   2.151872
    17  C    3.742742   2.440706   2.806989   1.395431   2.438477
    18  H    2.684589   2.162271   3.414714   1.084106   3.891096
    19  C    4.214950   2.790731   2.402456   2.402459   1.394281
    20  H    4.622007   3.426051   2.160502   3.889844   1.082940
    21  H    4.622023   3.426045   3.889838   2.160506   3.414801
    22  N    5.471749   6.895968   7.711420   7.711442   9.092437
    23  Cl   6.039730   4.615511   4.082006   4.082006   2.782499
                   16         17         18         19         20
    16  H    0.000000
    17  C    3.891092   0.000000
    18  H    4.310094   2.151869   0.000000
    19  C    3.387885   1.394281   3.387885   0.000000
    20  H    2.490386   3.414806   4.973950   2.154107   0.000000
    21  H    4.973945   1.082940   2.490389   2.154100   4.301095
    22  N    7.393611   9.092455   7.393660   9.686699   9.801788
    23  Cl   4.934363   2.782496   4.934357   1.824780   2.901992
                   21         22         23
    21  H    0.000000
    22  N    9.801827   0.000000
    23  Cl   2.901974  11.511479   0.000000
 Stoichiometry    C13H8ClN
 Framework group  C1[X(C13H8ClN)]
 Deg. of freedom    63
 Full point group                 C1      NOp   1
 Largest Abelian subgroup         C1      NOp   1
 Largest concise Abelian subgroup C1      NOp   1
                         Standard orientation:                         
 ---------------------------------------------------------------------
 Center     Atomic      Atomic             Coordinates (Angstroms)
 Number     Number       Type             X           Y           Z
 ---------------------------------------------------------------------
      1          6           0        5.136279   -1.156368   -0.000173
      2          6           0        3.742432   -1.207747   -0.000140
      3          6           0        3.010501    0.000001    0.000009
      4          6           0        3.742440    1.207743    0.000130
      5          6           0        5.136285    1.156356    0.000108
      6          1           0        5.722450   -2.069178   -0.000224
      7          1           0        3.224238   -2.159639   -0.000216
      8          1           0        3.224250    2.159637    0.000261
      9          1           0        5.722462    2.069159    0.000204
     10          6           0        1.587298    0.000008    0.000043
     11          6           0        0.367833    0.000012    0.000059
     12          6           0       -1.056386    0.000021    0.000038
     13          6           0       -1.775311   -1.216316    0.000160
     14          6           0       -1.775327    1.216340   -0.000105
     15          6           0       -3.170739   -1.219239    0.000134
     16          1           0       -1.232996   -2.155030    0.000273
     17          6           0       -3.170755    1.219238   -0.000123
     18          1           0       -1.233032    2.155064   -0.000202
     19          6           0       -3.847117   -0.000005   -0.000005
     20          1           0       -3.723378   -2.150555    0.000223
     21          1           0       -3.723417    2.150540   -0.000231
     22          7           0        5.839582   -0.000008   -0.000033
     23         17           0       -5.671897   -0.000013   -0.000040
 ---------------------------------------------------------------------
 Rotational constants (GHZ):           2.8879158           0.1514273           0.1438828
 Standard basis: 6-31+G(d) (6D, 7F)
 There are   305 symmetry adapted cartesian basis functions of A   symmetry.
 There are   305 symmetry adapted basis functions of A   symmetry.
   305 basis functions,   536 primitive gaussians,   305 cartesian basis functions
    55 alpha electrons       55 beta electrons
       nuclear repulsion energy       851.3491954037 Hartrees.
 NAtoms=   23 NActive=   23 NUniq=   23 SFac= 1.00D+00 NAtFMM=   60 NAOKFM=F Big=F
 Integral buffers will be    131072 words long.
 Raffenetti 2 integral format.
 Two-electron integral symmetry is turned on.
 Nuclear repulsion after empirical dispersion term =      851.3333865672 Hartrees.
 One-electron integrals computed using PRISM.
 NBasis=   305 RedAO= T EigKep=  2.08D-06  NBF=   305
 NBsUse=   301 1.00D-06 EigRej=  5.85D-07 NBFU=   301
 ExpMin= 4.38D-02 ExpMax= 2.52D+04 ExpMxC= 3.78D+03 IAcc=3 IRadAn=         5 AccDes= 0.00D+00
 Harris functional with IExCor=  402 and IRadAn=       5 diagonalized for initial guess.
 HarFok:  IExCor=  402 AccDes= 0.00D+00 IRadAn=         5 IDoV= 1 UseB2=F ITyADJ=14
 ICtDFT=  3500011 ScaDFX=  1.000000  1.000000  1.000000  1.000000
 FoFCou: FMM=F IPFlag=           0 FMFlag=      100000 FMFlg1=           0
         NFxFlg=           0 DoJE=T BraDBF=F KetDBF=T FulRan=T
         wScrn=  0.000000 ICntrl=       500 IOpCl=  0 I1Cent=   200000004 NGrid=           0
         NMat0=    1 NMatS0=      1 NMatT0=    0 NMatD0=    1 NMtDS0=    0 NMtDT0=    0
 Petite list used in FoFCou.
 Requested convergence on RMS density matrix=1.00D-08 within 128 cycles.
 Requested convergence on MAX density matrix=1.00D-06.
 Requested convergence on             energy=1.00D-06.
 No special actions if energy rises.
 SCF Done:  E(RB3LYP) =  -1015.12827263     A.U. after   15 cycles
            NFock= 15  Conv=0.34D-08     -V/T= 2.0070

 **********************************************************************

            Population analysis using the SCF Density.

 **********************************************************************

 Orbital symmetries:
       Occupied  (A) (A) (A) (A) (A) (A) (A) (A) (A) (A) (A) (A)
                 (A) (A) (A) (A) (A) (A) (A) (A) (A) (A) (A) (A)
                 (A) (A) (A) (A) (A) (A) (A) (A) (A) (A) (A) (A)
                 (A) (A) (A) (A) (A) (A) (A) (A) (A) (A) (A) (A)
                 (A) (A) (A) (A) (A) (A) (A)
       Virtual   (A) (A) (A) (A) (A) (A) (A) (A) (A) (A) (A) (A)
                 (A) (A) (A) (A) (A) (A) (A) (A) (A) (A) (A) (A)
                 (A) (A) (A) (A) (A) (A) (A) (A) (A) (A) (A) (A)
                 (A) (A) (A) (A) (A) (A) (A) (A) (A) (A) (A) (A)
                 (A) (A) (A) (A) (A) (A) (A) (A) (A) (A) (A) (A)
                 (A) (A) (A) (A) (A) (A) (A) (A) (A) (A) (A) (A)
                 (A) (A) (A) (A) (A) (A) (A) (A) (A) (A) (A) (A)
                 (A) (A) (A) (A) (A) (A) (A) (A) (A) (A) (A) (A)
                 (A) (A) (A) (A) (A) (A) (A) (A) (A) (A) (A) (A)
                 (A) (A) (A) (A) (A) (A) (A) (A) (A) (A) (A) (A)
                 (A) (A) (A) (A) (A) (A) (A) (A) (A) (A) (A) (A)
                 (A) (A) (A) (A) (A) (A) (A) (A) (A) (A) (A) (A)
                 (A) (A) (A) (A) (A) (A) (A) (A) (A) (A) (A) (A)
                 (A) (A) (A) (A) (A) (A) (A) (A) (A) (A) (A) (A)
                 (A) (A) (A) (A) (A) (A) (A) (A) (A) (A) (A) (A)
                 (A) (A) (A) (A) (A) (A) (A) (A) (A) (A) (A) (A)
                 (A) (A) (A) (A) (A) (A) (A) (A) (A) (A) (A) (A)
                 (A) (A) (A) (A) (A) (A) (A) (A) (A) (A) (A) (A)
                 (A) (A) (A) (A) (A) (A) (A) (A) (A) (A) (A) (A)
                 (A) (A) (A) (A) (A) (A) (A) (A) (A) (A) (A) (A)
                 (A) (A) (A) (A) (A) (A)
 The electronic state is 1-A.
 Alpha  occ. eigenvalues -- -101.56412 -14.34931 -10.27970 -10.25002 -10.24617
 Alpha  occ. eigenvalues --  -10.23974 -10.23973 -10.22981 -10.22980 -10.22845
 Alpha  occ. eigenvalues --  -10.22845 -10.21998 -10.21964 -10.21963 -10.21691
 Alpha  occ. eigenvalues --   -9.47831  -7.24253  -7.23268  -7.23241  -0.94973
 Alpha  occ. eigenvalues --   -0.90579  -0.85719  -0.84186  -0.79168  -0.78331
 Alpha  occ. eigenvalues --   -0.77747  -0.74319  -0.66653  -0.64610  -0.64486
 Alpha  occ. eigenvalues --   -0.63086  -0.57387  -0.55200  -0.50086  -0.49602
 Alpha  occ. eigenvalues --   -0.49503  -0.49091  -0.46567  -0.45795  -0.44603
 Alpha  occ. eigenvalues --   -0.44539  -0.41951  -0.41247  -0.39475  -0.38947
 Alpha  occ. eigenvalues --   -0.38433  -0.36723  -0.33770  -0.32687  -0.29544
 Alpha  occ. eigenvalues --   -0.29495  -0.28707  -0.27961  -0.27134  -0.24132
 Alpha virt. eigenvalues --   -0.08366  -0.04171  -0.03187  -0.02987  -0.01883
 Alpha virt. eigenvalues --   -0.00180   0.00745   0.01134   0.02057   0.02603
 Alpha virt. eigenvalues --    0.02605   0.04297   0.04550   0.04568   0.04610
 Alpha virt. eigenvalues --    0.04781   0.05544   0.06753   0.06835   0.07313
 Alpha virt. eigenvalues --    0.07614   0.08046   0.08709   0.08855   0.09357
 Alpha virt. eigenvalues --    0.09696   0.09793   0.12007   0.12230   0.12256
 Alpha virt. eigenvalues --    0.12533   0.12947   0.13101   0.13613   0.13876
 Alpha virt. eigenvalues --    0.13927   0.15097   0.15176   0.15467   0.15984
 Alpha virt. eigenvalues --    0.16214   0.17069   0.17625   0.18051   0.18341
 Alpha virt. eigenvalues --    0.19443   0.19593   0.20244   0.20855   0.21698
 Alpha virt. eigenvalues --    0.21751   0.21777   0.22096   0.22118   0.22976
 Alpha virt. eigenvalues --    0.23667   0.23982   0.24261   0.24543   0.24642
 Alpha virt. eigenvalues --    0.25030   0.25264   0.26115   0.26457   0.27323
 Alpha virt. eigenvalues --    0.28380   0.28389   0.29662   0.30406   0.30895
 Alpha virt. eigenvalues --    0.31583   0.31896   0.32640   0.33435   0.33497
 Alpha virt. eigenvalues --    0.34158   0.35919   0.35921   0.37420   0.38983
 Alpha virt. eigenvalues --    0.39961   0.40584   0.45467   0.52009   0.52823
 Alpha virt. eigenvalues --    0.54938   0.56309   0.60029   0.61303   0.62089
 Alpha virt. eigenvalues --    0.62624   0.64296   0.65926   0.66004   0.66129
 Alpha virt. eigenvalues --    0.68807   0.68950   0.69029   0.69362   0.69722
 Alpha virt. eigenvalues --    0.69808   0.71196   0.71448   0.71968   0.72204
 Alpha virt. eigenvalues --    0.73745   0.73823   0.73891   0.75071   0.76742
 Alpha virt. eigenvalues --    0.78393   0.79740   0.79919   0.80159   0.80842
 Alpha virt. eigenvalues --    0.85506   0.85593   0.86270   0.86722   0.88295
 Alpha virt. eigenvalues --    0.89338   0.90783   0.92111   0.93011   0.93072
 Alpha virt. eigenvalues --    0.93630   0.94651   0.95628   0.96574   0.97474
 Alpha virt. eigenvalues --    0.98177   0.99698   1.01116   1.04272   1.05832
 Alpha virt. eigenvalues --    1.06160   1.07539   1.09295   1.11580   1.12749
 Alpha virt. eigenvalues --    1.14196   1.15016   1.15444   1.16748   1.17297
 Alpha virt. eigenvalues --    1.19585   1.21068   1.22412   1.22586   1.24214
 Alpha virt. eigenvalues --    1.24840   1.25109   1.27936   1.29621   1.33952
 Alpha virt. eigenvalues --    1.37667   1.37995   1.40720   1.40968   1.41985
 Alpha virt. eigenvalues --    1.42339   1.43742   1.44552   1.45022   1.47042
 Alpha virt. eigenvalues --    1.49533   1.49729   1.50006   1.51976   1.54272
 Alpha virt. eigenvalues --    1.56198   1.58266   1.66839   1.74547   1.77164
 Alpha virt. eigenvalues --    1.82842   1.82966   1.84198   1.85721   1.87161
 Alpha virt. eigenvalues --    1.88711   1.88773   1.88943   1.93468   1.96231
 Alpha virt. eigenvalues --    1.97911   1.98968   2.05415   2.06127   2.06276
 Alpha virt. eigenvalues --    2.09490   2.11828   2.12307   2.13587   2.14576
 Alpha virt. eigenvalues --    2.19381   2.19464   2.19705   2.21221   2.22206
 Alpha virt. eigenvalues --    2.26512   2.26701   2.27728   2.29622   2.31555
 Alpha virt. eigenvalues --    2.37486   2.45164   2.47108   2.50002   2.56779
 Alpha virt. eigenvalues --    2.60427   2.60697   2.61572   2.64209   2.64736
 Alpha virt. eigenvalues --    2.65645   2.70527   2.72952   2.73364   2.75571
 Alpha virt. eigenvalues --    2.76486   2.78669   2.82794   2.89924   2.93327
 Alpha virt. eigenvalues --    2.97032   3.04537   3.26122   3.28839   3.36647
 Alpha virt. eigenvalues --    3.57314   4.15917   4.20040   4.21905   4.22483
 Alpha virt. eigenvalues --    4.25665   4.26448   4.31518   4.35896   4.37741
 Alpha virt. eigenvalues --    4.38348   4.38894   4.49705   4.56978   4.73468
 Alpha virt. eigenvalues --    4.96497
          Condensed to atoms (all electrons):
               1          2          3          4          5          6
     1  C    7.305233  -3.178533   0.747443   1.145283  -0.319113   0.489181
     2  C   -3.178533  13.366435  -1.149964  -4.708584   1.145307  -0.226037
     3  C    0.747443  -1.149964   7.832434  -1.149973   0.747463   0.065419
     4  C    1.145283  -4.708584  -1.149973  13.366594  -3.178642   0.000917
     5  C   -0.319113   1.145307   0.747463  -3.178642   7.305294   0.020227
     6  H    0.489181  -0.226037   0.065419   0.000917   0.020227   0.548003
     7  H   -0.050347   0.373478  -0.067954  -0.020557   0.008517  -0.001820
     8  H    0.008517  -0.020556  -0.067954   0.373479  -0.050347   0.000020
     9  H    0.020227   0.000917   0.065419  -0.226039   0.489183  -0.000037
    10  C    0.025167   0.195904  -0.535513   0.195888   0.025166   0.004661
    11  C    0.019439  -0.038060  -0.531632  -0.038090   0.019443   0.000082
    12  C    0.053735  -0.124333   0.276907  -0.124333   0.053736   0.000220
    13  C   -0.024534   0.218887  -0.148925  -0.172538   0.019614   0.000079
    14  C    0.019616  -0.172542  -0.148921   0.218892  -0.024535  -0.000028
    15  C    0.009166  -0.071574   0.088938   0.054998  -0.011779   0.000008
    16  H    0.000119   0.001039   0.000395   0.000040  -0.000006   0.000000
    17  C   -0.011779   0.054995   0.088928  -0.071568   0.009166  -0.000003
    18  H   -0.000006   0.000040   0.000395   0.001039   0.000120   0.000000
    19  C    0.001638  -0.001227  -0.012334  -0.001226   0.001638   0.000000
    20  H    0.000000   0.000033  -0.000093  -0.000013   0.000000   0.000000
    21  H    0.000000  -0.000013  -0.000093   0.000033   0.000000   0.000000
    22  N    0.169629   0.087918  -0.020587   0.087920   0.169629  -0.087653
    23  Cl   0.000008   0.000002   0.000120   0.000002   0.000008   0.000000
               7          8          9         10         11         12
     1  C   -0.050347   0.008517   0.020227   0.025167   0.019439   0.053735
     2  C    0.373478  -0.020556   0.000917   0.195904  -0.038060  -0.124333
     3  C   -0.067954  -0.067954   0.065419  -0.535513  -0.531632   0.276907
     4  C   -0.020557   0.373479  -0.226039   0.195888  -0.038090  -0.124333
     5  C    0.008517  -0.050347   0.489183   0.025166   0.019443   0.053736
     6  H   -0.001820   0.000020  -0.000037   0.004661   0.000082   0.000220
     7  H    0.515480  -0.000111   0.000020   0.037014   0.001602  -0.000112
     8  H   -0.000111   0.515481  -0.001820   0.037013   0.001602  -0.000112
     9  H    0.000020  -0.001820   0.548003   0.004661   0.000082   0.000220
    10  C    0.037014   0.037013   0.004661   6.328856   0.430337  -0.530263
    11  C    0.001602   0.001602   0.000082   0.430337   6.240120   0.396805
    12  C   -0.000112  -0.000112   0.000220  -0.530263   0.396805   6.311718
    13  C    0.002207  -0.000170  -0.000028  -0.034814  -0.164760  -0.246754
    14  C   -0.000170   0.002207   0.000079  -0.034815  -0.164771  -0.246784
    15  C   -0.000374   0.000045  -0.000003   0.021070   0.071169   0.558365
    16  H    0.000002   0.000000   0.000000  -0.006404   0.025766  -0.017627
    17  C    0.000045  -0.000374   0.000008   0.021075   0.071175   0.558342
    18  H    0.000000   0.000002   0.000000  -0.006406   0.025769  -0.017621
    19  C    0.000045   0.000045   0.000000  -0.131774  -0.218924  -0.477340
    20  H    0.000000   0.000000   0.000000   0.000408  -0.005200   0.003162
    21  H    0.000000   0.000000   0.000000   0.000408  -0.005199   0.003164
    22  N    0.004938   0.004938  -0.087653  -0.019052  -0.002414  -0.001544
    23  Cl   0.000000   0.000000   0.000000  -0.007113  -0.005536  -0.085734
              13         14         15         16         17         18
     1  C   -0.024534   0.019616   0.009166   0.000119  -0.011779  -0.000006
     2  C    0.218887  -0.172542  -0.071574   0.001039   0.054995   0.000040
     3  C   -0.148925  -0.148921   0.088938   0.000395   0.088928   0.000395
     4  C   -0.172538   0.218892   0.054998   0.000040  -0.071568   0.001039
     5  C    0.019614  -0.024535  -0.011779  -0.000006   0.009166   0.000120
     6  H    0.000079  -0.000028   0.000008   0.000000  -0.000003   0.000000
     7  H    0.002207  -0.000170  -0.000374   0.000002   0.000045   0.000000
     8  H   -0.000170   0.002207   0.000045   0.000000  -0.000374   0.000002
     9  H   -0.000028   0.000079  -0.000003   0.000000   0.000008   0.000000
    10  C   -0.034814  -0.034815   0.021070  -0.006404   0.021075  -0.006406
    11  C   -0.164760  -0.164771   0.071169   0.025766   0.071175   0.025769
    12  C   -0.246754  -0.246784   0.558365  -0.017627   0.558342  -0.017621
    13  C    9.539047  -1.698643  -1.710383   0.356108  -0.146905   0.025812
    14  C   -1.698643   9.538910  -0.146844   0.025808  -1.710260   0.356108
    15  C   -1.710383  -0.146844   7.721188  -0.096967  -0.090190  -0.009775
    16  H    0.356108   0.025808  -0.096967   0.514514  -0.009775  -0.000148
    17  C   -0.146905  -1.710260  -0.090190  -0.009775   7.721131  -0.096975
    18  H    0.025812   0.356108  -0.009775  -0.000148  -0.096975   0.514514
    19  C    0.262255   0.262233  -0.131097   0.007681  -0.131092   0.007679
    20  H   -0.073358   0.002205   0.291184  -0.004563   0.033055   0.000014
    21  H    0.002204  -0.073357   0.033054   0.000014   0.291187  -0.004563
    22  N    0.000097   0.000097   0.000161   0.000000   0.000161   0.000000
    23  Cl   0.100322   0.100324  -0.157116   0.001177  -0.157112   0.001177
              19         20         21         22         23
     1  C    0.001638   0.000000   0.000000   0.169629   0.000008
     2  C   -0.001227   0.000033  -0.000013   0.087918   0.000002
     3  C   -0.012334  -0.000093  -0.000093  -0.020587   0.000120
     4  C   -0.001226  -0.000013   0.000033   0.087920   0.000002
     5  C    0.001638   0.000000   0.000000   0.169629   0.000008
     6  H    0.000000   0.000000   0.000000  -0.087653   0.000000
     7  H    0.000045   0.000000   0.000000   0.004938   0.000000
     8  H    0.000045   0.000000   0.000000   0.004938   0.000000
     9  H    0.000000   0.000000   0.000000  -0.087653   0.000000
    10  C   -0.131774   0.000408   0.000408  -0.019052  -0.007113
    11  C   -0.218924  -0.005200  -0.005199  -0.002414  -0.005536
    12  C   -0.477340   0.003162   0.003164  -0.001544  -0.085734
    13  C    0.262255  -0.073358   0.002204   0.000097   0.100322
    14  C    0.262233   0.002205  -0.073357   0.000097   0.100324
    15  C   -0.131097   0.291184   0.033054   0.000161  -0.157116
    16  H    0.007681  -0.004563   0.000014   0.000000   0.001177
    17  C   -0.131092   0.033055   0.291187   0.000161  -0.157112
    18  H    0.007679   0.000014  -0.004563   0.000000   0.001177
    19  C    6.139944   0.044323   0.044319  -0.000020  -0.007058
    20  H    0.044323   0.497324  -0.000156   0.000000   0.002511
    21  H    0.044319  -0.000156   0.497323   0.000000   0.002512
    22  N   -0.000020   0.000000   0.000000   6.858271   0.000000
    23  Cl  -0.007058   0.002511   0.002512   0.000000  16.983325
 Mulliken charges:
               1
     1  C   -0.430089
     2  C    0.246468
     3  C   -0.079917
     4  C    0.246479
     5  C   -0.430087
     6  H    0.186761
     7  H    0.198097
     8  H    0.198098
     9  H    0.186761
    10  C   -0.021473
    11  C   -0.128803
    12  C   -0.343818
    13  C   -0.104819
    14  C   -0.104806
    15  C   -0.423243
    16  H    0.202829
    17  C   -0.423234
    18  H    0.202828
    19  C    0.340293
    20  H    0.209164
    21  H    0.209164
    22  N   -0.164837
    23  Cl   0.228182
 Sum of Mulliken charges =   0.00000
 Mulliken charges with hydrogens summed into heavy atoms:
               1
     1  C   -0.243327
     2  C    0.444565
     3  C   -0.079917
     4  C    0.444576
     5  C   -0.243326
    10  C   -0.021473
    11  C   -0.128803
    12  C   -0.343818
    13  C    0.098009
    14  C    0.098022
    15  C   -0.214079
    17  C   -0.214069
    19  C    0.340293
    22  N   -0.164837
    23  Cl   0.228182
 Electronic spatial extent (au):  <R**2>=           6711.1561
 Charge=              0.0000 electrons
 Dipole moment (field-independent basis, Debye):
    X=             -1.0096    Y=              0.0000    Z=              0.0001  Tot=              1.0096
 Quadrupole moment (field-independent basis, Debye-Ang):
   XX=           -119.8941   YY=            -79.8106   ZZ=            -98.9250
   XY=              0.0000   XZ=              0.0003   YZ=             -0.0001
 Traceless Quadrupole moment (field-independent basis, Debye-Ang):
   XX=            -20.3509   YY=             19.7326   ZZ=              0.6183
   XY=              0.0000   XZ=              0.0003   YZ=             -0.0001
 Octapole moment (field-independent basis, Debye-Ang**2):
  XXX=           -115.7554  YYY=             -0.0001  ZZZ=             -0.0004  XYY=              6.9985
  XXY=              0.0009  XXZ=              0.0021  XZZ=             -9.6465  YZZ=              0.0000
  YYZ=              0.0002  XYZ=              0.0069
 Hexadecapole moment (field-independent basis, Debye-Ang**3):
 XXXX=         -10045.0724 YYYY=           -545.6211 ZZZZ=           -118.2153 XXXY=              0.0017
 XXXZ=              0.0138 YYYX=             -0.0004 YYYZ=             -0.0015 ZZZX=              0.0016
 ZZZY=             -0.0002 XXYY=          -1312.6402 XXZZ=          -1514.6399 YYZZ=           -133.6105
 XXYZ=              0.0121 YYXZ=              0.0013 ZZXY=              0.0002
 N-N= 8.513333865672D+02 E-N=-4.080117574230D+03  KE= 1.008061132382D+03
 Evaluate density.
 Using the total density.
 Monte-Carlo method of calculating molar volume:
 based on  0.001 e/bohr**3 density envelope.
 Number of points per bohr**3 =   20 CutOff= 1.00D-04
 Using the SCF density.
 There are       433 points.  Will hold       433 in memory.
 LenV=  4026304713 MDV=  4026531840.
 Box volume =10157.206 fraction occupied=0.187
 Integrated density= 4.5609807506053109D+01 error=-6.4390192493946898D+01
 Molar volume = 1900.078 bohr**3/mol (169.561 cm**3/mol)
 Recommended a0 for SCRF calculation =  4.98 angstrom (  9.40 bohr)
 Calling FoFJK, ICntrl=      2127 FMM=F ISym2X=0 I1Cent= 0 IOpClX= 0 NMat=1 NMatS=1 NMatT=0.
 ***** Axes restored to original set *****
 -------------------------------------------------------------------
 Center     Atomic                   Forces (Hartrees/Bohr)
 Number     Number              X              Y              Z
 -------------------------------------------------------------------
      1        6          -0.001021651    0.015371257   -0.000010090
      2        6           0.000115632    0.002796161    0.000000821
      3        6          -0.003837405   -0.000000760   -0.000000268
      4        6           0.000116526   -0.002795504   -0.000000579
      5        6          -0.001022211   -0.015372698    0.000003218
      6        1          -0.001144169   -0.001479048    0.000003482
      7        1           0.000675892   -0.001194367    0.000000824
      8        1           0.000675727    0.001194613    0.000000389
      9        1          -0.001144935    0.001480718   -0.000000635
     10        6           0.004708390   -0.000000294    0.000000054
     11        6          -0.004605353    0.000001964    0.000001621
     12        6           0.002245932   -0.000006016   -0.000001000
     13        6           0.001110617    0.003162010    0.000000712
     14        6           0.001111463   -0.003158665   -0.000000812
     15        6          -0.001180672    0.001203297   -0.000000281
     16        1          -0.000416047   -0.000993671   -0.000000029
     17        6          -0.001178615   -0.001204116    0.000000322
     18        1          -0.000416742    0.000994471   -0.000000058
     19        6           0.021081501    0.000000258    0.000000628
     20        1           0.000584844   -0.001101800   -0.000000144
     21        1           0.000584036    0.001102545    0.000000162
     22        7           0.006879900   -0.000000222    0.000002237
     23       17          -0.023922660   -0.000000133   -0.000000574
 -------------------------------------------------------------------
 Cartesian Forces:  Max     0.023922660 RMS     0.004907665

 GradGradGradGradGradGradGradGradGradGradGradGradGradGradGradGradGradGrad
 Berny optimization.
 FormGI is forming the generalized inverse of G from B-inverse, IUseBI=4.
 Internal  Forces:  Max     0.023922660 RMS     0.003009454
 Search for a local minimum.
 Step number   1 out of a maximum of  120
 All quantities printed in internal units (Hartrees-Bohrs-Radians)
 Mixed Optimization -- RFO/linear search
 Second derivative matrix not updated -- first step.
 ITU=  0
     Eigenvalues ---    0.00230   0.01018   0.01378   0.01768   0.01858
     Eigenvalues ---    0.01949   0.01960   0.02024   0.02032   0.02044
     Eigenvalues ---    0.02054   0.02104   0.02130   0.02156   0.02157
     Eigenvalues ---    0.02161   0.02164   0.02197   0.02207   0.02267
     Eigenvalues ---    0.03758   0.04477   0.16000   0.16000   0.16000
     Eigenvalues ---    0.16000   0.16000   0.16000   0.16000   0.16000
     Eigenvalues ---    0.22000   0.22000   0.22822   0.22980   0.23880
     Eigenvalues ---    0.24000   0.24258   0.25000   0.25000   0.25000
     Eigenvalues ---    0.35419   0.35419   0.35503   0.35503   0.35539
     Eigenvalues ---    0.35539   0.35641   0.35641   0.40897   0.41379
     Eigenvalues ---    0.41461   0.41831   0.41844   0.41982   0.44411
     Eigenvalues ---    0.44640   0.45497   0.46386   0.46492   0.46546
     Eigenvalues ---    0.52345   0.53583   0.95621
 RFO step:  Lambda=-3.24788270D-03 EMin= 2.30000000D-03
 Linear search not attempted -- first point.
 Iteration  1 RMS(Cart)=  0.01207930 RMS(Int)=  0.00002027
 Iteration  2 RMS(Cart)=  0.00002464 RMS(Int)=  0.00000016
 Iteration  3 RMS(Cart)=  0.00000000 RMS(Int)=  0.00000016
 Variable       Old X    -DE/DX   Delta X   Delta X   Delta X     New X
                                 (Linear)    (Quad)   (Total)
    R1        2.63578  -0.00118   0.00000  -0.00255  -0.00255   2.63322
    R2        2.05000   0.00186   0.00000   0.00521   0.00521   2.05521
    R3        2.55763  -0.01146   0.00000  -0.02172  -0.02172   2.53591
    R4        2.66872  -0.00464   0.00000  -0.00963  -0.00963   2.65909
    R5        2.04809   0.00137   0.00000   0.00383   0.00383   2.05191
    R6        2.66872  -0.00464   0.00000  -0.00963  -0.00963   2.65909
    R7        2.68946  -0.00029   0.00000  -0.00069  -0.00069   2.68877
    R8        2.63577  -0.00118   0.00000  -0.00255  -0.00255   2.63322
    R9        2.04809   0.00137   0.00000   0.00383   0.00383   2.05191
   R10        2.04999   0.00186   0.00000   0.00522   0.00522   2.05521
   R11        2.55763  -0.01146   0.00000  -0.02172  -0.02172   2.53591
   R12        2.30445  -0.00500   0.00000  -0.00521  -0.00521   2.29924
   R13        2.69138  -0.00040   0.00000  -0.00094  -0.00094   2.69044
   R14        2.67002  -0.00210   0.00000  -0.00488  -0.00488   2.66514
   R15        2.67001  -0.00209   0.00000  -0.00487  -0.00487   2.66514
   R16        2.63698  -0.00201   0.00000  -0.00431  -0.00431   2.63267
   R17        2.04867   0.00107   0.00000   0.00298   0.00298   2.05165
   R18        2.63698  -0.00201   0.00000  -0.00431  -0.00431   2.63267
   R19        2.04866   0.00107   0.00000   0.00299   0.00299   2.05165
   R20        2.63481  -0.00123   0.00000  -0.00252  -0.00252   2.63229
   R21        2.04646   0.00125   0.00000   0.00346   0.00346   2.04992
   R22        2.63481  -0.00123   0.00000  -0.00252  -0.00252   2.63229
   R23        2.04646   0.00125   0.00000   0.00346   0.00346   2.04992
   R24        3.44833  -0.02392   0.00000  -0.09731  -0.09731   3.35102
    A1        2.10480  -0.00153   0.00000  -0.00562  -0.00562   2.09918
    A2        2.15407   0.00340   0.00000   0.01328   0.01328   2.16736
    A3        2.02432  -0.00187   0.00000  -0.00767  -0.00767   2.01665
    A4        2.07879  -0.00129   0.00000  -0.00402  -0.00402   2.07477
    A5        2.10616   0.00067   0.00000   0.00215   0.00215   2.10831
    A6        2.09823   0.00062   0.00000   0.00187   0.00187   2.10010
    A7        2.05190  -0.00198   0.00000  -0.00454  -0.00454   2.04736
    A8        2.11564   0.00099   0.00000   0.00227   0.00227   2.11791
    A9        2.11564   0.00099   0.00000   0.00227   0.00227   2.11791
   A10        2.07879  -0.00129   0.00000  -0.00402  -0.00402   2.07477
   A11        2.09823   0.00062   0.00000   0.00187   0.00187   2.10010
   A12        2.10616   0.00067   0.00000   0.00215   0.00215   2.10831
   A13        2.10480  -0.00153   0.00000  -0.00562  -0.00562   2.09918
   A14        2.15407   0.00340   0.00000   0.01328   0.01328   2.16735
   A15        2.02431  -0.00187   0.00000  -0.00767  -0.00767   2.01665
   A16        2.10461  -0.00026   0.00000  -0.00089  -0.00089   2.10371
   A17        2.10464  -0.00026   0.00000  -0.00091  -0.00091   2.10372
   A18        2.07394   0.00052   0.00000   0.00181   0.00181   2.07575
   A19        2.10671   0.00009   0.00000   0.00031   0.00031   2.10702
   A20        2.08390   0.00010   0.00000   0.00070   0.00070   2.08460
   A21        2.09258  -0.00018   0.00000  -0.00102  -0.00102   2.09156
   A22        2.10671   0.00009   0.00000   0.00031   0.00031   2.10702
   A23        2.08390   0.00010   0.00000   0.00070   0.00070   2.08460
   A24        2.09258  -0.00018   0.00000  -0.00101  -0.00101   2.09156
   A25        2.07519  -0.00077   0.00000  -0.00312  -0.00312   2.07207
   A26        2.10844   0.00032   0.00000   0.00119   0.00119   2.10963
   A27        2.09956   0.00045   0.00000   0.00193   0.00193   2.10149
   A28        2.07519  -0.00077   0.00000  -0.00312  -0.00312   2.07207
   A29        2.10845   0.00032   0.00000   0.00118   0.00118   2.10963
   A30        2.09954   0.00045   0.00000   0.00194   0.00194   2.10148
   A31        2.12863   0.00085   0.00000   0.00381   0.00381   2.13244
   A32        2.07728  -0.00042   0.00000  -0.00191  -0.00191   2.07537
   A33        2.07728  -0.00042   0.00000  -0.00190  -0.00190   2.07537
   A34        2.04874  -0.00225   0.00000  -0.01399  -0.01399   2.03475
   A35        3.14159   0.00000   0.00000   0.00000   0.00000   3.14159
   A36        3.14160   0.00000   0.00000  -0.00002  -0.00002   3.14157
   A37        3.14161   0.00000   0.00000  -0.00002  -0.00002   3.14158
   A38        3.14163   0.00000   0.00000  -0.00009  -0.00009   3.14154
    D1        3.14153   0.00000   0.00000   0.00009   0.00009  -3.14157
    D2       -0.00005   0.00000   0.00000   0.00007   0.00007   0.00002
    D3        0.00003   0.00000   0.00000  -0.00006  -0.00006  -0.00002
    D4       -3.14155   0.00000   0.00000  -0.00007  -0.00007   3.14156
    D5       -0.00003   0.00000   0.00000   0.00005   0.00005   0.00002
    D6       -3.14153   0.00000   0.00000  -0.00009  -0.00009   3.14157
    D7       -0.00001   0.00000   0.00000   0.00002   0.00002   0.00001
    D8        3.14159   0.00000   0.00000   0.00000   0.00000   3.14159
    D9        3.14157   0.00000   0.00000   0.00004   0.00004  -3.14158
   D10       -0.00002   0.00000   0.00000   0.00002   0.00002   0.00000
   D11       -0.00001   0.00000   0.00000   0.00001   0.00001   0.00000
   D12       -3.14158   0.00000   0.00000  -0.00001  -0.00001  -3.14159
   D13        3.14158   0.00000   0.00000   0.00003   0.00003  -3.14158
   D14        0.00001   0.00000   0.00000   0.00000   0.00000   0.00001
   D15        0.00022   0.00000   0.00000  -0.00002  -0.00002   0.00020
   D16       -3.14135   0.00000   0.00000  -0.00007  -0.00007  -3.14142
   D17       -3.14139   0.00000   0.00000   0.00001   0.00001  -3.14138
   D18        0.00023   0.00000   0.00000  -0.00005  -0.00005   0.00018
   D19       -3.14159   0.00000   0.00000  -0.00001  -0.00001   3.14159
   D20        0.00001   0.00000   0.00000  -0.00002  -0.00002  -0.00001
   D21       -0.00002   0.00000   0.00000   0.00002   0.00002   0.00000
   D22        3.14158   0.00000   0.00000   0.00001   0.00001   3.14159
   D23        0.00001   0.00000   0.00000  -0.00001  -0.00001   0.00000
   D24       -3.14158   0.00000   0.00000  -0.00002  -0.00002   3.14158
   D25       -3.14159   0.00000   0.00000   0.00000   0.00000  -3.14159
   D26        0.00000   0.00000   0.00000   0.00000   0.00000   0.00001
   D27        0.00000   0.00000   0.00000  -0.00001  -0.00001   0.00000
   D28       -3.14159   0.00000   0.00000   0.00000   0.00000  -3.14159
   D29       -3.14159   0.00000   0.00000  -0.00001  -0.00001   3.14159
   D30        0.00000   0.00000   0.00000  -0.00001  -0.00001   0.00000
   D31        0.00000   0.00000   0.00000   0.00000   0.00000   0.00000
   D32       -3.14159   0.00000   0.00000   0.00000   0.00000  -3.14159
   D33       -0.00001   0.00000   0.00000   0.00001   0.00001   0.00000
   D34        3.14159   0.00000   0.00000   0.00001   0.00001  -3.14159
   D35        3.14159   0.00000   0.00000   0.00001   0.00001  -3.14159
   D36        0.00000   0.00000   0.00000   0.00000   0.00000   0.00000
   D37       -0.00001   0.00000   0.00000   0.00001   0.00001   0.00000
   D38        3.14159   0.00000   0.00000   0.00000   0.00000  -3.14159
   D39        3.14159   0.00000   0.00000   0.00001   0.00001   3.14159
   D40        0.00000   0.00000   0.00000   0.00000   0.00000   0.00000
   D41        0.00000   0.00000   0.00000   0.00000   0.00000   0.00000
   D42        3.14159   0.00000   0.00000   0.00000   0.00000   3.14159
   D43       -3.14159   0.00000   0.00000   0.00000   0.00000  -3.14159
   D44        0.00000   0.00000   0.00000   0.00000   0.00000   0.00000
   D45        0.00000   0.00000   0.00000   0.00000   0.00000   0.00000
   D46       -3.14159   0.00000   0.00000  -0.00001  -0.00001   3.14159
   D47        3.14159   0.00000   0.00000   0.00000   0.00000  -3.14159
   D48        0.00000   0.00000   0.00000   0.00000   0.00000   0.00000
         Item               Value     Threshold  Converged?
 Maximum Force            0.023923     0.000450     NO 
 RMS     Force            0.003009     0.000300     NO 
 Maximum Displacement     0.106872     0.001800     NO 
 RMS     Displacement     0.012084     0.001200     NO 
 Predicted change in Energy=-1.642989D-03
 GradGradGradGradGradGradGradGradGradGradGradGradGradGradGradGradGradGrad

                          Input orientation:                          
 ---------------------------------------------------------------------
 Center     Atomic      Atomic             Coordinates (Angstroms)
 Number     Number       Type             X           Y           Z
 ---------------------------------------------------------------------
      1          6           0       -5.128429   -1.141651    0.000075
      2          6           0       -3.736283   -1.201726    0.000114
      3          6           0       -3.004271    0.000011    0.000008
      4          6           0       -3.736312    1.201730   -0.000116
      5          6           0       -5.128457    1.141622   -0.000125
      6          1           0       -5.716700   -2.056390    0.000173
      7          1           0       -3.221064   -2.157533    0.000226
      8          1           0       -3.221116    2.157549   -0.000202
      9          1           0       -5.716750    2.056346   -0.000218
     10          6           0       -1.581435    0.000029    0.000042
     11          6           0       -0.364729    0.000040    0.000062
     12          6           0        1.058993    0.000027    0.000023
     13          6           0        1.775498   -1.214738   -0.000107
     14          6           0        1.775532    1.214770    0.000122
     15          6           0        3.168639   -1.219362   -0.000140
     16          1           0        1.232198   -2.154706   -0.000185
     17          6           0        3.168674    1.219352    0.000093
     18          1           0        1.232262    2.154755    0.000225
     19          6           0        3.842059   -0.000014   -0.000039
     20          1           0        3.722180   -2.152274   -0.000241
     21          1           0        3.722245    2.152246    0.000169
     22          7           0       -5.833771   -0.000023   -0.000031
     23         17           0        5.615343   -0.000039   -0.000078
 ---------------------------------------------------------------------
                    Distance matrix (angstroms):
                    1          2          3          4          5
     1  C    0.000000
     2  C    1.393442   0.000000
     3  C    2.411522   1.407129   0.000000
     4  C    2.725697   2.403456   1.407129   0.000000
     5  C    2.283273   2.725698   2.411522   1.393442   0.000000
     6  H    1.087570   2.156966   3.403829   3.812779   3.251663
     7  H    2.161031   1.085825   2.168408   3.398548   3.810849
     8  H    3.810848   3.398548   2.168408   1.085825   2.161031
     9  H    3.251663   3.812780   3.403830   2.156966   1.087570
    10  C    3.726204   2.467303   1.422836   2.467302   3.726204
    11  C    4.898602   3.579332   2.639542   3.579334   4.898603
    12  C    6.291869   4.943569   4.063264   4.943585   6.291881
    13  C    6.904314   5.511796   4.931715   6.018253   7.295000
    14  C    7.295026   6.018269   4.931751   5.511860   6.904377
    15  C    8.297432   6.904944   6.292193   7.317105   8.626473
    16  H    6.440796   5.059048   4.752944   5.995978   7.164056
    17  C    8.626485   7.317106   6.292221   6.905008   8.297495
    18  H    7.164125   5.996032   4.753013   5.059148   6.440899
    19  C    9.042842   7.673029   6.846331   7.673064   9.042870
    20  H    8.908122   7.518790   7.062399   8.177924   9.443703
    21  H    9.443738   8.177944   7.062445   7.518879   8.908214
    22  N    1.341947   2.417343   2.829500   2.417343   1.341947
    23  Cl  10.804254   9.428518   8.619614   9.428557  10.804287
                    6          7          8          9         10
     6  H    0.000000
     7  H    2.497684   0.000000
     8  H    4.897471   4.315082   0.000000
     9  H    4.112736   4.897471   2.497685   0.000000
    10  C    4.618362   2.709881   2.709879   4.618363   0.000000
    11  C    5.733454   3.579633   3.579636   5.733457   1.216706
    12  C    7.080880   4.793115   4.793144   7.080900   2.640428
    13  C    7.539324   5.084732   6.028140   8.175193   3.569967
    14  C    8.175208   6.028135   5.084813   7.539400   3.569990
    15  C    8.924677   6.458210   7.227205   9.469974   4.904092
    16  H    6.949593   4.453263   6.198995   8.125321   3.543926
    17  C    9.469971   7.227178   6.458299   8.924759   4.904109
    18  H    8.125381   6.199027   4.453379   6.949709   3.543972
    19  C    9.777451   7.385296   7.385359   9.777498   5.423495
    20  H    9.439367   6.943246   8.172144  10.334693   5.723700
    21  H   10.334713   8.172132   6.943363   9.439482   5.723728
    22  N    2.059696   3.388375   3.388375   2.059696   4.252336
    23  Cl  11.517107   9.095981   9.096053  11.517163   7.196778
                   11         12         13         14         15
    11  C    0.000000
    12  C    1.423721   0.000000
    13  C    2.460947   1.410332   0.000000
    14  C    2.460953   1.410330   2.429509   0.000000
    15  C    3.737864   2.436702   1.393148   2.804593   0.000000
    16  H    2.681997   2.161684   1.085686   3.413002   2.150505
    17  C    3.737868   2.436700   2.804591   1.393149   2.438713
    18  H    2.682010   2.161683   3.413003   1.085686   3.890272
    19  C    4.206788   2.783067   2.397129   2.397131   1.392948
    20  H    4.619013   3.424174   2.160681   3.889270   1.084773
    21  H    4.619020   3.424173   3.889268   2.160683   3.416756
    22  N    5.469042   6.892764   7.705615   7.705662   9.084611
    23  Cl   5.980071   4.556350   4.027394   4.027394   2.733699
                   16         17         18         19         20
    16  H    0.000000
    17  C    3.890270   0.000000
    18  H    4.309461   2.150505   0.000000
    19  C    3.384387   1.392947   3.384387   0.000000
    20  H    2.489983   3.416757   4.974956   2.155595   0.000000
    21  H    4.974954   1.084773   2.489984   2.155593   4.304520
    22  N    7.387190   9.084651   7.387279   9.675830   9.795324
    23  Cl   4.884112   2.733697   4.884110   1.773283   2.866388
                   21         22         23
    21  H    0.000000
    22  N    9.795392   0.000000
    23  Cl   2.866383  11.449113   0.000000
 Stoichiometry    C13H8ClN
 Framework group  C1[X(C13H8ClN)]
 Deg. of freedom    63
 Full point group                 C1      NOp   1
 Largest Abelian subgroup         C1      NOp   1
 Largest concise Abelian subgroup C1      NOp   1
                         Standard orientation:                         
 ---------------------------------------------------------------------
 Center     Atomic      Atomic             Coordinates (Angstroms)
 Number     Number       Type             X           Y           Z
 ---------------------------------------------------------------------
      1          6           0        5.122196   -1.141656   -0.000089
      2          6           0        3.730050   -1.201729   -0.000128
      3          6           0        2.998040    0.000009   -0.000022
      4          6           0        3.730082    1.201728    0.000103
      5          6           0        5.122227    1.141618    0.000111
      6          1           0        5.710466   -2.056395   -0.000187
      7          1           0        3.214830   -2.157535   -0.000240
      8          1           0        3.214888    2.157547    0.000188
      9          1           0        5.710522    2.056341    0.000204
     10          6           0        1.575204    0.000029   -0.000056
     11          6           0        0.358498    0.000042   -0.000076
     12          6           0       -1.065224    0.000032   -0.000037
     13          6           0       -1.781731   -1.214733    0.000094
     14          6           0       -1.781762    1.214775   -0.000136
     15          6           0       -3.174872   -1.219355    0.000126
     16          1           0       -1.238432   -2.154702    0.000171
     17          6           0       -3.174903    1.219359   -0.000106
     18          1           0       -1.238490    2.154759   -0.000239
     19          6           0       -3.848291   -0.000007    0.000025
     20          1           0       -3.728414   -2.152266    0.000227
     21          1           0       -3.728473    2.152254   -0.000183
     22          7           0        5.827540   -0.000029    0.000017
     23         17           0       -5.621574   -0.000028    0.000064
 ---------------------------------------------------------------------
 Rotational constants (GHZ):           2.9104942           0.1526960           0.1450843
 Standard basis: 6-31+G(d) (6D, 7F)
 There are   305 symmetry adapted cartesian basis functions of A   symmetry.
 There are   305 symmetry adapted basis functions of A   symmetry.
   305 basis functions,   536 primitive gaussians,   305 cartesian basis functions
    55 alpha electrons       55 beta electrons
       nuclear repulsion energy       855.2486271235 Hartrees.
 NAtoms=   23 NActive=   23 NUniq=   23 SFac= 1.00D+00 NAtFMM=   60 NAOKFM=F Big=F
 Integral buffers will be    131072 words long.
 Raffenetti 2 integral format.
 Two-electron integral symmetry is turned on.
 Nuclear repulsion after empirical dispersion term =      855.2328348351 Hartrees.
 One-electron integrals computed using PRISM.
 NBasis=   305 RedAO= T EigKep=  2.00D-06  NBF=   305
 NBsUse=   301 1.00D-06 EigRej=  5.63D-07 NBFU=   301
 Initial guess from the checkpoint file:  "molecule_33.chk"
 B after Tr=     0.000000    0.000000    0.000000
         Rot=    1.000000    0.000002   -0.000002    0.000000 Ang=   0.00 deg.
 ExpMin= 4.38D-02 ExpMax= 2.52D+04 ExpMxC= 3.78D+03 IAcc=3 IRadAn=         5 AccDes= 0.00D+00
 Harris functional with IExCor=  402 and IRadAn=       5 diagonalized for initial guess.
 HarFok:  IExCor=  402 AccDes= 0.00D+00 IRadAn=         5 IDoV= 1 UseB2=F ITyADJ=14
 ICtDFT=  3500011 ScaDFX=  1.000000  1.000000  1.000000  1.000000
 FoFCou: FMM=F IPFlag=           0 FMFlag=      100000 FMFlg1=           0
         NFxFlg=           0 DoJE=T BraDBF=F KetDBF=T FulRan=T
         wScrn=  0.000000 ICntrl=       500 IOpCl=  0 I1Cent=   200000004 NGrid=           0
         NMat0=    1 NMatS0=      1 NMatT0=    0 NMatD0=    1 NMtDS0=    0 NMtDT0=    0
 Petite list used in FoFCou.
 Requested convergence on RMS density matrix=1.00D-08 within 128 cycles.
 Requested convergence on MAX density matrix=1.00D-06.
 Requested convergence on             energy=1.00D-06.
 No special actions if energy rises.
 SCF Done:  E(RB3LYP) =  -1015.13015434     A.U. after   12 cycles
            NFock= 12  Conv=0.80D-08     -V/T= 2.0068
 Calling FoFJK, ICntrl=      2127 FMM=F ISym2X=0 I1Cent= 0 IOpClX= 0 NMat=1 NMatS=1 NMatT=0.
 ***** Axes restored to original set *****
 -------------------------------------------------------------------
 Center     Atomic                   Forces (Hartrees/Bohr)
 Number     Number              X              Y              Z
 -------------------------------------------------------------------
      1        6          -0.001706844    0.000072576    0.000003808
      2        6           0.000377097   -0.000891713   -0.000001009
      3        6          -0.000065685    0.000000494    0.000001705
      4        6           0.000377192    0.000891757   -0.000000040
      5        6          -0.001707082   -0.000072910   -0.000001202
      6        1           0.000392986   -0.000926124   -0.000001235
      7        1          -0.000357942   -0.000021748   -0.000000421
      8        1          -0.000358003    0.000021737    0.000000184
      9        1           0.000393054    0.000926144    0.000000220
     10        6           0.000215887   -0.000000161   -0.000000013
     11        6          -0.000117406   -0.000000206   -0.000002993
     12        6           0.000134682   -0.000001241    0.000001887
     13        6           0.000072840   -0.000354790    0.000000112
     14        6           0.000073414    0.000356108    0.000000240
     15        6          -0.003201596   -0.000307093   -0.000000064
     16        1          -0.000163258    0.000012697    0.000000104
     17        6          -0.003201358    0.000307197   -0.000000261
     18        1          -0.000163348   -0.000012850    0.000000002
     19        6           0.012290523   -0.000000180   -0.000000195
     20        1           0.000086115    0.000102705   -0.000000049
     21        1           0.000085843   -0.000102574    0.000000009
     22        7           0.002111799    0.000000185   -0.000000924
     23       17          -0.005568912   -0.000000008    0.000000136
 -------------------------------------------------------------------
 Cartesian Forces:  Max     0.012290523 RMS     0.001776037

 GradGradGradGradGradGradGradGradGradGradGradGradGradGradGradGradGradGrad
 Berny optimization.
 Using GEDIIS/GDIIS optimizer.
 FormGI is forming the generalized inverse of G from B-inverse, IUseBI=4.
 Internal  Forces:  Max     0.005568912 RMS     0.000809393
 Search for a local minimum.
 Step number   2 out of a maximum of  120
 All quantities printed in internal units (Hartrees-Bohrs-Radians)
 Mixed Optimization -- En-DIIS/RFO-DIIS
 Update second derivatives using D2CorX and points    1    2
 DE= -1.88D-03 DEPred=-1.64D-03 R= 1.15D+00
 TightC=F SS=  1.41D+00  RLast= 1.08D-01 DXNew= 5.0454D-01 3.2495D-01
 Trust test= 1.15D+00 RLast= 1.08D-01 DXMaxT set to 3.25D-01
 ITU=  1  0
 Use linear search instead of GDIIS.
     Eigenvalues ---    0.00230   0.01017   0.01376   0.01768   0.01858
     Eigenvalues ---    0.01949   0.01960   0.02024   0.02032   0.02044
     Eigenvalues ---    0.02054   0.02104   0.02131   0.02156   0.02157
     Eigenvalues ---    0.02161   0.02164   0.02197   0.02207   0.02266
     Eigenvalues ---    0.03757   0.04477   0.15543   0.16000   0.16000
     Eigenvalues ---    0.16000   0.16000   0.16000   0.16000   0.16001
     Eigenvalues ---    0.18034   0.22000   0.22000   0.22907   0.23267
     Eigenvalues ---    0.23916   0.25000   0.25000   0.25000   0.26360
     Eigenvalues ---    0.35351   0.35419   0.35503   0.35504   0.35539
     Eigenvalues ---    0.35575   0.35641   0.35676   0.40777   0.41381
     Eigenvalues ---    0.41397   0.41831   0.41969   0.42204   0.44410
     Eigenvalues ---    0.44634   0.45900   0.46448   0.46546   0.46808
     Eigenvalues ---    0.53561   0.55555   0.95901
 RFO step:  Lambda=-2.80908912D-04 EMin= 2.29999999D-03
 Quartic linear search produced a step of  0.13642.
 Iteration  1 RMS(Cart)=  0.00301724 RMS(Int)=  0.00000921
 Iteration  2 RMS(Cart)=  0.00001293 RMS(Int)=  0.00000306
 Iteration  3 RMS(Cart)=  0.00000000 RMS(Int)=  0.00000306
 Variable       Old X    -DE/DX   Delta X   Delta X   Delta X     New X
                                 (Linear)    (Quad)   (Total)
    R1        2.63322   0.00025  -0.00035   0.00076   0.00041   2.63364
    R2        2.05521   0.00057   0.00071   0.00150   0.00221   2.05742
    R3        2.53591   0.00008  -0.00296   0.00134  -0.00162   2.53429
    R4        2.65909   0.00100  -0.00131   0.00321   0.00189   2.66098
    R5        2.05191  -0.00015   0.00052  -0.00071  -0.00019   2.05172
    R6        2.65909   0.00100  -0.00131   0.00321   0.00189   2.66098
    R7        2.68877   0.00054  -0.00009   0.00151   0.00142   2.69019
    R8        2.63322   0.00025  -0.00035   0.00076   0.00041   2.63364
    R9        2.05191  -0.00015   0.00052  -0.00071  -0.00019   2.05172
   R10        2.05521   0.00057   0.00071   0.00150   0.00221   2.05742
   R11        2.53591   0.00008  -0.00296   0.00134  -0.00162   2.53429
   R12        2.29924   0.00033  -0.00071   0.00067  -0.00005   2.29920
   R13        2.69044   0.00044  -0.00013   0.00126   0.00113   2.69158
   R14        2.66514  -0.00018  -0.00067  -0.00041  -0.00108   2.66406
   R15        2.66514  -0.00018  -0.00066  -0.00040  -0.00107   2.66406
   R16        2.63267   0.00024  -0.00059   0.00084   0.00025   2.63292
   R17        2.05165   0.00007   0.00041   0.00005   0.00045   2.05210
   R18        2.63267   0.00024  -0.00059   0.00084   0.00025   2.63292
   R19        2.05165   0.00007   0.00041   0.00005   0.00045   2.05210
   R20        2.63229   0.00236  -0.00034   0.00612   0.00578   2.63807
   R21        2.04992  -0.00004   0.00047  -0.00035   0.00012   2.05005
   R22        2.63229   0.00236  -0.00034   0.00612   0.00578   2.63807
   R23        2.04992  -0.00004   0.00047  -0.00035   0.00012   2.05005
   R24        3.35102  -0.00557  -0.01328  -0.01970  -0.03298   3.31804
    A1        2.09918  -0.00051  -0.00077  -0.00396  -0.00473   2.09446
    A2        2.16736  -0.00069   0.00181  -0.00435  -0.00254   2.16482
    A3        2.01665   0.00120  -0.00105   0.00831   0.00726   2.02391
    A4        2.07477  -0.00012  -0.00055  -0.00009  -0.00064   2.07414
    A5        2.10831  -0.00027   0.00029  -0.00233  -0.00204   2.10627
    A6        2.10010   0.00040   0.00025   0.00242   0.00268   2.10277
    A7        2.04736   0.00024  -0.00062   0.00171   0.00109   2.04845
    A8        2.11791  -0.00012   0.00031  -0.00086  -0.00055   2.11737
    A9        2.11791  -0.00012   0.00031  -0.00086  -0.00054   2.11737
   A10        2.07477  -0.00012  -0.00055  -0.00009  -0.00064   2.07414
   A11        2.10010   0.00040   0.00026   0.00242   0.00268   2.10277
   A12        2.10831  -0.00027   0.00029  -0.00233  -0.00204   2.10627
   A13        2.09918  -0.00051  -0.00077  -0.00396  -0.00473   2.09446
   A14        2.16735  -0.00069   0.00181  -0.00435  -0.00253   2.16482
   A15        2.01665   0.00120  -0.00105   0.00831   0.00726   2.02391
   A16        2.10371   0.00008  -0.00012   0.00099   0.00088   2.10459
   A17        2.10372   0.00008  -0.00012   0.00099   0.00087   2.10459
   A18        2.07575  -0.00016   0.00025  -0.00198  -0.00175   2.07400
   A19        2.10702   0.00024   0.00004   0.00042   0.00046   2.10748
   A20        2.08460  -0.00027   0.00010  -0.00135  -0.00125   2.08335
   A21        2.09156   0.00003  -0.00014   0.00093   0.00079   2.09236
   A22        2.10702   0.00024   0.00004   0.00042   0.00046   2.10748
   A23        2.08460  -0.00027   0.00010  -0.00135  -0.00125   2.08335
   A24        2.09156   0.00003  -0.00014   0.00093   0.00079   2.09236
   A25        2.07207   0.00135  -0.00043   0.00728   0.00687   2.07894
   A26        2.10963  -0.00054   0.00016  -0.00270  -0.00254   2.10709
   A27        2.10149  -0.00080   0.00026  -0.00459  -0.00433   2.09716
   A28        2.07207   0.00135  -0.00043   0.00728   0.00686   2.07894
   A29        2.10963  -0.00054   0.00016  -0.00270  -0.00254   2.10709
   A30        2.10148  -0.00080   0.00026  -0.00459  -0.00433   2.09716
   A31        2.13244  -0.00301   0.00052  -0.01343  -0.01290   2.11954
   A32        2.07537   0.00151  -0.00026   0.00671   0.00645   2.08182
   A33        2.07537   0.00151  -0.00026   0.00671   0.00645   2.08182
   A34        2.03475   0.00138  -0.00191   0.00716   0.00525   2.04001
   A35        3.14159   0.00000   0.00000   0.00002   0.00002   3.14161
   A36        3.14157   0.00000   0.00000   0.00009   0.00008   3.14166
   A37        3.14158   0.00000   0.00000   0.00004   0.00003   3.14162
   A38        3.14154   0.00000  -0.00001   0.00023   0.00022   3.14176
    D1       -3.14157   0.00000   0.00001  -0.00006  -0.00005   3.14157
    D2        0.00002   0.00000   0.00001  -0.00005  -0.00004  -0.00003
    D3       -0.00002   0.00000  -0.00001   0.00006   0.00005   0.00003
    D4        3.14156   0.00000  -0.00001   0.00007   0.00006  -3.14156
    D5        0.00002   0.00000   0.00001  -0.00004  -0.00004  -0.00002
    D6        3.14157   0.00000  -0.00001   0.00007   0.00006  -3.14156
    D7        0.00001   0.00000   0.00000  -0.00003  -0.00003  -0.00002
    D8        3.14159   0.00000   0.00000   0.00000   0.00000  -3.14159
    D9       -3.14158   0.00000   0.00001  -0.00004  -0.00003   3.14158
   D10        0.00000   0.00000   0.00000   0.00000   0.00000   0.00000
   D11        0.00000   0.00000   0.00000  -0.00001   0.00000   0.00000
   D12       -3.14159   0.00000   0.00000   0.00001   0.00001  -3.14158
   D13       -3.14158   0.00000   0.00000  -0.00004  -0.00004   3.14157
   D14        0.00001   0.00000   0.00000  -0.00003  -0.00003  -0.00001
   D15        0.00020   0.00000   0.00000  -0.00005  -0.00005   0.00015
   D16       -3.14142   0.00000  -0.00001   0.00009   0.00008  -3.14134
   D17       -3.14138   0.00000   0.00000  -0.00011  -0.00011  -3.14149
   D18        0.00018   0.00000  -0.00001   0.00002   0.00002   0.00020
   D19        3.14159   0.00000   0.00000   0.00000   0.00000   3.14159
   D20       -0.00001   0.00000   0.00000   0.00002   0.00002   0.00001
   D21        0.00000   0.00000   0.00000  -0.00001  -0.00001  -0.00001
   D22        3.14159   0.00000   0.00000   0.00001   0.00001  -3.14159
   D23        0.00000   0.00000   0.00000   0.00000   0.00000   0.00000
   D24        3.14158   0.00000   0.00000   0.00002   0.00002  -3.14158
   D25       -3.14159   0.00000   0.00000  -0.00002  -0.00002   3.14158
   D26        0.00001   0.00000   0.00000  -0.00001  -0.00001  -0.00001
   D27        0.00000   0.00000   0.00000   0.00000   0.00000   0.00000
   D28       -3.14159   0.00000   0.00000   0.00000   0.00000  -3.14159
   D29        3.14159   0.00000   0.00000   0.00002   0.00002  -3.14158
   D30        0.00000   0.00000   0.00000   0.00001   0.00001   0.00001
   D31        0.00000   0.00000   0.00000   0.00000   0.00000   0.00000
   D32       -3.14159   0.00000   0.00000   0.00000   0.00000   3.14159
   D33        0.00000   0.00000   0.00000   0.00000   0.00000   0.00000
   D34       -3.14159   0.00000   0.00000   0.00000   0.00000  -3.14159
   D35       -3.14159   0.00000   0.00000   0.00000   0.00000   3.14159
   D36        0.00000   0.00000   0.00000   0.00000   0.00000   0.00000
   D37        0.00000   0.00000   0.00000  -0.00001  -0.00001   0.00000
   D38       -3.14159   0.00000   0.00000   0.00000   0.00000   3.14159
   D39        3.14159   0.00000   0.00000   0.00000   0.00000  -3.14159
   D40        0.00000   0.00000   0.00000   0.00000   0.00000   0.00000
   D41        0.00000   0.00000   0.00000   0.00000   0.00000   0.00000
   D42        3.14159   0.00000   0.00000   0.00000   0.00000   3.14159
   D43       -3.14159   0.00000   0.00000   0.00000   0.00000   3.14159
   D44        0.00000   0.00000   0.00000   0.00000   0.00000   0.00000
   D45        0.00000   0.00000   0.00000   0.00000   0.00000   0.00000
   D46        3.14159   0.00000   0.00000   0.00000   0.00000  -3.14159
   D47       -3.14159   0.00000   0.00000   0.00000   0.00000  -3.14159
   D48        0.00000   0.00000   0.00000   0.00000   0.00000   0.00000
         Item               Value     Threshold  Converged?
 Maximum Force            0.005569     0.000450     NO 
 RMS     Force            0.000809     0.000300     NO 
 Maximum Displacement     0.019607     0.001800     NO 
 RMS     Displacement     0.003018     0.001200     NO 
 Predicted change in Energy=-1.772459D-04
 GradGradGradGradGradGradGradGradGradGradGradGradGradGradGradGradGradGrad

                          Input orientation:                          
 ---------------------------------------------------------------------
 Center     Atomic      Atomic             Coordinates (Angstroms)
 Number     Number       Type             X           Y           Z
 ---------------------------------------------------------------------
      1          6           0       -5.129766   -1.142711    0.000187
      2          6           0       -3.737409   -1.202993    0.000093
      3          6           0       -3.005472   -0.000037   -0.000054
      4          6           0       -3.737318    1.202974   -0.000117
      5          6           0       -5.129680    1.142797   -0.000032
      6          1           0       -5.714467   -2.061124    0.000277
      7          1           0       -3.224324   -2.159832    0.000131
      8          1           0       -3.224161    2.159774   -0.000237
      9          1           0       -5.714311    2.061255   -0.000076
     10          6           0       -1.581887   -0.000092   -0.000161
     11          6           0       -0.365205   -0.000120   -0.000228
     12          6           0        1.059117   -0.000061   -0.000120
     13          6           0        1.776458   -1.213671   -0.000175
     14          6           0        1.776362    1.213605    0.000035
     15          6           0        3.169735   -1.217638   -0.000081
     16          1           0        1.232735   -2.153672   -0.000295
     17          6           0        3.169639    1.217681    0.000128
     18          1           0        1.232566    2.153563    0.000078
     19          6           0        3.852435    0.000049    0.000070
[...]
 4,0.00000003,0.00003504,-0.00000010,0.00000004,0.00017818,-0.00000009,
 -0.00000003,0.00017823,-0.00000003,-0.00000003,0.00003505,-0.00000789,
 0.00000005,0.00077211,0.00003823,-0.00000054,-0.04915118,-0.00006621,0
 .00001217,0.14046917,-0.00032130,-0.00001834,0.,-0.00003566,0.00092536
 ,-0.00000019,-0.00220342,-0.00142653,-0.00000009,0.00041886,-0.0006985
 4,0.00000010,-0.00018455,-0.00008595,-0.00000005,-0.00009074,-0.000006
 45,0.,0.00002360,-0.00001590,0.00000002,0.00006356,-0.00002767,0.00000
 002,-0.00004743,0.00000909,0.,0.00760870,0.00120811,0.00000084,-0.0421
 5311,0.03043255,0.00000472,-0.15467109,0.05146605,0.00001528,0.6965719
 3,0.00041609,-0.00021529,0.00000010,-0.00112263,-0.00037515,-0.0000001
 5,0.00337634,-0.00027857,0.00000009,-0.00087809,0.00057492,-0.00000011
 ,0.00045449,0.00012216,0.00000007,-0.00005215,-0.00003014,0.,-0.000036
 62,-0.00003682,0.,0.00003430,-0.00004119,0.,-0.00002851,0.00001962,0.,
 -0.01123546,-0.00127497,-0.00000018,0.02027804,0.00544963,-0.00000163,
 0.09823063,-0.26502629,-0.00001703,0.04343947,0.70341218,-0.00000005,-
 0.00000005,-0.00011572,0.00000023,-0.00000015,-0.00019466,0.00000014,0
 .00000021,0.00004960,0.,0.00000008,0.00023829,-0.00000011,0.00000005,0
 .00008525,0.00000003,-0.00000001,0.00001736,0.,-0.00000002,0.00002546,
 -0.00000002,0.00000001,-0.00002651,0.00000001,0.,-0.00001542,-0.000001
 07,-0.00000031,0.00186644,0.00000617,-0.00000384,0.00150275,0.00001548
 ,-0.00001191,-0.06274395,-0.00007322,0.00000776,0.13165423,-0.00018446
 ,0.00008591,-0.00000005,0.00041877,0.00069836,0.00000010,-0.00220236,0
 .00142699,-0.00000006,-0.00003609,-0.00092538,-0.00000019,-0.00032121,
 0.00001855,-0.00000003,-0.00004745,-0.00000909,0.,0.00006360,0.0000277
 0,0.00000002,0.00002358,0.00001593,0.00000003,-0.00009077,0.00000647,0
 .,0.00760844,-0.00120951,0.00000081,-0.04214607,-0.03043803,0.00000330
 ,-0.15463895,-0.05144564,0.00001260,0.05902176,-0.01932914,-0.00000709
 ,0.69658476,-0.00045454,0.00012228,-0.00000008,0.00087835,0.00057486,0
 .00000011,-0.00337695,-0.00027783,-0.00000011,0.00112266,-0.00037536,0
 .00000013,-0.00041615,-0.00021524,-0.00000008,0.00002851,0.00001961,0.
 ,-0.00003431,-0.00004119,0.,0.00003665,-0.00003686,0.,0.00005214,-0.00
 003014,0.,0.01123673,-0.00127494,0.,-0.02028688,0.00543987,0.00000183,
 -0.09820880,-0.26505288,0.00000691,0.01935109,-0.05453129,-0.00000394,
 -0.04344182,0.70339430,-0.00000009,-0.00000005,0.00008524,0.00000001,-
 0.00000009,0.00023844,0.00000017,-0.00000023,0.00004973,0.00000024,0.0
 0000018,-0.00019487,-0.00000002,0.00000003,-0.00011566,0.00000002,0.,-
 0.00001543,-0.00000002,-0.00000002,-0.00002653,0.,0.00000002,0.0000254
 5,0.00000004,0.00000001,0.00001736,-0.00000073,0.00000027,0.00186554,0
 .00000537,0.00000392,0.00150332,0.00001031,0.00000176,-0.06274283,-0.0
 0000605,0.00000074,0.00818321,-0.00007527,0.00002108,0.13165287,0.0003
 2809,-0.00011471,0.00000009,-0.00057979,-0.00027169,-0.00000012,0.0017
 4041,-0.00005843,0.00000032,-0.00046112,0.00030450,0.,0.00024824,0.000
 05221,-0.00000001,-0.00002012,-0.00001942,0.,0.00001854,0.00000395,-0.
 00000001,0.00002716,-0.00001578,0.,-0.00002049,0.00002017,0.,-0.004109
 34,-0.00060630,-0.00000078,0.00783039,0.00236842,0.00000092,-0.0315510
 7,0.06909472,0.00000618,-0.34782560,-0.03054838,0.00003631,-0.04666015
 ,-0.02616323,0.00000472,0.69407899,0.00029407,0.00010899,0.00000002,-0
 .00020286,-0.00030547,-0.00000002,0.00110724,0.00030623,0.00000011,-0.
 00034375,0.00018388,-0.00000004,0.00023903,-0.00007285,0.00000004,0.00
 001137,-0.00002122,0.,0.00001219,0.00000708,0.,-0.00002081,0.00002728,
 0.,-0.00000427,0.00002610,0.,-0.00119189,0.00000047,0.00000008,0.00531
 764,-0.00458816,-0.00000074,0.02520220,0.03297387,-0.00000385,0.035143
 07,-0.12919359,-0.00000564,-0.02755745,-0.01695725,0.00000339,-0.04551
 237,0.72223571,-0.00000002,0.00000007,0.00014579,0.00000003,0.00000005
 ,-0.00000897,-0.00000019,0.00000008,-0.00051608,0.,-0.00000006,0.00002
 680,0.00000004,-0.00000004,-0.00006067,0.,0.00000001,-0.00001181,0.,0.
 00000001,-0.00004098,0.,0.,0.00000613,0.,0.,-0.00000064,0.00000107,0.0
 0000004,-0.00030432,-0.00000053,-0.00000080,0.00701484,0.00000577,-0.0
 0000870,0.00584074,0.00003698,0.00000279,-0.05882250,0.00000489,0.0000
 0321,-0.00373328,-0.00007292,0.00002063,0.12680206,-0.00002939,-0.0000
 0899,-0.00000001,0.00004363,0.00004360,0.00000001,-0.00011169,-0.00003
 188,0.,0.00008624,0.00002886,0.,-0.00001327,-0.00002348,0.,0.00001017,
 0.00000425,0.,-0.00003353,-0.00002469,0.,-0.00000738,0.00000057,0.,0.0
 0001264,-0.00000553,0.,-0.00004768,-0.00015558,0.,0.00111239,0.0009360
 5,-0.00000051,0.01082835,0.01558735,-0.00000065,-0.12969710,-0.1238138
 3,0.00000929,-0.00151682,0.00300193,0.00000096,-0.01132845,-0.02832570
 ,0.00000149,0.13536385,0.00001089,0.00000177,0.,0.00000722,-0.00001089
 ,0.,-0.00000321,-0.00002299,0.00000003,-0.00004338,-0.00005955,0.,-0.0
 0000396,0.00002067,0.,-0.00000775,-0.00000069,0.,0.00002482,0.00003336
 ,0.,0.00000330,0.00000257,0.,-0.00001118,0.00000375,0.,0.00083794,0.00
 022716,0.00000019,-0.00119637,0.00041154,-0.00000012,-0.01528856,-0.01
 847621,0.00000157,-0.12218753,-0.27322067,0.00001059,0.00412073,-0.002
 93586,-0.00000074,0.00241741,0.00454541,-0.00000033,0.13072512,0.28769
 691,0.,-0.00000001,-0.00003807,-0.00000003,0.,-0.00001321,0.,0.,0.0001
 9143,0.,0.,-0.00001277,0.,0.,0.00001521,0.,0.,0.00000822,0.,0.,0.00004
 359,0.,0.,0.00000545,0.,0.,0.00000080,-0.00000018,-0.00000009,0.000005
 96,-0.00000036,0.00000010,-0.00353632,-0.00000168,-0.00000185,0.003564
 28,0.00001003,0.00001031,-0.03655609,0.00000089,-0.00000088,0.00563029
 ,0.00000172,0.00000364,0.00374865,-0.00001147,-0.00001112,0.02505566,0
 .00024829,-0.00005225,0.,-0.00046124,-0.00030439,-0.00000003,0.0017405
 0,0.00005803,0.00000032,-0.00057975,0.00027181,-0.00000009,0.00032815,
 0.00011461,0.00000008,-0.00002049,-0.00002017,0.,0.00002715,0.00001577
 ,0.,0.00001854,-0.00000395,-0.00000001,-0.00002012,0.00001942,0.,-0.00
 410930,0.00060683,-0.00000076,0.00783228,-0.00236680,0.00000081,-0.031
 53340,-0.06910735,0.00000273,-0.04667051,0.02615739,0.00000605,-0.3478
 2433,0.03050685,0.00003770,0.06010024,0.02190913,-0.00000632,-0.000619
 34,0.00073610,0.00000025,0.69406071,-0.00023900,-0.00007282,-0.0000000
 1,0.00034368,0.00018378,0.00000004,-0.00110677,0.00030646,-0.00000007,
 0.00020261,-0.00030552,0.00000003,-0.00029399,0.00010912,-0.00000006,0
 .00000426,0.00002609,0.,0.00002083,0.00002728,0.,-0.00001220,0.0000070
 9,0.,-0.00001139,-0.00002122,0.,0.00119131,0.00000031,-0.00000005,-0.0
 0531574,-0.00458891,0.00000016,-0.02521427,0.03295487,0.00000519,0.027
 55188,-0.01694682,-0.00000407,-0.03518505,-0.12919407,0.00000209,-0.02
 188737,-0.05238742,0.00000128,0.00066216,0.00029360,-0.00000011,0.0455
 0640,0.72225351,0.00000001,0.00000002,-0.00006068,0.00000003,0.0000000
 8,0.00002671,-0.00000028,-0.00000004,-0.00051604,0.00000004,-0.0000000
 8,-0.00000887,-0.00000005,-0.00000003,0.00014575,0.,0.,-0.00000064,0.,
 0.,0.00000614,0.,-0.00000002,-0.00004098,0.,-0.00000001,-0.00001182,0.
 00000119,-0.00000009,-0.00030408,-0.00000083,0.00000026,0.00701430,0.0
 0000451,0.00001009,0.00584063,0.00000626,-0.00000387,-0.00373341,0.000
 03513,-0.00000637,-0.05882197,-0.00000741,-0.00000429,0.00750623,0.000
 00005,-0.00000012,-0.00073946,-0.00007048,0.00000955,0.12680148,-0.000
 01327,0.00002347,0.,0.00008622,-0.00002885,0.,-0.00011172,0.00003186,0
 .,0.00004362,-0.00004366,0.00000002,-0.00002940,0.00000902,-0.00000001
 ,0.00001264,0.00000553,0.,-0.00000738,-0.00000057,0.,-0.00003355,0.000
 02471,0.,0.00001017,-0.00000425,0.,-0.00004746,0.00015592,0.,0.0011125
 2,-0.00093653,-0.00000056,0.01082779,-0.01558132,-0.00000142,-0.001515
 36,-0.00300161,0.00000080,-0.12974371,0.12384133,0.00001552,-0.0006190
 5,-0.00066234,0.00000002,0.00061278,-0.00081240,-0.00000005,-0.0113334
 6,0.02832265,0.00000293,0.13541380,0.00000396,0.00002067,0.,0.00004338
 ,-0.00005955,0.,0.00000315,-0.00002301,-0.00000003,-0.00000724,-0.0000
 1095,0.00000001,-0.00001091,0.00000178,0.,0.00001118,0.00000375,0.,-0.
 00000330,0.00000257,0.,-0.00002483,0.00003340,0.,0.00000775,-0.0000006
 9,0.,-0.00083801,0.00022762,-0.00000019,0.00119691,0.00041113,0.000000
 32,0.01529390,-0.01847654,-0.00000267,-0.00412048,-0.00293718,0.000000
 31,0.12221519,-0.27317325,-0.00002253,-0.00073627,0.00029329,0.0000001
 7,0.00081275,-0.00097619,-0.00000015,-0.00242043,0.00455035,0.00000037
 ,-0.13075452,0.28764675,0.,0.,0.00001522,0.,0.,-0.00001278,0.00000001,
 -0.00000002,0.00019146,-0.00000003,-0.00000001,-0.00001320,0.,0.,-0.00
 003808,0.,0.,0.00000080,0.,0.,0.00000545,0.,0.,0.00004361,0.,0.,0.0000
 0822,-0.00000024,0.00000010,0.00000577,-0.00000029,0.00000012,-0.00353
 606,-0.00000089,0.00000074,0.00356411,0.00000069,0.00000045,0.00563034
 ,0.00001618,-0.00002227,-0.03655601,0.00000021,0.00000016,-0.00073950,
 -0.00000001,0.00000009,0.00036061,0.00000160,-0.00000359,0.00374870,-0
 .00001807,0.00002436,0.02505555,-0.00043680,0.00002362,-0.00000006,0.0
 0074509,0.00023007,0.00000010,-0.00200775,0.00000016,-0.00000040,0.000
 74505,-0.00023021,0.00000009,-0.00043680,-0.00002354,-0.00000006,0.000
 05343,0.00004948,0.,-0.00006032,-0.00003457,0.,-0.00006033,0.00003459,
 0.,0.00005342,-0.00004949,0.,0.00397416,-0.00000030,0.00000110,-0.0053
 6137,-0.00000007,-0.00000103,0.00473733,0.00000740,-0.00000139,-0.0305
 7164,-0.02567065,0.00000437,-0.03059213,0.02565833,0.00000569,-0.15032
 178,-0.11406125,0.00000829,-0.00405262,0.00074889,0.00000146,-0.150352
 90,0.11408744,0.00001405,-0.00405223,-0.00074999,0.00000142,0.50402063
 ,-0.00004811,0.00003071,-0.00000002,0.00005134,0.00000144,0.00000001,-
 0.00000027,0.00004942,0.,-0.00005119,0.00000137,-0.00000002,0.00004803
 ,0.00003068,0.00000003,-0.00000181,-0.00000124,0.,-0.00000006,-0.00000
 235,0.,0.00000005,-0.00000234,0.,0.00000182,-0.00000125,0.,0.00000051,
 0.00076498,0.00000001,-0.00000006,-0.00168215,0.,0.00000680,-0.0694125
 4,-0.00000160,-0.08145662,0.03333886,0.00001116,0.08144433,0.03335941,
 -0.00000976,-0.04900735,-0.28531415,0.00000037,0.00137998,0.00154103,-
 0.00000006,0.04903354,-0.28528323,-0.00001174,-0.00138107,0.00154060,-
 0.00000023,-0.00001436,0.65019439,0.00000007,-0.00000002,-0.00000706,-
 0.00000010,0.,-0.00001566,0.00000025,0.,-0.00003810,-0.00000011,0.,-0.
 00001569,0.00000007,0.00000002,-0.00000706,0.,-0.00000001,0.00000249,0
 .00000001,0.,0.00000720,0.,0.,0.00000720,0.,0.00000001,0.00000249,-0.0
 0000072,0.00000003,0.00064357,0.00000061,-0.00000001,-0.00185465,-0.00
 000140,-0.00000162,-0.00517656,0.00000260,0.00000398,0.00567718,0.0000
 0670,-0.00000257,0.00567693,0.00001025,0.00000900,-0.06087304,0.000001
 47,-0.00000016,0.00736515,0.00001273,-0.00002036,-0.06087266,0.0000014
 0,-0.00000014,0.00736522,-0.00004894,0.00001343,0.11929015,0.00002937,
 -0.00001609,0.,-0.00011482,0.00003655,-0.00000002,0.00015935,-0.000084
 72,0.00000004,-0.00006979,-0.00001644,0.,0.00002814,0.00000908,0.,-0.0
 0001559,-0.00000544,0.,0.00000828,0.00000328,0.,0.00001112,-0.00000747
 ,0.,-0.00000953,0.00000376,0.,-0.00037897,-0.00002809,-0.00000007,-0.0
 0034632,0.00126932,0.00000016,-0.00467623,-0.00160868,0.00000159,-0.01
 086334,0.02805923,0.00000254,-0.00071289,-0.00070999,0.,-0.13060217,0.
 12656605,0.00001497,0.00063030,-0.00027913,-0.00000066,-0.00156504,-0.
 00310566,0.00000076,0.00008476,0.00009212,-0.00000010,0.00992184,-0.01
 533527,-0.00000130,0.13702036,-0.00001529,-0.00000553,0.,0.00001968,0.
 00000284,0.,-0.00004683,-0.00001527,0.00000002,0.00002597,-0.00000362,
 0.,-0.00001788,0.00000609,0.,0.00000190,0.00000263,0.,-0.00000269,-0.0
 0000019,0.,-0.00000235,0.00000030,0.,0.00000236,-0.00000282,0.,-0.0000
 5908,-0.00004495,-0.00000003,0.00000542,0.00018044,0.00000004,-0.00123
 263,0.00167266,0.00000003,-0.00192799,0.00507322,0.00000028,-0.0008680
 5,0.00026769,0.00000014,0.12378451,-0.27249336,-0.00002144,0.00023325,
 0.00080239,0.00000008,-0.00410742,-0.00282273,0.00000034,0.00008596,0.
 00000010,0.00000001,0.01628900,-0.01947567,-0.00000263,-0.13288821,0.2
 8710928,0.,0.,0.00000407,0.,0.,0.00000995,0.00000002,0.,-0.00000899,0.
 ,0.,-0.00002066,0.,0.,-0.00000186,0.,0.,0.00000087,0.,0.,0.00000481,0.
 ,0.,0.00000385,0.,0.,0.00000191,0.,0.,-0.00017855,0.00000014,-0.000000
 08,0.00046000,0.00000146,-0.00000008,0.00717924,0.00000175,-0.00000350
 ,0.00326563,0.00000001,0.00000013,-0.00073570,0.00001493,-0.00002181,-
 0.03551462,-0.00000064,0.00000015,-0.00430989,0.00000083,0.00000022,0.
 00541277,-0.00000012,0.,-0.00082510,-0.00000049,0.00000144,0.00277981,
 -0.00001740,0.00002323,0.02469222,0.00002814,-0.00000909,0.,-0.0000697
 8,0.00001646,-0.00000001,0.00015936,0.00008468,0.00000004,-0.00011484,
 -0.00003654,-0.00000002,0.00002937,0.00001609,0.,-0.00000954,-0.000003
 75,0.,0.00001113,0.00000747,0.,0.00000828,-0.00000328,0.,-0.00001559,0
 .00000544,0.,-0.00037886,0.00002817,-0.00000006,-0.00034619,-0.0012694
 5,0.00000009,-0.00467681,0.00160729,0.00000167,-0.00071314,0.00070983,
 0.00000004,-0.01085832,-0.02806215,0.00000111,-0.00156641,0.00310587,0
 .00000092,0.00008480,-0.00009209,-0.00000010,-0.13055411,-0.12653891,0
 .00000853,0.00063029,0.00027908,-0.00000064,0.00992206,0.01534088,-0.0
 0000053,0.00067986,0.00078443,-0.00000002,0.13696924,0.00001788,0.0000
 0609,0.,-0.00002598,-0.00000362,0.,0.00004686,-0.00001526,-0.00000001,
 -0.00001969,0.00000284,0.,0.00001530,-0.00000553,0.,-0.00000236,-0.000
 00282,0.,0.00000235,0.00000030,0.,0.00000269,-0.00000019,0.,-0.0000019
 0,0.00000263,0.,0.00005901,-0.00004502,0.00000003,-0.00000553,0.000180
 33,-0.00000005,0.00123150,0.00167320,-0.00000031,0.00086784,0.00026797
 ,-0.00000008,0.00192495,0.00506820,-0.00000019,0.00410766,-0.00282133,
 -0.00000076,-0.00008594,0.00000006,0.00000003,-0.12375739,-0.27254147,
 0.00000940,-0.00023329,0.00080241,0.00000018,-0.01628333,-0.01947582,0
 .00000150,-0.00078413,-0.00090141,0.00000008,0.13285943,0.28716029,0.,
 0.,-0.00000186,0.,0.,-0.00002067,0.,0.,-0.00000899,0.,0.,0.00000995,0.
 ,0.,0.00000407,0.,0.,0.00000191,0.,0.,0.00000385,0.,0.,0.00000481,0.,0
 .,0.00000087,0.00000002,0.,-0.00017857,0.00000013,0.00000007,0.0004601
 3,0.00000153,-0.00000020,0.00717910,0.00000005,-0.00000007,-0.00073576
 ,0.00000184,0.00000358,0.00326560,0.00000104,-0.00000063,0.00541281,-0
 .00000012,0.00000004,-0.00082510,0.00000864,0.00000977,-0.03551441,-0.
 00000065,0.00000011,-0.00430992,-0.00000131,-0.00000256,0.00277976,-0.
 00000006,-0.00000014,0.00033656,-0.00001064,-0.00000990,0.02469216,-0.
 18309466,0.10933558,-0.00001559,-0.03010834,0.03559830,-0.00000687,0.0
 0914875,-0.00000810,0.00000236,-0.03013316,-0.03558798,-0.00000521,-0.
 18312885,-0.10935317,-0.00001073,0.01430469,-0.00745586,0.00000224,-0.
 00666985,-0.00019991,-0.00000163,-0.00666986,0.00020143,-0.00000165,0.
 01430246,0.00744712,0.00000188,-0.00531991,0.00000046,-0.00000007,0.00
 307067,0.,-0.00000007,-0.00046679,-0.00000002,-0.00000004,0.00010476,-
 0.00043543,0.00000004,0.00010470,0.00043545,0.00000002,-0.00029849,-0.
 00031337,0.00000003,0.00004805,-0.00001687,0.,-0.00029856,0.00031333,0
 .00000006,0.00004806,0.00001689,0.,0.00057037,0.00000004,-0.00000006,-
 0.00004616,0.00002669,0.,-0.00004615,-0.00002670,0.,0.40525631,0.07847
 484,-0.27961021,0.00001374,0.09887891,0.02584751,0.00001071,-0.0000079
 7,-0.07819110,0.00000160,-0.09886872,0.02587206,-0.00001090,-0.0784924
 1,-0.27957563,-0.00000415,0.01963366,-0.03332954,0.00000279,0.00019838
 ,0.00174837,0.00000031,-0.00019680,0.00174838,-0.00000003,-0.01964240,
 -0.03332733,-0.00000159,0.00000045,0.00023281,-0.00000007,-0.00000033,
 0.00086023,-0.00000002,0.00000008,-0.00005153,0.,-0.00007437,-0.000041
 60,0.00000003,0.00007438,-0.00004174,-0.00000003,0.00004581,0.00004493
 ,-0.00000002,-0.00001032,0.00001346,0.,-0.00004576,0.00004485,0.000000
 02,0.00001031,0.00001346,0.,-0.00000005,-0.00006720,0.,-0.00000632,-0.
 00000010,0.,0.00000633,-0.00000010,0.,0.00002220,0.64780058,-0.0000146
 1,0.00001713,-0.06566859,-0.00000835,0.00000382,0.02250364,0.00000223,
 0.00000152,-0.01001345,-0.00000379,-0.00000394,0.02250355,-0.00001136,
 -0.00000770,-0.06566859,0.00000145,-0.00000012,-0.00376106,-0.00000159
 ,0.00000019,0.00786867,-0.00000157,0.00000011,0.00786870,0.00000239,0.
 00000148,-0.00376104,-0.00000009,-0.00000008,-0.00366317,0.00000019,-0
 .00000002,-0.00000465,-0.00000004,0.,0.00028018,0.00000001,-0.00000006
 ,-0.00001023,0.00000002,0.00000006,-0.00001022,-0.00000004,-0.00000003
 ,-0.00000118,0.,0.,-0.00000443,-0.00000004,0.00000003,-0.00000117,0.,0
 .,-0.00000444,0.00000008,0.,0.00000737,0.,0.,-0.00000374,0.,0.,-0.0000
 0374,0.00003522,-0.00001240,0.09154968,0.00047048,0.00009725,0.0000000
 4,-0.00075819,-0.00006734,-0.00000010,0.00173279,-0.00000014,0.0000001
 9,-0.00075816,0.00006748,-0.00000010,0.00047045,-0.00009734,0.00000006
 ,-0.00006677,-0.00006559,0.,0.00006152,0.00002176,0.,0.00006152,-0.000
 02178,0.,-0.00006676,0.00006560,0.,-0.00202753,0.00000005,0.00000028,0
 .00195340,0.00000006,-0.00000068,-0.00266854,-0.00000048,0.00000034,0.
 00375081,-0.00500330,0.00000007,0.00375010,0.00500480,0.00000031,-0.03
 840800,-0.00071181,0.00000547,-0.00137593,0.00031000,0.00000020,-0.038
 41331,0.00070379,0.00000551,-0.00137605,-0.00031029,0.00000018,-0.1564
 3670,-0.00001117,0.00001700,0.00082748,-0.00009074,-0.00000047,0.00082
 722,0.00009078,-0.00000046,-0.00067804,0.00000007,-0.00000008,0.229128
 20,0.00000271,-0.00000090,0.,0.00000069,-0.00000768,0.,0.00000017,-0.0
 0002043,0.,-0.00000085,-0.00000768,0.,-0.00000261,-0.00000092,0.,0.000
 00196,0.00000130,0.,0.00000322,0.00000370,0.,-0.00000320,0.00000370,0.
 ,-0.00000198,0.00000131,0.,-0.00000020,-0.00000227,-0.00000001,0.00000
 017,0.00032693,0.00000003,-0.00000042,0.00193520,0.00000007,0.00165185
 ,-0.00410900,-0.00000047,-0.00165034,-0.00410834,0.00000001,-0.0272580
 7,0.00340158,0.00000345,-0.00092992,0.00010936,0.00000012,0.02725004,0
 .00340693,-0.00000348,0.00092964,0.00010949,-0.00000011,-0.00001118,-0
 .04013494,-0.00000044,-0.00116376,0.00064800,0.00000023,0.00116381,0.0
 0064824,-0.00000007,-0.00000006,0.00000945,0.,0.00001835,0.03778699,-0
 .00000007,-0.00000001,-0.00000054,0.00000011,0.,0.00000660,-0.00000023
 ,0.,0.00003715,0.00000011,0.,0.00000661,-0.00000007,0.00000001,-0.0000
 0055,0.,0.,-0.00000035,0.,0.,-0.00000270,0.,0.,-0.00000270,0.,0.,-0.00
 000034,0.00000026,0.,-0.00001340,-0.00000029,0.00000003,-0.00063168,0.
 00000024,0.00000007,-0.00085899,0.00000027,0.00000032,0.00475851,0.000
 00018,-0.00000077,0.00475854,0.00000463,0.,0.00412355,0.00000014,-0.00
 000005,0.00004002,0.00000601,-0.00000004,0.00412349,0.00000019,0.00000
 005,0.00004001,0.00001702,-0.00000044,-0.02274405,-0.00000043,0.000000
 08,-0.00255257,-0.00000037,0.00000008,-0.00255255,0.00000008,0.,-0.000
 00210,-0.00002777,0.00000066,0.01146804\\-0.00001014,-0.00000009,0.000
 00032,0.00000618,-0.00000182,0.00000068,-0.00000384,0.00000392,-0.0000
 0713,0.00000479,0.00000144,0.00000044,-0.00001028,0.00000049,0.0000011
 0,0.00000334,-0.00000099,0.00000015,-0.00000133,-0.00000011,-0.0000000
 7,-0.00000134,0.00000001,-0.00000013,0.00000322,0.00000096,-0.00000012
 ,0.00000273,-0.00000171,-0.00000050,-0.00000791,-0.00000823,0.00001542
 ,0.00001179,0.00000654,-0.00000855,0.00000136,-0.00000563,-0.00000144,
 0.00000294,0.00000435,-0.00000139,-0.00000870,0.00000532,0.00000116,0.
 00000113,0.00000167,-0.00000022,-0.00000806,-0.00000485,0.00000116,0.0
 0000128,-0.00000160,-0.00000022,-0.00000790,0.00000042,-0.00000048,0.0
 0000298,-0.00000149,0.00000019,0.00000317,0.00000141,0.00000019,0.0000
 0829,0.,-0.00000045,0.00000630,-0.00000002,-0.00000009\\\@


 MY GROUP MEETINGS AREN'T VERY STRUCTURED.
     -- PROF. M. S. GORDON, OCT. 5, 1984
 Job cpu time:       0 days  1 hours 41 minutes 48.3 seconds.
 Elapsed time:       0 days  0 hours  3 minutes 23.7 seconds.
 File lengths (MBytes):  RWF=    232 Int=      0 D2E=      0 Chk=      9 Scr=      1
 Normal termination of Gaussian 16 at Mon Sep 18 04:51:40 2023.
