 Entering Gaussian System, Link 0=/home/ubuntu/g16/g16
 Input=/home/ubuntu/Downloads/MOLECULE_4-vol.gjf
 Output=/home/ubuntu/Downloads/MOLECULE_4-vol.log
 Initial command:
 /home/ubuntu/g16/l1.exe "/home/ubuntu/Scratch/Gau-10208.inp" -scrdir="/home/ubuntu/Scratch/"
 Entering Link 1 = /home/ubuntu/g16/l1.exe PID=     10210.
  
 Copyright (c) 1988-2017, Gaussian, Inc.  All Rights Reserved.
  
 This is part of the Gaussian(R) 16 program.  It is based on
 the Gaussian(R) 09 system (copyright 2009, Gaussian, Inc.),
 the Gaussian(R) 03 system (copyright 2003, Gaussian, Inc.),
 the Gaussian(R) 98 system (copyright 1998, Gaussian, Inc.),
 the Gaussian(R) 94 system (copyright 1995, Gaussian, Inc.),
 the Gaussian 92(TM) system (copyright 1992, Gaussian, Inc.),
 the Gaussian 90(TM) system (copyright 1990, Gaussian, Inc.),
 the Gaussian 88(TM) system (copyright 1988, Gaussian, Inc.),
 the Gaussian 86(TM) system (copyright 1986, Carnegie Mellon
 University), and the Gaussian 82(TM) system (copyright 1983,
 Carnegie Mellon University). Gaussian is a federally registered
 trademark of Gaussian, Inc.
  
 This software contains proprietary and confidential information,
 including trade secrets, belonging to Gaussian, Inc.
  
 This software is provided under written license and may be
 used, copied, transmitted, or stored only in accord with that
 written license.
  
 The following legend is applicable only to US Government
 contracts under FAR:
  
                    RESTRICTED RIGHTS LEGEND
  
 Use, reproduction and disclosure by the US Government is
 subject to restrictions as set forth in subparagraphs (a)
 and (c) of the Commercial Computer Software - Restricted
 Rights clause in FAR 52.227-19.
  
 Gaussian, Inc.
 340 Quinnipiac St., Bldg. 40, Wallingford CT 06492
  
  
 ---------------------------------------------------------------
 Warning -- This program may not be used in any manner that
 competes with the business of Gaussian, Inc. or will provide
 assistance to any competitor of Gaussian, Inc.  The licensee
 of this program is prohibited from giving any competitor of
 Gaussian, Inc. access to this program.  By using this program,
 the user acknowledges that Gaussian, Inc. is engaged in the
 business of creating and licensing software in the field of
 computational chemistry and represents and warrants to the
 licensee that it is not a competitor of Gaussian, Inc. and that
 it will not use this program in any manner prohibited above.
 ---------------------------------------------------------------
  

 Cite this work as:
 Gaussian 16, Revision B.01,
 M. J. Frisch, G. W. Trucks, H. B. Schlegel, G. E. Scuseria, 
 M. A. Robb, J. R. Cheeseman, G. Scalmani, V. Barone, 
 G. A. Petersson, H. Nakatsuji, X. Li, M. Caricato, A. V. Marenich, 
 J. Bloino, B. G. Janesko, R. Gomperts, B. Mennucci, H. P. Hratchian, 
 J. V. Ortiz, A. F. Izmaylov, J. L. Sonnenberg, D. Williams-Young, 
 F. Ding, F. Lipparini, F. Egidi, J. Goings, B. Peng, A. Petrone, 
 T. Henderson, D. Ranasinghe, V. G. Zakrzewski, J. Gao, N. Rega, 
 G. Zheng, W. Liang, M. Hada, M. Ehara, K. Toyota, R. Fukuda, 
 J. Hasegawa, M. Ishida, T. Nakajima, Y. Honda, O. Kitao, H. Nakai, 
 T. Vreven, K. Throssell, J. A. Montgomery, Jr., J. E. Peralta, 
 F. Ogliaro, M. J. Bearpark, J. J. Heyd, E. N. Brothers, K. N. Kudin, 
 V. N. Staroverov, T. A. Keith, R. Kobayashi, J. Normand, 
 K. Raghavachari, A. P. Rendell, J. C. Burant, S. S. Iyengar, 
 J. Tomasi, M. Cossi, J. M. Millam, M. Klene, C. Adamo, R. Cammi, 
 J. W. Ochterski, R. L. Martin, K. Morokuma, O. Farkas, 
 J. B. Foresman, and D. J. Fox, Gaussian, Inc., Wallingford CT, 2016.
 
 ******************************************
 Gaussian 16:  EM64L-G16RevB.01 20-Dec-2017
                15-Sep-2023 
 ******************************************
 %nprocshared=32
 Will use up to   32 processors via shared memory.
 %mem=62GB
 %chk=MOLECULE_4-vol.chk
 ----------------------------------------------------------------------
 # opt freq b3lyp/6-31+g(d) empiricaldispersion=gd3 scf=maxcycle=1000 v
 olume
 ----------------------------------------------------------------------
 1/18=20,19=15,26=3,38=1/1,3;
 2/9=110,12=2,17=6,18=5,40=1/2;
 3/5=1,6=6,7=11,11=2,25=1,30=1,71=1,74=-5,124=31/1,2,3;
 4//1;
 5/5=2,7=1000,38=5/2;
 6/7=2,8=2,9=2,10=2,28=1,44=1/1,4;
 7//1,2,3,16;
 1/18=20,19=15,26=3/3(2);
 2/9=110/2;
 99//99;
 2/9=110/2;
 3/5=1,6=6,7=11,11=2,25=1,30=1,71=1,74=-5,124=31/1,2,3;
 4/5=5,16=3,69=1/1;
 5/5=2,7=1000,38=5/2;
 7//1,2,3,16;
 1/18=20,19=15,26=3/3(-5);
 2/9=110/2;
 6/7=2,8=2,9=2,10=2,19=2,28=1,44=1/1,4;
 99/9=1/99;
 -------------------
 Title Card Required
 -------------------
 Symbolic Z-matrix:
 Charge =  0 Multiplicity = 1
 C                     0.33     -0.50513   0.1767 
 C                    -1.03347  -0.01042  -0.34124 
 H                     0.31149  -0.56012   1.27462 
 H                     0.5091   -1.52635  -0.18553 
 C                    -2.13484  -1.01699   0.02601 
 H                    -0.97886   0.04292  -1.44044 
 H                    -3.10766  -0.70468  -0.3736 
 H                    -1.91182  -2.0159   -0.36892 
 H                    -2.23359  -1.10311   1.11663 
 C                    -1.39005   1.39007   0.18507 
 H                    -0.67793   2.1534   -0.14916 
 H                    -2.38576   1.6961   -0.15921 
 H                    -1.39983   1.39846   1.28382 
 C                     1.5191    0.34645  -0.25057 
 H                     1.4666    1.34756   0.20207 
 H                     1.51779   0.46883  -1.34649 
 O                     2.70825  -0.32905   0.17747 
 H                     3.48005   0.21139  -0.04932 
 

 GradGradGradGradGradGradGradGradGradGradGradGradGradGradGradGradGradGrad
 Berny optimization.
 Initialization pass.
                           ----------------------------
                           !    Initial Parameters    !
                           ! (Angstroms and Degrees)  !
 --------------------------                            --------------------------
 ! Name  Definition              Value          Derivative Info.                !
 --------------------------------------------------------------------------------
 ! R1    R(1,2)                  1.5401         estimate D2E/DX2                !
 ! R2    R(1,3)                  1.0994         estimate D2E/DX2                !
 ! R3    R(1,4)                  1.0983         estimate D2E/DX2                !
 ! R4    R(1,14)                 1.5237         estimate D2E/DX2                !
 ! R5    R(2,5)                  1.5366         estimate D2E/DX2                !
 ! R6    R(2,6)                  1.1018         estimate D2E/DX2                !
 ! R7    R(2,10)                 1.538          estimate D2E/DX2                !
 ! R8    R(5,7)                  1.0971         estimate D2E/DX2                !
 ! R9    R(5,8)                  1.0971         estimate D2E/DX2                !
 ! R10   R(5,9)                  1.0985         estimate D2E/DX2                !
 ! R11   R(10,11)                1.0961         estimate D2E/DX2                !
 ! R12   R(10,12)                1.0971         estimate D2E/DX2                !
 ! R13   R(10,13)                1.0988         estimate D2E/DX2                !
 ! R14   R(14,15)                1.0999         estimate D2E/DX2                !
 ! R15   R(14,16)                1.1027         estimate D2E/DX2                !
 ! R16   R(14,17)                1.433          estimate D2E/DX2                !
 ! R17   R(17,18)                0.9691         estimate D2E/DX2                !
 ! A1    A(2,1,3)              109.6939         estimate D2E/DX2                !
 ! A2    A(2,1,4)              109.3978         estimate D2E/DX2                !
 ! A3    A(2,1,14)             114.6486         estimate D2E/DX2                !
 ! A4    A(3,1,4)              106.5943         estimate D2E/DX2                !
 ! A5    A(3,1,14)             108.7304         estimate D2E/DX2                !
 ! A6    A(4,1,14)             107.4533         estimate D2E/DX2                !
 ! A7    A(1,2,5)              110.1056         estimate D2E/DX2                !
 ! A8    A(1,2,6)              107.8882         estimate D2E/DX2                !
 ! A9    A(1,2,10)             112.4982         estimate D2E/DX2                !
 ! A10   A(5,2,6)              107.7982         estimate D2E/DX2                !
 ! A11   A(5,2,10)             110.397          estimate D2E/DX2                !
 ! A12   A(6,2,10)             107.9865         estimate D2E/DX2                !
 ! A13   A(2,5,7)              111.2255         estimate D2E/DX2                !
 ! A14   A(2,5,8)              111.39           estimate D2E/DX2                !
 ! A15   A(2,5,9)              110.6766         estimate D2E/DX2                !
 ! A16   A(7,5,8)              107.9597         estimate D2E/DX2                !
 ! A17   A(7,5,9)              107.7125         estimate D2E/DX2                !
 ! A18   A(8,5,9)              107.717          estimate D2E/DX2                !
 ! A19   A(2,10,11)            112.2805         estimate D2E/DX2                !
 ! A20   A(2,10,12)            110.9183         estimate D2E/DX2                !
 ! A21   A(2,10,13)            110.5603         estimate D2E/DX2                !
 ! A22   A(11,10,12)           107.4391         estimate D2E/DX2                !
 ! A23   A(11,10,13)           107.7796         estimate D2E/DX2                !
 ! A24   A(12,10,13)           107.6734         estimate D2E/DX2                !
 ! A25   A(1,14,15)            110.8562         estimate D2E/DX2                !
 ! A26   A(1,14,16)            109.8636         estimate D2E/DX2                !
 ! A27   A(1,14,17)            107.4804         estimate D2E/DX2                !
 ! A28   A(15,14,16)           107.9333         estimate D2E/DX2                !
 ! A29   A(15,14,17)           110.2255         estimate D2E/DX2                !
 ! A30   A(16,14,17)           110.496          estimate D2E/DX2                !
 ! A31   A(14,17,18)           109.153          estimate D2E/DX2                !
 ! D1    D(3,1,2,5)            -63.1482         estimate D2E/DX2                !
 ! D2    D(3,1,2,6)            179.4527         estimate D2E/DX2                !
 ! D3    D(3,1,2,10)            60.4474         estimate D2E/DX2                !
 ! D4    D(4,1,2,5)             53.4432         estimate D2E/DX2                !
 ! D5    D(4,1,2,6)            -63.956          estimate D2E/DX2                !
 ! D6    D(4,1,2,10)           177.0387         estimate D2E/DX2                !
 ! D7    D(14,1,2,5)           174.2022         estimate D2E/DX2                !
 ! D8    D(14,1,2,6)            56.803          estimate D2E/DX2                !
 ! D9    D(14,1,2,10)          -62.2023         estimate D2E/DX2                !
 ! D10   D(2,1,14,15)           66.0562         estimate D2E/DX2                !
 ! D11   D(2,1,14,16)          -53.152          estimate D2E/DX2                !
 ! D12   D(2,1,14,17)         -173.423          estimate D2E/DX2                !
 ! D13   D(3,1,14,15)          -57.1123         estimate D2E/DX2                !
 ! D14   D(3,1,14,16)         -176.3205         estimate D2E/DX2                !
 ! D15   D(3,1,14,17)           63.4085         estimate D2E/DX2                !
 ! D16   D(4,1,14,15)         -172.1189         estimate D2E/DX2                !
 ! D17   D(4,1,14,16)           68.6729         estimate D2E/DX2                !
 ! D18   D(4,1,14,17)          -51.5982         estimate D2E/DX2                !
 ! D19   D(1,2,5,7)           -177.4485         estimate D2E/DX2                !
 ! D20   D(1,2,5,8)            -56.9586         estimate D2E/DX2                !
 ! D21   D(1,2,5,9)             62.8534         estimate D2E/DX2                !
 ! D22   D(6,2,5,7)            -59.9935         estimate D2E/DX2                !
 ! D23   D(6,2,5,8)             60.4964         estimate D2E/DX2                !
 ! D24   D(6,2,5,9)           -179.6917         estimate D2E/DX2                !
 ! D25   D(10,2,5,7)            57.7413         estimate D2E/DX2                !
 ! D26   D(10,2,5,8)           178.2313         estimate D2E/DX2                !
 ! D27   D(10,2,5,9)           -61.9568         estimate D2E/DX2                !
 ! D28   D(1,2,10,11)           62.5572         estimate D2E/DX2                !
 ! D29   D(1,2,10,12)         -177.2218         estimate D2E/DX2                !
 ! D30   D(1,2,10,13)          -57.849          estimate D2E/DX2                !
 ! D31   D(5,2,10,11)         -174.0096         estimate D2E/DX2                !
 ! D32   D(5,2,10,12)          -53.7886         estimate D2E/DX2                !
 ! D33   D(5,2,10,13)           65.5842         estimate D2E/DX2                !
 ! D34   D(6,2,10,11)          -56.3906         estimate D2E/DX2                !
 ! D35   D(6,2,10,12)           63.8303         estimate D2E/DX2                !
 ! D36   D(6,2,10,13)         -176.7968         estimate D2E/DX2                !
 ! D37   D(1,14,17,18)        -177.6169         estimate D2E/DX2                !
 ! D38   D(15,14,17,18)        -56.6985         estimate D2E/DX2                !
 ! D39   D(16,14,17,18)         62.5135         estimate D2E/DX2                !
 --------------------------------------------------------------------------------
 Trust Radius=3.00D-01 FncErr=1.00D-07 GrdErr=1.00D-06 EigMax=2.50D+02 EigMin=1.00D-04
 Number of steps in this run=     97 maximum allowed number of steps=    108.
 GradGradGradGradGradGradGradGradGradGradGradGradGradGradGradGradGradGrad

                          Input orientation:                          
 ---------------------------------------------------------------------
 Center     Atomic      Atomic             Coordinates (Angstroms)
 Number     Number       Type             X           Y           Z
 ---------------------------------------------------------------------
      1          6           0        0.329999   -0.505125    0.176702
      2          6           0       -1.033465   -0.010419   -0.341244
      3          1           0        0.311493   -0.560122    1.274616
      4          1           0        0.509099   -1.526352   -0.185531
      5          6           0       -2.134837   -1.016993    0.026009
      6          1           0       -0.978855    0.042916   -1.440441
      7          1           0       -3.107661   -0.704678   -0.373598
      8          1           0       -1.911815   -2.015898   -0.368921
      9          1           0       -2.233589   -1.103108    1.116627
     10          6           0       -1.390054    1.390069    0.185070
     11          1           0       -0.677929    2.153396   -0.149160
     12          1           0       -2.385763    1.696101   -0.159213
     13          1           0       -1.399825    1.398461    1.283818
     14          6           0        1.519097    0.346451   -0.250569
     15          1           0        1.466596    1.347563    0.202074
     16          1           0        1.517790    0.468831   -1.346486
     17          8           0        2.708246   -0.329049    0.177466
     18          1           0        3.480047    0.211392   -0.049320
 ---------------------------------------------------------------------
                    Distance matrix (angstroms):
                    1          2          3          4          5
     1  C    0.000000
     2  C    1.540142   0.000000
     3  H    1.099446   2.173037   0.000000
     4  H    1.098269   2.168364   1.762010   0.000000
     5  C    2.521931   1.536583   2.784292   2.700850   0.000000
     6  H    2.151418   1.101844   3.065972   2.500282   2.147132
     7  H    3.487142   2.187540   3.798437   3.713687   1.097093
     8  H    2.757874   2.189569   3.124675   2.476714   1.097050
     9  H    2.795179   2.181663   2.607151   3.065467   1.098460
    10  C    2.559377   1.538028   2.808134   3.499948   2.524668
    11  H    2.861789   2.201226   3.220136   3.866640   3.493513
    12  H    3.511922   2.184961   3.797578   4.331873   2.730961
    13  H    2.800292   2.181740   2.600912   3.789130   2.820770
    14  C    1.523711   2.578983   2.146246   2.128783   3.909822
    15  H    2.173695   2.896483   2.474646   3.053920   4.311896
    16  H    2.163224   2.783719   3.063343   2.519133   4.175296
    17  O    2.384756   3.790908   2.646046   2.530128   4.894043
    18  H    3.238408   4.528378   3.519627   3.444538   5.748176
                    6          7          8          9         10
     6  H    0.000000
     7  H    2.495770   0.000000
     8  H    2.501456   1.774646   0.000000
     9  H    3.070232   1.772997   1.773014   0.000000
    10  C    2.150858   2.765908   3.489950   2.792003   0.000000
    11  H    2.492406   3.757999   4.353594   3.824541   1.096129
    12  H    2.520705   2.516116   3.748005   3.080016   1.097097
    13  H    3.071857   3.175992   3.827731   2.642151   1.098823
    14  C    2.783468   4.746251   4.167236   4.248894   3.121230
    15  H    3.221830   5.046476   4.801309   4.531398   2.857017
    16  H    2.534456   4.870157   4.346459   4.755078   3.413195
    17  O    4.043599   5.854019   4.948632   5.089492   4.444265
    18  H    4.673907   6.658997   5.842529   5.977707   5.016184
                   11         12         13         14         15
    11  H    0.000000
    12  H    1.768026   0.000000
    13  H    1.773270   1.772851   0.000000
    14  C    2.846446   4.132533   3.461383   0.000000
    15  H    2.317697   3.884929   3.064169   1.099940   0.000000
    16  H    3.015382   4.260697   4.036730   1.102730   1.781244
    17  O    4.211342   5.492132   4.591792   1.433035   2.086463
    18  H    4.590219   6.051790   5.196108   1.975871   2.325525
                   16         17         18
    16  H    0.000000
    17  O    2.091944   0.000000
    18  H    2.366298   0.969116   0.000000
 Stoichiometry    C5H12O
 Framework group  C1[X(C5H12O)]
 Deg. of freedom    48
 Full point group                 C1      NOp   1
 Largest Abelian subgroup         C1      NOp   1
 Largest concise Abelian subgroup C1      NOp   1
                         Standard orientation:                         
 ---------------------------------------------------------------------
 Center     Atomic      Atomic             Coordinates (Angstroms)
 Number     Number       Type             X           Y           Z
 ---------------------------------------------------------------------
      1          6           0       -0.329999   -0.505125   -0.176702
      2          6           0        1.033465   -0.010419    0.341244
      3          1           0       -0.311493   -0.560122   -1.274616
      4          1           0       -0.509099   -1.526352    0.185531
      5          6           0        2.134837   -1.016993   -0.026009
      6          1           0        0.978855    0.042916    1.440441
      7          1           0        3.107661   -0.704678    0.373598
      8          1           0        1.911815   -2.015898    0.368921
      9          1           0        2.233589   -1.103108   -1.116627
     10          6           0        1.390054    1.390069   -0.185070
     11          1           0        0.677929    2.153396    0.149160
     12          1           0        2.385763    1.696101    0.159213
     13          1           0        1.399825    1.398461   -1.283818
     14          6           0       -1.519097    0.346451    0.250569
     15          1           0       -1.466596    1.347563   -0.202074
     16          1           0       -1.517790    0.468831    1.346486
     17          8           0       -2.708246   -0.329049   -0.177466
     18          1           0       -3.480047    0.211392    0.049320
 ---------------------------------------------------------------------
 Rotational constants (GHZ):           6.8112089           1.7207392           1.4722072
 Standard basis: 6-31+G(d) (6D, 7F)
 There are   138 symmetry adapted cartesian basis functions of A   symmetry.
 There are   138 symmetry adapted basis functions of A   symmetry.
   138 basis functions,   240 primitive gaussians,   138 cartesian basis functions
    25 alpha electrons       25 beta electrons
       nuclear repulsion energy       253.1558739081 Hartrees.
 NAtoms=   18 NActive=   18 NUniq=   18 SFac= 1.00D+00 NAtFMM=   60 NAOKFM=F Big=F
 Integral buffers will be    131072 words long.
 Raffenetti 2 integral format.
 Two-electron integral symmetry is turned on.
 Nuclear repulsion after empirical dispersion term =      253.1432199360 Hartrees.
 One-electron integrals computed using PRISM.
 NBasis=   138 RedAO= T EigKep=  3.40D-05  NBF=   138
 NBsUse=   138 1.00D-06 EigRej= -1.00D+00 NBFU=   138
 ExpMin= 4.38D-02 ExpMax= 5.48D+03 ExpMxC= 8.25D+02 IAcc=3 IRadAn=         5 AccDes= 0.00D+00
 Harris functional with IExCor=  402 and IRadAn=       5 diagonalized for initial guess.
 HarFok:  IExCor=  402 AccDes= 0.00D+00 IRadAn=         5 IDoV= 1 UseB2=F ITyADJ=14
 ICtDFT=  3500011 ScaDFX=  1.000000  1.000000  1.000000  1.000000
 FoFCou: FMM=F IPFlag=           0 FMFlag=      100000 FMFlg1=           0
         NFxFlg=           0 DoJE=T BraDBF=F KetDBF=T FulRan=T
         wScrn=  0.000000 ICntrl=       500 IOpCl=  0 I1Cent=   200000004 NGrid=           0
         NMat0=    1 NMatS0=      1 NMatT0=    0 NMatD0=    1 NMtDS0=    0 NMtDT0=    0
 Petite list used in FoFCou.
 Requested convergence on RMS density matrix=1.00D-08 within1000 cycles.
 Requested convergence on MAX density matrix=1.00D-06.
 Requested convergence on             energy=1.00D-06.
 No special actions if energy rises.
 SCF Done:  E(RB3LYP) =  -273.001187471     A.U. after   12 cycles
            NFock= 12  Conv=0.43D-08     -V/T= 2.0101

 **********************************************************************

            Population analysis using the SCF Density.

 **********************************************************************

 Orbital symmetries:
       Occupied  (A) (A) (A) (A) (A) (A) (A) (A) (A) (A) (A) (A)
                 (A) (A) (A) (A) (A) (A) (A) (A) (A) (A) (A) (A)
                 (A)
       Virtual   (A) (A) (A) (A) (A) (A) (A) (A) (A) (A) (A) (A)
                 (A) (A) (A) (A) (A) (A) (A) (A) (A) (A) (A) (A)
                 (A) (A) (A) (A) (A) (A) (A) (A) (A) (A) (A) (A)
                 (A) (A) (A) (A) (A) (A) (A) (A) (A) (A) (A) (A)
                 (A) (A) (A) (A) (A) (A) (A) (A) (A) (A) (A) (A)
                 (A) (A) (A) (A) (A) (A) (A) (A) (A) (A) (A) (A)
                 (A) (A) (A) (A) (A) (A) (A) (A) (A) (A) (A) (A)
                 (A) (A) (A) (A) (A) (A) (A) (A) (A) (A) (A) (A)
                 (A) (A) (A) (A) (A) (A) (A) (A) (A) (A) (A) (A)
                 (A) (A) (A) (A) (A)
 The electronic state is 1-A.
 Alpha  occ. eigenvalues --  -19.15676 -10.23498 -10.19552 -10.18090 -10.17897
 Alpha  occ. eigenvalues --  -10.17701  -1.02181  -0.81224  -0.72984  -0.68609
 Alpha  occ. eigenvalues --   -0.62332  -0.56403  -0.51491  -0.47787  -0.44878
 Alpha  occ. eigenvalues --   -0.43109  -0.42332  -0.38918  -0.38057  -0.36452
 Alpha  occ. eigenvalues --   -0.35036  -0.33028  -0.32620  -0.31982  -0.27748
 Alpha virt. eigenvalues --   -0.00183   0.01123   0.02592   0.02871   0.04413
 Alpha virt. eigenvalues --    0.05263   0.06156   0.06459   0.07308   0.08519
 Alpha virt. eigenvalues --    0.08920   0.10286   0.11167   0.11388   0.12095
 Alpha virt. eigenvalues --    0.12470   0.14561   0.15038   0.17769   0.18923
 Alpha virt. eigenvalues --    0.19715   0.20082   0.20957   0.21183   0.21908
 Alpha virt. eigenvalues --    0.23357   0.23875   0.24855   0.25978   0.26798
 Alpha virt. eigenvalues --    0.27724   0.28689   0.30134   0.31144   0.32255
 Alpha virt. eigenvalues --    0.33386   0.34021   0.35190   0.37281   0.39254
 Alpha virt. eigenvalues --    0.45988   0.60638   0.62158   0.63451   0.63957
 Alpha virt. eigenvalues --    0.66901   0.68164   0.69064   0.71908   0.73603
 Alpha virt. eigenvalues --    0.75745   0.77902   0.84365   0.87254   0.90530
 Alpha virt. eigenvalues --    0.91861   0.93767   0.98052   0.98946   1.01787
 Alpha virt. eigenvalues --    1.02020   1.03566   1.04300   1.09323   1.09565
 Alpha virt. eigenvalues --    1.11160   1.13177   1.14461   1.16607   1.24913
 Alpha virt. eigenvalues --    1.25315   1.32191   1.35393   1.41024   1.45058
 Alpha virt. eigenvalues --    1.47243   1.55606   1.60315   1.66220   1.69483
 Alpha virt. eigenvalues --    1.74136   1.76725   1.81012   1.85725   1.89442
 Alpha virt. eigenvalues --    1.92540   1.96169   2.00404   2.01546   2.05968
 Alpha virt. eigenvalues --    2.07866   2.09934   2.13978   2.21996   2.25806
 Alpha virt. eigenvalues --    2.27372   2.31660   2.35936   2.39825   2.47964
 Alpha virt. eigenvalues --    2.50760   2.54179   2.56446   2.68400   2.73605
 Alpha virt. eigenvalues --    2.81868   2.95925   4.09475   4.20263   4.30615
 Alpha virt. eigenvalues --    4.32999   4.48087   4.61255
          Condensed to atoms (all electrons):
               1          2          3          4          5          6
     1  C    7.043088  -0.332027   0.357056   0.352030   0.272008  -0.019480
     2  C   -0.332027   6.435355  -0.033054  -0.027657  -0.331405   0.315029
     3  H    0.357056  -0.033054   0.522318  -0.032413  -0.017763   0.005157
     4  H    0.352030  -0.027657  -0.032413   0.522839  -0.025652  -0.003880
     5  C    0.272008  -0.331405  -0.017763  -0.025652   6.134377  -0.006926
     6  H   -0.019480   0.315029   0.005157  -0.003880  -0.006926   0.578356
     7  H    0.020185  -0.075663  -0.000051   0.000050   0.417912  -0.003511
     8  H   -0.005025  -0.088402  -0.000299   0.003186   0.427549  -0.003592
     9  H   -0.000416  -0.092156   0.003007  -0.000372   0.438500   0.004963
    10  C   -0.273940   0.201566  -0.003054   0.013385  -0.309984  -0.034994
    11  H   -0.018879  -0.059327  -0.000102  -0.000041   0.008307  -0.003723
    12  H    0.013464  -0.060513  -0.000044  -0.000113  -0.018534  -0.002787
    13  H   -0.009246  -0.069930   0.003571   0.000006  -0.012909   0.005014
    14  C   -0.728263   0.188930  -0.012401  -0.007085  -0.238485  -0.013558
    15  H   -0.113181  -0.016836  -0.007177   0.005077  -0.012707  -0.000103
    16  H   -0.147423   0.028798   0.005004  -0.006197  -0.004871   0.003835
    17  O   -0.028395   0.034360   0.002583   0.001232  -0.007269  -0.000126
    18  H    0.064128  -0.003023  -0.000190  -0.000089   0.002257  -0.000004
               7          8          9         10         11         12
     1  C    0.020185  -0.005025  -0.000416  -0.273940  -0.018879   0.013464
     2  C   -0.075663  -0.088402  -0.092156   0.201566  -0.059327  -0.060513
     3  H   -0.000051  -0.000299   0.003007  -0.003054  -0.000102  -0.000044
     4  H    0.000050   0.003186  -0.000372   0.013385  -0.000041  -0.000113
     5  C    0.417912   0.427549   0.438500  -0.309984   0.008307  -0.018534
     6  H   -0.003511  -0.003592   0.004963  -0.034994  -0.003723  -0.002787
     7  H    0.518258  -0.027005  -0.031118  -0.018547   0.000031   0.003195
     8  H   -0.027005   0.514574  -0.030427   0.011998  -0.000138   0.000069
     9  H   -0.031118  -0.030427   0.513734  -0.013145  -0.000024  -0.000242
    10  C   -0.018547   0.011998  -0.013145   5.737393   0.410780   0.405551
    11  H    0.000031  -0.000138  -0.000024   0.410780   0.524068  -0.027614
    12  H    0.003195   0.000069  -0.000242   0.405551  -0.027614   0.516786
    13  H   -0.000110  -0.000033   0.003318   0.419519  -0.030952  -0.029538
    14  C   -0.002458  -0.002884  -0.002533   0.082707   0.003104   0.001591
    15  H    0.000003  -0.000001   0.000005   0.027183  -0.000434   0.000031
    16  H    0.000000  -0.000003   0.000001  -0.014215   0.000117  -0.000037
    17  O    0.000020  -0.000033  -0.000026   0.000108   0.000178   0.000005
    18  H    0.000000   0.000000   0.000000  -0.001706   0.000010   0.000000
              13         14         15         16         17         18
     1  C   -0.009246  -0.728263  -0.113181  -0.147423  -0.028395   0.064128
     2  C   -0.069930   0.188930  -0.016836   0.028798   0.034360  -0.003023
     3  H    0.003571  -0.012401  -0.007177   0.005004   0.002583  -0.000190
     4  H    0.000006  -0.007085   0.005077  -0.006197   0.001232  -0.000089
     5  C   -0.012909  -0.238485  -0.012707  -0.004871  -0.007269   0.002257
     6  H    0.005014  -0.013558  -0.000103   0.003835  -0.000126  -0.000004
     7  H   -0.000110  -0.002458   0.000003   0.000000   0.000020   0.000000
     8  H   -0.000033  -0.002884  -0.000001  -0.000003  -0.000033   0.000000
     9  H    0.003318  -0.002533   0.000005   0.000001  -0.000026   0.000000
    10  C    0.419519   0.082707   0.027183  -0.014215   0.000108  -0.001706
    11  H   -0.030952   0.003104  -0.000434   0.000117   0.000178   0.000010
    12  H   -0.029538   0.001591   0.000031  -0.000037   0.000005   0.000000
    13  H    0.511224   0.001283  -0.000037   0.000107  -0.000040   0.000000
    14  C    0.001283   5.885074   0.465650   0.489199   0.080005  -0.062671
    15  H   -0.000037   0.465650   0.593465  -0.057943  -0.053212  -0.004651
    16  H    0.000107   0.489199  -0.057943   0.590678  -0.058530  -0.003415
    17  O   -0.000040   0.080005  -0.053212  -0.058530   8.540922   0.164864
    18  H    0.000000  -0.062671  -0.004651  -0.003415   0.164864   0.377868
 Mulliken charges:
               1
     1  C   -0.445683
     2  C   -0.014046
     3  H    0.207852
     4  H    0.205694
     5  C   -0.714405
     6  H    0.180330
     7  H    0.198809
     8  H    0.200467
     9  H    0.206931
    10  C   -0.640604
    11  H    0.194638
    12  H    0.198731
    13  H    0.208753
    14  C   -0.127207
    15  H    0.174869
    16  H    0.174895
    17  O   -0.676644
    18  H    0.466621
 Sum of Mulliken charges =   0.00000
 Mulliken charges with hydrogens summed into heavy atoms:
               1
     1  C   -0.032137
     2  C    0.166283
     5  C   -0.108197
    10  C   -0.038483
    14  C    0.222557
    17  O   -0.210023
 Electronic spatial extent (au):  <R**2>=            855.3191
 Charge=              0.0000 electrons
 Dipole moment (field-independent basis, Debye):
    X=              0.1609    Y=              1.5103    Z=              0.8699  Tot=              1.7504
 Quadrupole moment (field-independent basis, Debye-Ang):
   XX=            -38.8353   YY=            -41.6204   ZZ=            -40.9493
   XY=             -4.8861   XZ=             -2.1842   YZ=             -0.2523
 Traceless Quadrupole moment (field-independent basis, Debye-Ang):
   XX=              1.6331   YY=             -1.1521   ZZ=             -0.4810
   XY=             -4.8861   XZ=             -2.1842   YZ=             -0.2523
 Octapole moment (field-independent basis, Debye-Ang**2):
  XXX=            -32.5314  YYY=             -1.4405  ZZZ=             -0.3796  XYY=             -3.9907
  XXY=             15.8649  XXZ=              7.6028  XZZ=             -2.5023  YZZ=             -0.1706
  YYZ=              0.8496  XYZ=              0.6317
 Hexadecapole moment (field-independent basis, Debye-Ang**3):
 XXXX=           -692.0980 YYYY=           -254.4107 ZZZZ=            -94.0929 XXXY=            -38.7673
 XXXZ=            -12.4940 YYYX=             -2.5595 YYYZ=             -1.3015 ZZZX=             -2.3139
 ZZZY=              0.0763 XXYY=           -184.4682 XXZZ=           -155.0118 YYZZ=            -59.3887
 XXYZ=              0.1815 YYXZ=              1.6412 ZZXY=             -0.5171
 N-N= 2.531432199360D+02 E-N=-1.140008013685D+03  KE= 2.702796712373D+02
 Evaluate density.
 Using the total density.
 Monte-Carlo method of calculating molar volume:
 based on  0.001 e/bohr**3 density envelope.
 Number of points per bohr**3 =   20 CutOff= 1.00D-04
 Using the SCF density.
 There are       343 points.  Will hold       343 in memory.
 LenV=  8321431248 MDV=  8321499136.
 Box volume = 5084.440 fraction occupied=0.233
 Integrated density= 6.0989714680369531D+01 error= 1.0989714680369531D+01
 Molar volume = 1185.875 bohr**3/mol (105.826 cm**3/mol)
 Recommended a0 for SCRF calculation =  4.32 angstrom (  8.17 bohr)
 Calling FoFJK, ICntrl=      2127 FMM=F ISym2X=0 I1Cent= 0 IOpClX= 0 NMat=1 NMatS=1 NMatT=0.
 ***** Axes restored to original set *****
 -------------------------------------------------------------------
 Center     Atomic                   Forces (Hartrees/Bohr)
 Number     Number              X              Y              Z
 -------------------------------------------------------------------
      1        6          -0.000021906   -0.000067733   -0.000006949
      2        6          -0.000073823    0.000087590    0.000002422
      3        1           0.000009785   -0.000015505   -0.000000250
      4        1           0.000028655   -0.000016749    0.000013409
      5        6           0.000009577   -0.000025312   -0.000003756
      6        1           0.000011489   -0.000000753    0.000002497
      7        1          -0.000003239    0.000020518    0.000005813
      8        1          -0.000028406    0.000009781   -0.000000826
      9        1           0.000005491   -0.000004532    0.000028332
     10        6           0.000017248   -0.000010125   -0.000010893
     11        1           0.000024145   -0.000015848   -0.000001112
     12        1           0.000008860   -0.000033306   -0.000028491
     13        1           0.000005664   -0.000009828   -0.000014943
     14        6           0.000015121    0.000063929    0.000002336
     15        1          -0.000012751   -0.000008410    0.000001992
     16        1          -0.000000168    0.000007052    0.000002658
     17        8           0.000021485    0.000024417   -0.000000951
     18        1          -0.000017226   -0.000005187    0.000008712
 -------------------------------------------------------------------
 Cartesian Forces:  Max     0.000087590 RMS     0.000024626

 GradGradGradGradGradGradGradGradGradGradGradGradGradGradGradGradGradGrad
 Berny optimization.
 FormGI is forming the generalized inverse of G from B-inverse, IUseBI=4.
 Internal  Forces:  Max     0.000128339 RMS     0.000027841
 Search for a local minimum.
 Step number   1 out of a maximum of   97
 All quantities printed in internal units (Hartrees-Bohrs-Radians)
 Mixed Optimization -- En-DIIS/RFO-DIIS
 Second derivative matrix not updated -- first step.
 ITU=  0
     Eigenvalues ---    0.00235   0.00263   0.00282   0.00452   0.01255
     Eigenvalues ---    0.03339   0.03443   0.04613   0.04773   0.04879
     Eigenvalues ---    0.05319   0.05375   0.05405   0.05492   0.05494
     Eigenvalues ---    0.05893   0.08655   0.11066   0.12433   0.13584
     Eigenvalues ---    0.16000   0.16000   0.16000   0.16000   0.16000
     Eigenvalues ---    0.16000   0.16000   0.16559   0.16994   0.21955
     Eigenvalues ---    0.21961   0.28506   0.28694   0.28824   0.30012
     Eigenvalues ---    0.33382   0.33479   0.33689   0.33743   0.33813
     Eigenvalues ---    0.33853   0.33874   0.34005   0.34006   0.34010
     Eigenvalues ---    0.34114   0.40556   0.53558
 RFO step:  Lambda=-2.57542438D-06 EMin= 2.34951043D-03
 Linear search not attempted -- first point.
 Iteration  1 RMS(Cart)=  0.00576433 RMS(Int)=  0.00001156
 Iteration  2 RMS(Cart)=  0.00001751 RMS(Int)=  0.00000006
 Iteration  3 RMS(Cart)=  0.00000000 RMS(Int)=  0.00000006
 Variable       Old X    -DE/DX   Delta X   Delta X   Delta X     New X
                                 (Linear)    (Quad)   (Total)
    R1        2.91045   0.00003   0.00000   0.00011   0.00011   2.91056
    R2        2.07765   0.00000   0.00000   0.00000   0.00000   2.07765
    R3        2.07543   0.00002   0.00000   0.00005   0.00005   2.07548
    R4        2.87940   0.00005   0.00000   0.00015   0.00015   2.87955
    R5        2.90372   0.00002   0.00000   0.00006   0.00006   2.90378
    R6        2.08218   0.00000   0.00000  -0.00001  -0.00001   2.08218
    R7        2.90645  -0.00009   0.00000  -0.00032  -0.00032   2.90613
    R8        2.07321   0.00001   0.00000   0.00002   0.00002   2.07323
    R9        2.07312  -0.00002   0.00000  -0.00004  -0.00004   2.07308
   R10        2.07579   0.00003   0.00000   0.00008   0.00008   2.07587
   R11        2.07138   0.00001   0.00000   0.00002   0.00002   2.07140
   R12        2.07321  -0.00001   0.00000  -0.00003  -0.00003   2.07319
   R13        2.07648  -0.00001   0.00000  -0.00004  -0.00004   2.07644
   R14        2.07858  -0.00001   0.00000  -0.00002  -0.00002   2.07856
   R15        2.08386   0.00000   0.00000   0.00000   0.00000   2.08385
   R16        2.70804   0.00000   0.00000  -0.00001  -0.00001   2.70804
   R17        1.83136  -0.00002   0.00000  -0.00004  -0.00004   1.83133
    A1        1.91452   0.00004   0.00000  -0.00007  -0.00007   1.91445
    A2        1.90935   0.00006   0.00000   0.00066   0.00066   1.91002
    A3        2.00100  -0.00013   0.00000  -0.00061  -0.00061   2.00039
    A4        1.86042  -0.00003   0.00000  -0.00007  -0.00006   1.86036
    A5        1.89770   0.00001   0.00000  -0.00038  -0.00038   1.89732
    A6        1.87541   0.00005   0.00000   0.00050   0.00050   1.87592
    A7        1.92170   0.00005   0.00000   0.00038   0.00038   1.92209
    A8        1.88300   0.00000   0.00000  -0.00005  -0.00005   1.88296
    A9        1.96346  -0.00004   0.00000  -0.00036  -0.00036   1.96310
   A10        1.88143   0.00000   0.00000   0.00037   0.00037   1.88180
   A11        1.92679  -0.00001   0.00000  -0.00002  -0.00002   1.92677
   A12        1.88472   0.00000   0.00000  -0.00031  -0.00031   1.88441
   A13        1.94125  -0.00003   0.00000  -0.00021  -0.00021   1.94104
   A14        1.94412   0.00004   0.00000   0.00029   0.00029   1.94441
   A15        1.93167  -0.00001   0.00000  -0.00006  -0.00006   1.93161
   A16        1.88425   0.00000   0.00000  -0.00001  -0.00001   1.88424
   A17        1.87994   0.00001   0.00000  -0.00005  -0.00005   1.87989
   A18        1.88002  -0.00001   0.00000   0.00004   0.00004   1.88006
   A19        1.95966  -0.00002   0.00000  -0.00017  -0.00017   1.95949
   A20        1.93589  -0.00005   0.00000  -0.00029  -0.00029   1.93560
   A21        1.92964   0.00000   0.00000   0.00000   0.00000   1.92964
   A22        1.87517   0.00004   0.00000   0.00019   0.00019   1.87536
   A23        1.88111   0.00001   0.00000   0.00006   0.00006   1.88116
   A24        1.87925   0.00003   0.00000   0.00024   0.00024   1.87949
   A25        1.93481  -0.00003   0.00000  -0.00024  -0.00024   1.93457
   A26        1.91748   0.00000   0.00000   0.00008   0.00008   1.91756
   A27        1.87589   0.00003   0.00000   0.00017   0.00017   1.87606
   A28        1.88379   0.00000   0.00000  -0.00004  -0.00004   1.88375
   A29        1.92380  -0.00001   0.00000  -0.00007  -0.00007   1.92373
   A30        1.92852  -0.00001   0.00000   0.00010   0.00010   1.92862
   A31        1.90508  -0.00001   0.00000  -0.00003  -0.00003   1.90504
    D1       -1.10214   0.00001   0.00000   0.00882   0.00882  -1.09333
    D2        3.13204  -0.00002   0.00000   0.00819   0.00819   3.14023
    D3        1.05501   0.00001   0.00000   0.00882   0.00882   1.06383
    D4        0.93276   0.00003   0.00000   0.00908   0.00908   0.94184
    D5       -1.11624   0.00000   0.00000   0.00845   0.00845  -1.10779
    D6        3.08991   0.00003   0.00000   0.00909   0.00909   3.09899
    D7        3.04040   0.00005   0.00000   0.00981   0.00981   3.05021
    D8        0.99140   0.00002   0.00000   0.00918   0.00918   1.00058
    D9       -1.08563   0.00005   0.00000   0.00981   0.00981  -1.07582
   D10        1.15290  -0.00002   0.00000  -0.00102  -0.00102   1.15188
   D11       -0.92768  -0.00001   0.00000  -0.00087  -0.00087  -0.92855
   D12       -3.02680  -0.00003   0.00000  -0.00113  -0.00113  -3.02794
   D13       -0.99680   0.00000   0.00000  -0.00020  -0.00020  -0.99700
   D14       -3.07737   0.00001   0.00000  -0.00005  -0.00006  -3.07743
   D15        1.10669   0.00000   0.00000  -0.00032  -0.00032   1.10637
   D16       -3.00404   0.00000   0.00000  -0.00020  -0.00020  -3.00424
   D17        1.19857   0.00002   0.00000  -0.00005  -0.00005   1.19852
   D18       -0.90056   0.00000   0.00000  -0.00031  -0.00031  -0.90087
   D19       -3.09706  -0.00003   0.00000  -0.00355  -0.00355  -3.10062
   D20       -0.99412  -0.00003   0.00000  -0.00351  -0.00351  -0.99763
   D21        1.09700  -0.00002   0.00000  -0.00331  -0.00331   1.09369
   D22       -1.04708  -0.00001   0.00000  -0.00318  -0.00318  -1.05027
   D23        1.05586   0.00000   0.00000  -0.00314  -0.00314   1.05272
   D24       -3.13621   0.00001   0.00000  -0.00294  -0.00294  -3.13915
   D25        1.00778  -0.00001   0.00000  -0.00335  -0.00335   1.00442
   D26        3.11072   0.00000   0.00000  -0.00331  -0.00331   3.10741
   D27       -1.08135   0.00001   0.00000  -0.00311  -0.00311  -1.08446
   D28        1.09183  -0.00002   0.00000  -0.00223  -0.00223   1.08960
   D29       -3.09310  -0.00003   0.00000  -0.00231  -0.00231  -3.09541
   D30       -1.00966  -0.00002   0.00000  -0.00219  -0.00219  -1.01185
   D31       -3.03704   0.00000   0.00000  -0.00201  -0.00201  -3.03905
   D32       -0.93879   0.00000   0.00000  -0.00208  -0.00208  -0.94087
   D33        1.14466   0.00001   0.00000  -0.00196  -0.00196   1.14270
   D34       -0.98420   0.00001   0.00000  -0.00176  -0.00176  -0.98596
   D35        1.11405   0.00000   0.00000  -0.00183  -0.00183   1.11222
   D36       -3.08569   0.00001   0.00000  -0.00172  -0.00172  -3.08740
   D37       -3.10000   0.00001   0.00000   0.00033   0.00033  -3.09967
   D38       -0.98958   0.00000   0.00000   0.00011   0.00011  -0.98946
   D39        1.09107  -0.00001   0.00000   0.00008   0.00008   1.09115
         Item               Value     Threshold  Converged?
 Maximum Force            0.000128     0.000450     YES
 RMS     Force            0.000028     0.000300     YES
 Maximum Displacement     0.017687     0.001800     NO 
 RMS     Displacement     0.005764     0.001200     NO 
 Predicted change in Energy=-1.287653D-06
 GradGradGradGradGradGradGradGradGradGradGradGradGradGradGradGradGradGrad

                          Input orientation:                          
 ---------------------------------------------------------------------
 Center     Atomic      Atomic             Coordinates (Angstroms)
 Number     Number       Type             X           Y           Z
 ---------------------------------------------------------------------
      1          6           0        0.330035   -0.508527    0.173391
      2          6           0       -1.033876   -0.012867   -0.342637
      3          1           0        0.310929   -0.569482    1.270980
      4          1           0        0.511502   -1.527459   -0.194165
      5          6           0       -2.136425   -1.016490    0.029269
      6          1           0       -0.981437    0.038371   -1.442036
      7          1           0       -3.110050   -0.701196   -0.366057
      8          1           0       -1.918175   -2.016013   -0.366695
      9          1           0       -2.230714   -1.102358    1.120346
     10          6           0       -1.386521    1.389299    0.181367
     11          1           0       -0.672417    2.150047   -0.154543
     12          1           0       -2.381545    1.697121   -0.163253
     13          1           0       -1.395788    1.399606    1.280082
     14          6           0        1.517537    0.348362   -0.247943
     15          1           0        1.461826    1.346782    0.210200
     16          1           0        1.517108    0.476880   -1.343157
     17          8           0        2.708021   -0.326246    0.177768
     18          1           0        3.478566    0.217606   -0.045019
 ---------------------------------------------------------------------
                    Distance matrix (angstroms):
                    1          2          3          4          5
     1  C    0.000000
     2  C    1.540201   0.000000
     3  H    1.099446   2.173035   0.000000
     4  H    1.098294   2.168924   1.761987   0.000000
     5  C    2.522345   1.536616   2.780504   2.706018   0.000000
     6  H    2.151433   1.101841   3.065967   2.497574   2.147433
     7  H    3.487450   2.187428   3.794777   3.718588   1.097104
     8  H    2.760192   2.189786   3.121432   2.484308   1.097027
     9  H    2.794063   2.181681   2.601268   3.070569   1.098504
    10  C    2.558978   1.537858   2.811657   3.500142   2.524542
    11  H    2.860151   2.200960   3.224116   3.863585   3.493431
    12  H    3.511535   2.184593   3.800517   4.332274   2.731452
    13  H    2.800750   2.181577   2.605815   3.791948   2.819680
    14  C    1.523792   2.578597   2.146035   2.129249   3.910384
    15  H    2.173587   2.895307   2.474245   3.054160   4.308736
    16  H    2.163351   2.783597   3.063242   2.519683   4.178757
    17  O    2.384966   3.790887   2.645813   2.530996   4.895625
    18  H    3.238552   4.528115   3.519273   3.445427   5.749490
                    6          7          8          9         10
     6  H    0.000000
     7  H    2.497135   0.000000
     8  H    2.500866   1.774630   0.000000
     9  H    3.070465   1.773008   1.773059   0.000000
    10  C    2.150473   2.764126   3.489868   2.793331   0.000000
    11  H    2.492449   3.757176   4.353502   3.825149   1.096137
    12  H    2.519333   2.514711   3.747461   3.083417   1.097083
    13  H    3.071575   3.172039   3.827691   2.642431   1.098803
    14  C    2.786902   4.746586   4.172348   4.245725   3.114708
    15  H    3.226664   5.042652   4.802667   4.523440   2.848810
    16  H    2.538661   4.873723   4.355361   4.754893   3.404078
    17  O    4.045839   5.855448   4.955143   5.087426   4.439412
    18  H    4.677115   6.660114   5.849560   5.974634   5.009309
                   11         12         13         14         15
    11  H    0.000000
    12  H    1.768145   0.000000
    13  H    1.773296   1.772977   0.000000
    14  C    2.837374   4.126641   3.453613   0.000000
    15  H    2.309386   3.877333   3.051786   1.099928   0.000000
    16  H    3.001052   4.252136   4.027130   1.102728   1.781208
    17  O    4.203548   5.487622   4.586383   1.433031   2.086403
    18  H    4.580063   6.045150   5.187711   1.975831   2.325384
                   16         17         18
    16  H    0.000000
    17  O    2.092008   0.000000
    18  H    2.366368   0.969097   0.000000
 Stoichiometry    C5H12O
 Framework group  C1[X(C5H12O)]
 Deg. of freedom    48
 Full point group                 C1      NOp   1
 Largest Abelian subgroup         C1      NOp   1
 Largest concise Abelian subgroup C1      NOp   1
                         Standard orientation:                         
 ---------------------------------------------------------------------
 Center     Atomic      Atomic             Coordinates (Angstroms)
 Number     Number       Type             X           Y           Z
 ---------------------------------------------------------------------
      1          6           0       -0.329422   -0.509285   -0.172516
      2          6           0        1.033977   -0.010758    0.342102
      3          1           0       -0.310601   -0.572313   -1.269993
      4          1           0       -0.509361   -1.527761    0.197049
      5          6           0        2.137784   -1.013571   -0.028258
      6          1           0        0.981837    0.042510    1.441418
      7          1           0        3.111106   -0.696179    0.366135
      8          1           0        1.921046   -2.012634    0.369692
      9          1           0        2.231825   -1.101396   -1.119200
     10          6           0        1.384512    1.390887   -0.184703
     11          1           0        0.669472    2.151291    0.149993
     12          1           0        2.379226    1.700739    0.158991
     13          1           0        1.393396    1.399105   -1.283439
     14          6           0       -1.517963    0.346771    0.247580
     15          1           0       -1.463784    1.344389   -0.212490
     16          1           0       -1.517344    0.477384    1.342545
     17          8           0       -2.707659   -0.330291   -0.176437
     18          1           0       -3.478878    0.212924    0.045570
 ---------------------------------------------------------------------
 Rotational constants (GHZ):           6.8146832           1.7218307           1.4727793
 Standard basis: 6-31+G(d) (6D, 7F)
 There are   138 symmetry adapted cartesian basis functions of A   symmetry.
 There are   138 symmetry adapted basis functions of A   symmetry.
   138 basis functions,   240 primitive gaussians,   138 cartesian basis functions
    25 alpha electrons       25 beta electrons
       nuclear repulsion energy       253.1868323882 Hartrees.
 NAtoms=   18 NActive=   18 NUniq=   18 SFac= 1.00D+00 NAtFMM=   60 NAOKFM=F Big=F
 Integral buffers will be    131072 words long.
 Raffenetti 2 integral format.
 Two-electron integral symmetry is turned on.
 Nuclear repulsion after empirical dispersion term =      253.1741729108 Hartrees.
 One-electron integrals computed using PRISM.
 NBasis=   138 RedAO= T EigKep=  3.38D-05  NBF=   138
 NBsUse=   138 1.00D-06 EigRej= -1.00D+00 NBFU=   138
 Initial guess from the checkpoint file:  "MOLECULE_4-vol.chk"
 B after Tr=     0.000000    0.000000    0.000000
         Rot=    1.000000    0.000649   -0.000131   -0.000581 Ang=   0.10 deg.
 Requested convergence on RMS density matrix=1.00D-08 within1000 cycles.
 Requested convergence on MAX density matrix=1.00D-06.
 Requested convergence on             energy=1.00D-06.
 No special actions if energy rises.
 SCF Done:  E(RB3LYP) =  -273.001187627     A.U. after    8 cycles
            NFock=  8  Conv=0.58D-08     -V/T= 2.0101
 Calling FoFJK, ICntrl=      2127 FMM=F ISym2X=0 I1Cent= 0 IOpClX= 0 NMat=1 NMatS=1 NMatT=0.
 ***** Axes restored to original set *****
 -------------------------------------------------------------------
 Center     Atomic                   Forces (Hartrees/Bohr)
 Number     Number              X              Y              Z
 -------------------------------------------------------------------
      1        6          -0.000004178   -0.000004742    0.000016237
      2        6          -0.000016049    0.000036640    0.000000012
      3        1           0.000004042    0.000004954    0.000010763
      4        1          -0.000019741   -0.000001003    0.000007160
      5        6           0.000033716   -0.000004683   -0.000016639
      6        1           0.000008621   -0.000016893    0.000001738
      7        1           0.000001207   -0.000005495   -0.000011869
      8        1           0.000008974   -0.000005289    0.000004678
      9        1           0.000003188    0.000009064   -0.000005769
     10        6          -0.000029145    0.000024417    0.000005747
     11        1          -0.000049467    0.000001140   -0.000004699
     12        1           0.000000048   -0.000009754    0.000001683
     13        1           0.000003510    0.000013168    0.000006272
     14        6           0.000037768   -0.000003294    0.000002257
     15        1           0.000021451   -0.000043747    0.000003455
     16        1           0.000004017    0.000008077   -0.000009993
     17        8          -0.000004133   -0.000003699   -0.000013445
     18        1          -0.000003827    0.000001140    0.000002411
 -------------------------------------------------------------------
 Cartesian Forces:  Max     0.000049467 RMS     0.000015661

 GradGradGradGradGradGradGradGradGradGradGradGradGradGradGradGradGradGrad
 Berny optimization.
 Using GEDIIS/GDIIS optimizer.
 FormGI is forming the generalized inverse of G from B-inverse, IUseBI=4.
 Internal  Forces:  Max     0.000129163 RMS     0.000031409
 Search for a local minimum.
 Step number   2 out of a maximum of   97
 All quantities printed in internal units (Hartrees-Bohrs-Radians)
 Mixed Optimization -- En-DIIS/RFO-DIIS
 Swapping is turned off.
 Update second derivatives using D2CorX and points    1    2
 DE= -1.57D-07 DEPred=-1.29D-06 R= 1.22D-01
 Trust test= 1.22D-01 RLast= 2.96D-02 DXMaxT set to 3.00D-01
 ITU=  0  0
     Eigenvalues ---    0.00239   0.00276   0.00324   0.00511   0.01254
     Eigenvalues ---    0.03427   0.03484   0.04721   0.04799   0.05009
     Eigenvalues ---    0.05332   0.05372   0.05405   0.05490   0.05507
     Eigenvalues ---    0.05911   0.08653   0.11072   0.12426   0.13576
     Eigenvalues ---    0.15838   0.16000   0.16000   0.16000   0.16000
     Eigenvalues ---    0.16000   0.16027   0.16891   0.17672   0.21948
     Eigenvalues ---    0.23446   0.28402   0.28769   0.29105   0.29956
     Eigenvalues ---    0.33386   0.33479   0.33707   0.33746   0.33819
     Eigenvalues ---    0.33860   0.33878   0.34001   0.34006   0.34012
     Eigenvalues ---    0.34165   0.40557   0.53550
 En-DIIS/RFO-DIIS/Sim-DIIS IScMMF=       -3 using points:     2    1
 RFO step:  Lambda=-1.00218843D-06.
 DidBck=T Rises=F RFO-DIIS coefs:    0.67973    0.32027
 Iteration  1 RMS(Cart)=  0.00198890 RMS(Int)=  0.00000115
 Iteration  2 RMS(Cart)=  0.00000206 RMS(Int)=  0.00000001
 Iteration  3 RMS(Cart)=  0.00000000 RMS(Int)=  0.00000001
 Variable       Old X    -DE/DX   Delta X   Delta X   Delta X     New X
                                 (Linear)    (Quad)   (Total)
    R1        2.91056   0.00005  -0.00004   0.00014   0.00011   2.91067
    R2        2.07765   0.00001   0.00000   0.00002   0.00002   2.07767
    R3        2.07548   0.00000  -0.00002   0.00001   0.00000   2.07547
    R4        2.87955   0.00002  -0.00005   0.00011   0.00006   2.87961
    R5        2.90378  -0.00004  -0.00002  -0.00005  -0.00007   2.90371
    R6        2.08218   0.00000   0.00000  -0.00001   0.00000   2.08217
    R7        2.90613   0.00005   0.00010  -0.00003   0.00007   2.90620
    R8        2.07323   0.00000  -0.00001   0.00001   0.00001   2.07323
    R9        2.07308   0.00000   0.00001  -0.00001   0.00000   2.07308
   R10        2.07587  -0.00001  -0.00003   0.00002   0.00000   2.07587
   R11        2.07140  -0.00003   0.00000  -0.00004  -0.00005   2.07135
   R12        2.07319   0.00000   0.00001  -0.00002  -0.00001   2.07318
   R13        2.07644   0.00001   0.00001   0.00000   0.00001   2.07645
   R14        2.07856  -0.00004   0.00001  -0.00008  -0.00007   2.07849
   R15        2.08385   0.00001   0.00000   0.00002   0.00002   2.08387
   R16        2.70804  -0.00001   0.00000  -0.00002  -0.00001   2.70802
   R17        1.83133   0.00000   0.00001  -0.00002  -0.00001   1.83132
    A1        1.91445  -0.00002   0.00002   0.00012   0.00014   1.91459
    A2        1.91002  -0.00006  -0.00021  -0.00012  -0.00033   1.90969
    A3        2.00039   0.00013   0.00019   0.00013   0.00033   2.00072
    A4        1.86036   0.00002   0.00002  -0.00010  -0.00008   1.86028
    A5        1.89732  -0.00003   0.00012  -0.00003   0.00009   1.89742
    A6        1.87592  -0.00004  -0.00016  -0.00003  -0.00019   1.87573
    A7        1.92209  -0.00008  -0.00012  -0.00017  -0.00030   1.92179
    A8        1.88296  -0.00002   0.00001  -0.00010  -0.00009   1.88287
    A9        1.96310   0.00012   0.00012   0.00039   0.00050   1.96361
   A10        1.88180   0.00002  -0.00012  -0.00007  -0.00019   1.88161
   A11        1.92677  -0.00003   0.00001  -0.00008  -0.00007   1.92670
   A12        1.88441  -0.00001   0.00010   0.00002   0.00012   1.88452
   A13        1.94104   0.00000   0.00007  -0.00007   0.00000   1.94104
   A14        1.94441   0.00000  -0.00009   0.00009   0.00000   1.94441
   A15        1.93161  -0.00001   0.00002  -0.00006  -0.00004   1.93157
   A16        1.88424   0.00000   0.00000   0.00000   0.00001   1.88425
   A17        1.87989   0.00001   0.00002   0.00002   0.00003   1.87992
   A18        1.88006   0.00001  -0.00001   0.00002   0.00001   1.88007
   A19        1.95949   0.00004   0.00005   0.00007   0.00013   1.95962
   A20        1.93560  -0.00002   0.00009  -0.00023  -0.00014   1.93547
   A21        1.92964   0.00001   0.00000   0.00008   0.00008   1.92972
   A22        1.87536  -0.00002  -0.00006  -0.00003  -0.00009   1.87527
   A23        1.88116  -0.00001  -0.00002   0.00005   0.00003   1.88119
   A24        1.87949   0.00000  -0.00008   0.00006  -0.00001   1.87948
   A25        1.93457   0.00001   0.00008  -0.00005   0.00003   1.93460
   A26        1.91756   0.00001  -0.00003   0.00008   0.00005   1.91761
   A27        1.87606  -0.00001  -0.00005   0.00003  -0.00003   1.87603
   A28        1.88375   0.00000   0.00001   0.00003   0.00005   1.88380
   A29        1.92373   0.00000   0.00002  -0.00007  -0.00005   1.92368
   A30        1.92862  -0.00001  -0.00003  -0.00002  -0.00005   1.92856
   A31        1.90504   0.00000   0.00001  -0.00003  -0.00002   1.90503
    D1       -1.09333   0.00000  -0.00282   0.00027  -0.00256  -1.09588
    D2        3.14023   0.00003  -0.00262   0.00051  -0.00212   3.13811
    D3        1.06383  -0.00001  -0.00283   0.00032  -0.00251   1.06132
    D4        0.94184  -0.00003  -0.00291   0.00015  -0.00276   0.93908
    D5       -1.10779   0.00001  -0.00271   0.00038  -0.00232  -1.11011
    D6        3.09899  -0.00004  -0.00291   0.00020  -0.00271   3.09628
    D7        3.05021  -0.00003  -0.00314   0.00011  -0.00303   3.04718
    D8        1.00058   0.00000  -0.00294   0.00035  -0.00259   0.99799
    D9       -1.07582  -0.00005  -0.00314   0.00017  -0.00298  -1.07880
   D10        1.15188   0.00004   0.00033   0.00144   0.00176   1.15364
   D11       -0.92855   0.00003   0.00028   0.00137   0.00165  -0.92689
   D12       -3.02794   0.00003   0.00036   0.00134   0.00170  -3.02623
   D13       -0.99700   0.00000   0.00006   0.00121   0.00127  -0.99573
   D14       -3.07743  -0.00001   0.00002   0.00114   0.00116  -3.07627
   D15        1.10637  -0.00001   0.00010   0.00111   0.00121   1.10758
   D16       -3.00424   0.00001   0.00006   0.00135   0.00142  -3.00282
   D17        1.19852   0.00000   0.00002   0.00129   0.00131   1.19983
   D18       -0.90087   0.00001   0.00010   0.00126   0.00136  -0.89951
   D19       -3.10062   0.00005   0.00114  -0.00008   0.00106  -3.09956
   D20       -0.99763   0.00005   0.00113  -0.00006   0.00106  -0.99657
   D21        1.09369   0.00005   0.00106  -0.00002   0.00104   1.09473
   D22       -1.05027  -0.00001   0.00102  -0.00034   0.00068  -1.04959
   D23        1.05272  -0.00001   0.00101  -0.00032   0.00069   1.05340
   D24       -3.13915  -0.00001   0.00094  -0.00027   0.00067  -3.13848
   D25        1.00442  -0.00003   0.00107  -0.00040   0.00067   1.00509
   D26        3.10741  -0.00003   0.00106  -0.00039   0.00068   3.10808
   D27       -1.08446  -0.00003   0.00100  -0.00034   0.00066  -1.08380
   D28        1.08960   0.00005   0.00072   0.00141   0.00213   1.09172
   D29       -3.09541   0.00004   0.00074   0.00127   0.00201  -3.09340
   D30       -1.01185   0.00003   0.00070   0.00125   0.00195  -1.00989
   D31       -3.03905   0.00000   0.00064   0.00141   0.00206  -3.03699
   D32       -0.94087  -0.00001   0.00067   0.00127   0.00194  -0.93893
   D33        1.14270  -0.00001   0.00063   0.00125   0.00188   1.14458
   D34       -0.98596   0.00000   0.00056   0.00130   0.00186  -0.98410
   D35        1.11222  -0.00001   0.00059   0.00115   0.00174   1.11396
   D36       -3.08740  -0.00001   0.00055   0.00113   0.00168  -3.08572
   D37       -3.09967   0.00000  -0.00011   0.00014   0.00004  -3.09963
   D38       -0.98946   0.00000  -0.00004   0.00006   0.00003  -0.98944
   D39        1.09115   0.00000  -0.00003   0.00004   0.00002   1.09117
         Item               Value     Threshold  Converged?
 Maximum Force            0.000129     0.000450     YES
 RMS     Force            0.000031     0.000300     YES
 Maximum Displacement     0.006056     0.001800     NO 
 RMS     Displacement     0.001989     0.001200     NO 
 Predicted change in Energy=-5.011211D-07
 GradGradGradGradGradGradGradGradGradGradGradGradGradGradGradGradGradGrad

                          Input orientation:                          
 ---------------------------------------------------------------------
 Center     Atomic      Atomic             Coordinates (Angstroms)
 Number     Number       Type             X           Y           Z
 ---------------------------------------------------------------------
      1          6           0        0.330062   -0.507336    0.174639
      2          6           0       -1.033708   -0.011923   -0.342172
      3          1           0        0.311067   -0.566687    1.272326
      4          1           0        0.510740   -1.526959   -0.191381
      5          6           0       -2.135746   -1.016604    0.028240
      6          1           0       -0.980430    0.039713   -1.441509
      7          1           0       -3.109136   -0.702290   -0.368447
      8          1           0       -1.915952   -2.015928   -0.367377
      9          1           0       -2.231417   -1.102502    1.119191
     10          6           0       -1.388116    1.389714    0.182171
     11          1           0       -0.675622    2.151679   -0.154312
     12          1           0       -2.383904    1.695868   -0.161710
     13          1           0       -1.396592    1.400044    1.280898
     14          6           0        1.518294    0.347823   -0.248259
     15          1           0        1.464331    1.346521    0.209399
     16          1           0        1.517110    0.475727   -1.343554
     17          8           0        2.708278   -0.328090    0.176756
     18          1           0        3.479313    0.214664   -0.046999
 ---------------------------------------------------------------------
                    Distance matrix (angstroms):
                    1          2          3          4          5
     1  C    0.000000
     2  C    1.540258   0.000000
     3  H    1.099454   2.173197   0.000000
     4  H    1.098293   2.168730   1.761939   0.000000
     5  C    2.522101   1.536579   2.781559   2.704179   0.000000
     6  H    2.151415   1.101838   3.066038   2.498173   2.147259
     7  H    3.487268   2.187396   3.795829   3.716845   1.097107
     8  H    2.759386   2.189755   3.122265   2.481713   1.097029
     9  H    2.794204   2.181617   2.602839   3.068744   1.098502
    10  C    2.559490   1.537897   2.811257   3.500310   2.524482
    11  H    2.861812   2.201066   3.224650   3.865386   3.493323
    12  H    3.511816   2.184524   3.799801   4.332027   2.730415
    13  H    2.800579   2.181672   2.604651   3.791157   2.820583
    14  C    1.523822   2.578944   2.146137   2.129133   3.910258
    15  H    2.173606   2.896515   2.473904   3.053989   4.310190
    16  H    2.163425   2.783387   3.063331   2.520126   4.177586
    17  O    2.384963   3.791004   2.646474   2.530215   4.894965
    18  H    3.238548   4.528336   3.519789   3.444782   5.748962
                    6          7          8          9         10
     6  H    0.000000
     7  H    2.496682   0.000000
     8  H    2.500924   1.774637   0.000000
     9  H    3.070311   1.773028   1.773063   0.000000
    10  C    2.150593   2.764339   3.489844   2.792902   0.000000
    11  H    2.492024   3.756725   4.353478   3.825180   1.096111
    12  H    2.520015   2.513934   3.746827   3.081369   1.097078
    13  H    3.071676   3.173792   3.828239   2.643069   1.098808
    14  C    2.786108   4.746609   4.170798   4.246609   3.117375
    15  H    3.226469   5.044615   4.802609   4.525924   2.852904
    16  H    2.537205   4.872444   4.352836   4.754721   3.406398
    17  O    4.044828   5.854877   4.952614   5.088073   4.441995
    18  H    4.675957   6.659715   5.846971   5.975564   5.012497
                   11         12         13         14         15
    11  H    0.000000
    12  H    1.768063   0.000000
    13  H    1.773297   1.772968   0.000000
    14  C    2.841829   4.129390   3.455728   0.000000
    15  H    2.315160   3.881840   3.055464   1.099891   0.000000
    16  H    3.005193   4.254810   4.028868   1.102738   1.781216
    17  O    4.208282   5.490108   4.588632   1.433024   2.086334
    18  H    4.585524   6.048507   5.190654   1.975812   2.325294
                   16         17         18
    16  H    0.000000
    17  O    2.091972   0.000000
    18  H    2.366316   0.969094   0.000000
 Stoichiometry    C5H12O
 Framework group  C1[X(C5H12O)]
 Deg. of freedom    48
 Full point group                 C1      NOp   1
 Largest Abelian subgroup         C1      NOp   1
 Largest concise Abelian subgroup C1      NOp   1
                         Standard orientation:                         
 ---------------------------------------------------------------------
 Center     Atomic      Atomic             Coordinates (Angstroms)
 Number     Number       Type             X           Y           Z
 ---------------------------------------------------------------------
      1          6           0       -0.329743   -0.507709   -0.174095
      2          6           0        1.033783   -0.010648    0.341777
      3          1           0       -0.310896   -0.568610   -1.271699
      4          1           0       -0.509675   -1.526930    0.193408
      5          6           0        2.136430   -1.015116   -0.027394
      6          1           0        0.980658    0.042518    1.441049
      7          1           0        3.109678   -0.699586    0.368678
      8          1           0        1.917374   -2.014024    0.369683
      9          1           0        2.231973   -1.102503   -1.118239
     10          6           0        1.387162    1.390478   -0.184622
     11          1           0        0.674216    2.152445    0.150899
     12          1           0        2.382804    1.697788    0.158653
     13          1           0        1.395444    1.399250   -1.283364
     14          6           0       -1.518475    0.347255    0.247790
     15          1           0       -1.465260    1.345337   -0.211298
     16          1           0       -1.517190    0.476719    1.342902
     17          8           0       -2.708079   -0.330058   -0.176058
     18          1           0       -3.479439    0.212497    0.047056
 ---------------------------------------------------------------------
 Rotational constants (GHZ):           6.8134072           1.7213132           1.4723773
 Standard basis: 6-31+G(d) (6D, 7F)
 There are   138 symmetry adapted cartesian basis functions of A   symmetry.
 There are   138 symmetry adapted basis functions of A   symmetry.
   138 basis functions,   240 primitive gaussians,   138 cartesian basis functions
    25 alpha electrons       25 beta electrons
       nuclear repulsion energy       253.1697214288 Hartrees.
 NAtoms=   18 NActive=   18 NUniq=   18 SFac= 1.00D+00 NAtFMM=   60 NAOKFM=F Big=F
 Integral buffers will be    131072 words long.
 Raffenetti 2 integral format.
 Two-electron integral symmetry is turned on.
 Nuclear repulsion after empirical dispersion term =      253.1570643385 Hartrees.
 One-electron integrals computed using PRISM.
 NBasis=   138 RedAO= T EigKep=  3.38D-05  NBF=   138
 NBsUse=   138 1.00D-06 EigRej= -1.00D+00 NBFU=   138
 Initial guess from the checkpoint file:  "MOLECULE_4-vol.chk"
 B after Tr=     0.000000    0.000000    0.000000
         Rot=    1.000000   -0.000136    0.000042    0.000282 Ang=  -0.04 deg.
 Requested convergence on RMS density matrix=1.00D-08 within1000 cycles.
 Requested convergence on MAX density matrix=1.00D-06.
 Requested convergence on             energy=1.00D-06.
 No special actions if energy rises.
 SCF Done:  E(RB3LYP) =  -273.001188199     A.U. after    8 cycles
            NFock=  8  Conv=0.17D-08     -V/T= 2.0101
 Calling FoFJK, ICntrl=      2127 FMM=F ISym2X=0 I1Cent= 0 IOpClX= 0 NMat=1 NMatS=1 NMatT=0.
 ***** Axes restored to original set *****
 -------------------------------------------------------------------
 Center     Atomic                   Forces (Hartrees/Bohr)
 Number     Number              X              Y              Z
 -------------------------------------------------------------------
      1        6          -0.000002647    0.000000600   -0.000000664
      2        6           0.000001528    0.000008700   -0.000002916
      3        1          -0.000006223    0.000005827    0.000002159
      4        1          -0.000003546    0.000001697    0.000001285
      5        6           0.000003446   -0.000009953    0.000004576
      6        1           0.000010726   -0.000003315    0.000000049
      7        1          -0.000000594   -0.000005405   -0.000002941
      8        1           0.000002248   -0.000001209    0.000003422
      9        1          -0.000002611    0.000000802   -0.000001791
     10        6           0.000004965   -0.000004386    0.000004913
     11        1           0.000006467    0.000000856   -0.000002738
     12        1          -0.000000240   -0.000001581   -0.000003147
     13        1          -0.000001768    0.000003975   -0.000001594
     14        6          -0.000000679    0.000001019   -0.000007723
     15        1          -0.000007907    0.000003475    0.000005716
     16        1          -0.000002621    0.000002258    0.000000164
     17        8          -0.000000999   -0.000006452   -0.000003185
     18        1           0.000000454    0.000003091    0.000004413
 -------------------------------------------------------------------
 Cartesian Forces:  Max     0.000010726 RMS     0.000004146

 GradGradGradGradGradGradGradGradGradGradGradGradGradGradGradGradGradGrad
 Berny optimization.
 Using GEDIIS/GDIIS optimizer.
 FormGI is forming the generalized inverse of G from B-inverse, IUseBI=4.
 Internal  Forces:  Max     0.000025951 RMS     0.000005202
 Search for a local minimum.
 Step number   3 out of a maximum of   97
 All quantities printed in internal units (Hartrees-Bohrs-Radians)
 Mixed Optimization -- En-DIIS/RFO-DIIS
 Swapping is turned off.
 Update second derivatives using D2CorX and points    1    2    3
 DE= -5.72D-07 DEPred=-5.01D-07 R= 1.14D+00
 Trust test= 1.14D+00 RLast= 1.10D-02 DXMaxT set to 3.00D-01
 ITU=  0  0  0
     Eigenvalues ---    0.00235   0.00288   0.00328   0.00451   0.01253
     Eigenvalues ---    0.03426   0.03464   0.04731   0.04847   0.04993
     Eigenvalues ---    0.05337   0.05373   0.05405   0.05494   0.05514
     Eigenvalues ---    0.05922   0.08663   0.11096   0.12404   0.13542
     Eigenvalues ---    0.15824   0.16000   0.16000   0.16000   0.16000
     Eigenvalues ---    0.16012   0.16035   0.17001   0.17692   0.21964
     Eigenvalues ---    0.24000   0.28663   0.28771   0.29581   0.30327
     Eigenvalues ---    0.33384   0.33479   0.33741   0.33787   0.33829
     Eigenvalues ---    0.33862   0.33876   0.33999   0.34006   0.34012
     Eigenvalues ---    0.34329   0.40565   0.53552
 En-DIIS/RFO-DIIS/Sim-DIIS IScMMF=       -3 using points:     3    2    1
 RFO step:  Lambda=-4.16512633D-08.
 DidBck=F Rises=F RFO-DIIS coefs:    1.04305   -0.04422    0.00117
 Iteration  1 RMS(Cart)=  0.00042921 RMS(Int)=  0.00000014
 Iteration  2 RMS(Cart)=  0.00000015 RMS(Int)=  0.00000000
 Variable       Old X    -DE/DX   Delta X   Delta X   Delta X     New X
                                 (Linear)    (Quad)   (Total)
    R1        2.91067  -0.00003   0.00000  -0.00008  -0.00008   2.91059
    R2        2.07767   0.00000   0.00000   0.00000   0.00000   2.07767
    R3        2.07547   0.00000   0.00000   0.00000   0.00000   2.07547
    R4        2.87961  -0.00001   0.00000  -0.00002  -0.00002   2.87959
    R5        2.90371   0.00001   0.00000   0.00003   0.00003   2.90374
    R6        2.08217   0.00000   0.00000   0.00000   0.00000   2.08217
    R7        2.90620   0.00000   0.00000  -0.00001  -0.00001   2.90620
    R8        2.07323   0.00000   0.00000   0.00000   0.00000   2.07323
    R9        2.07308   0.00000   0.00000   0.00000   0.00000   2.07308
   R10        2.07587   0.00000   0.00000   0.00000   0.00000   2.07587
   R11        2.07135   0.00001   0.00000   0.00001   0.00001   2.07136
   R12        2.07318   0.00000   0.00000   0.00000   0.00000   2.07317
   R13        2.07645   0.00000   0.00000   0.00000   0.00000   2.07645
   R14        2.07849   0.00001   0.00000   0.00001   0.00001   2.07850
   R15        2.08387   0.00000   0.00000   0.00000   0.00000   2.08388
   R16        2.70802   0.00000   0.00000   0.00000   0.00000   2.70803
   R17        1.83132   0.00000   0.00000   0.00000   0.00000   1.83132
    A1        1.91459   0.00000   0.00001   0.00000   0.00001   1.91460
    A2        1.90969   0.00000  -0.00001  -0.00003  -0.00005   1.90964
    A3        2.00072  -0.00002   0.00001  -0.00009  -0.00007   2.00064
    A4        1.86028   0.00000   0.00000   0.00004   0.00004   1.86032
    A5        1.89742   0.00001   0.00000   0.00003   0.00004   1.89745
    A6        1.87573   0.00001  -0.00001   0.00006   0.00005   1.87577
    A7        1.92179  -0.00001  -0.00001  -0.00005  -0.00006   1.92173
    A8        1.88287   0.00000   0.00000  -0.00012  -0.00012   1.88275
    A9        1.96361  -0.00001   0.00002  -0.00004  -0.00002   1.96359
   A10        1.88161   0.00000  -0.00001   0.00006   0.00005   1.88167
   A11        1.92670   0.00001   0.00000   0.00011   0.00010   1.92681
   A12        1.88452   0.00000   0.00001   0.00004   0.00005   1.88457
   A13        1.94104   0.00000   0.00000   0.00002   0.00002   1.94106
   A14        1.94441   0.00000   0.00000   0.00000   0.00000   1.94440
   A15        1.93157   0.00000   0.00000   0.00001   0.00001   1.93157
   A16        1.88425   0.00000   0.00000  -0.00001  -0.00001   1.88424
   A17        1.87992   0.00000   0.00000   0.00000   0.00000   1.87992
   A18        1.88007   0.00000   0.00000  -0.00001  -0.00001   1.88006
   A19        1.95962  -0.00001   0.00001  -0.00004  -0.00004   1.95958
   A20        1.93547   0.00000  -0.00001  -0.00001  -0.00002   1.93545
   A21        1.92972   0.00001   0.00000   0.00004   0.00005   1.92977
   A22        1.87527   0.00000   0.00000   0.00002   0.00001   1.87528
   A23        1.88119   0.00000   0.00000  -0.00001  -0.00001   1.88118
   A24        1.87948   0.00000   0.00000   0.00001   0.00001   1.87949
   A25        1.93460  -0.00001   0.00000  -0.00008  -0.00008   1.93451
   A26        1.91761   0.00000   0.00000   0.00001   0.00001   1.91763
   A27        1.87603   0.00000   0.00000  -0.00001  -0.00001   1.87602
   A28        1.88380   0.00000   0.00000   0.00001   0.00001   1.88381
   A29        1.92368   0.00001   0.00000   0.00006   0.00005   1.92374
   A30        1.92856   0.00000   0.00000   0.00002   0.00002   1.92858
   A31        1.90503   0.00000   0.00000   0.00000   0.00000   1.90503
    D1       -1.09588   0.00000  -0.00012   0.00028   0.00016  -1.09573
    D2        3.13811   0.00000  -0.00010   0.00030   0.00020   3.13831
    D3        1.06132   0.00000  -0.00012   0.00035   0.00023   1.06156
    D4        0.93908   0.00000  -0.00013   0.00031   0.00018   0.93926
    D5       -1.11011   0.00000  -0.00011   0.00033   0.00022  -1.10989
    D6        3.09628   0.00000  -0.00013   0.00039   0.00026   3.09654
    D7        3.04718   0.00000  -0.00014   0.00030   0.00016   3.04734
    D8        0.99799   0.00000  -0.00012   0.00032   0.00020   0.99819
    D9       -1.07880   0.00000  -0.00014   0.00037   0.00023  -1.07856
   D10        1.15364   0.00000   0.00008   0.00057   0.00064   1.15429
   D11       -0.92689   0.00000   0.00007   0.00060   0.00067  -0.92622
   D12       -3.02623   0.00000   0.00007   0.00058   0.00065  -3.02558
   D13       -0.99573   0.00000   0.00005   0.00060   0.00066  -0.99507
   D14       -3.07627   0.00001   0.00005   0.00064   0.00069  -3.07558
   D15        1.10758   0.00001   0.00005   0.00062   0.00067   1.10825
   D16       -3.00282   0.00000   0.00006   0.00051   0.00057  -3.00225
   D17        1.19983   0.00000   0.00006   0.00054   0.00060   1.20043
   D18       -0.89951   0.00000   0.00006   0.00052   0.00058  -0.89893
   D19       -3.09956   0.00000   0.00005   0.00065   0.00070  -3.09886
   D20       -0.99657   0.00000   0.00005   0.00065   0.00070  -0.99587
   D21        1.09473   0.00000   0.00005   0.00063   0.00068   1.09541
   D22       -1.04959   0.00000   0.00003   0.00052   0.00055  -1.04904
   D23        1.05340   0.00000   0.00003   0.00052   0.00055   1.05395
   D24       -3.13848   0.00000   0.00003   0.00050   0.00053  -3.13795
   D25        1.00509   0.00001   0.00003   0.00066   0.00070   1.00579
   D26        3.10808   0.00001   0.00003   0.00066   0.00069   3.10878
   D27       -1.08380   0.00001   0.00003   0.00065   0.00068  -1.08312
   D28        1.09172   0.00000   0.00009  -0.00027  -0.00017   1.09155
   D29       -3.09340   0.00000   0.00009  -0.00029  -0.00020  -3.09360
   D30       -1.00989   0.00000   0.00009  -0.00025  -0.00017  -1.01006
   D31       -3.03699   0.00000   0.00009  -0.00028  -0.00019  -3.03718
   D32       -0.93893  -0.00001   0.00009  -0.00030  -0.00021  -0.93914
   D33        1.14458   0.00000   0.00008  -0.00027  -0.00018   1.14439
   D34       -0.98410   0.00000   0.00008  -0.00012  -0.00004  -0.98414
   D35        1.11396   0.00000   0.00008  -0.00014  -0.00006   1.11390
   D36       -3.08572   0.00001   0.00007  -0.00011  -0.00003  -3.08575
   D37       -3.09963   0.00000   0.00000   0.00017   0.00017  -3.09946
   D38       -0.98944   0.00000   0.00000   0.00009   0.00009  -0.98935
   D39        1.09117   0.00000   0.00000   0.00015   0.00015   1.09132
         Item               Value     Threshold  Converged?
 Maximum Force            0.000026     0.000450     YES
 RMS     Force            0.000005     0.000300     YES
 Maximum Displacement     0.001601     0.001800     YES
 RMS     Displacement     0.000429     0.001200     YES
 Predicted change in Energy=-2.082596D-08
 Optimization completed.
    -- Stationary point found.
                           ----------------------------
                           !   Optimized Parameters   !
                           ! (Angstroms and Degrees)  !
 --------------------------                            --------------------------
 ! Name  Definition              Value          Derivative Info.                !
 --------------------------------------------------------------------------------
 ! R1    R(1,2)                  1.5403         -DE/DX =    0.0                 !
 ! R2    R(1,3)                  1.0995         -DE/DX =    0.0                 !
 ! R3    R(1,4)                  1.0983         -DE/DX =    0.0                 !
 ! R4    R(1,14)                 1.5238         -DE/DX =    0.0                 !
 ! R5    R(2,5)                  1.5366         -DE/DX =    0.0                 !
 ! R6    R(2,6)                  1.1018         -DE/DX =    0.0                 !
 ! R7    R(2,10)                 1.5379         -DE/DX =    0.0                 !
 ! R8    R(5,7)                  1.0971         -DE/DX =    0.0                 !
 ! R9    R(5,8)                  1.097          -DE/DX =    0.0                 !
 ! R10   R(5,9)                  1.0985         -DE/DX =    0.0                 !
 ! R11   R(10,11)                1.0961         -DE/DX =    0.0                 !
 ! R12   R(10,12)                1.0971         -DE/DX =    0.0                 !
 ! R13   R(10,13)                1.0988         -DE/DX =    0.0                 !
 ! R14   R(14,15)                1.0999         -DE/DX =    0.0                 !
 ! R15   R(14,16)                1.1027         -DE/DX =    0.0                 !
 ! R16   R(14,17)                1.433          -DE/DX =    0.0                 !
 ! R17   R(17,18)                0.9691         -DE/DX =    0.0                 !
 ! A1    A(2,1,3)              109.698          -DE/DX =    0.0                 !
[...]
 59,-0.0804355,0.0325607,0.0467264,-0.017507,-0.0206081,-0.0208789,0.04
 90689,-0.0171658,0.0511267,0.0434436,-0.1654664,0.0611801,0.0022116,0.
 0058058,0.0181948,-0.0173591,-0.0452463,-0.0107237,-0.0030314,0.128625
 7,-0.0330255,-0.1344597,0.052021,-0.1034587,-0.0868174,0.0195717,0.057
 5202,0.0346478,0.0307122,-0.1568726,0.1078296,-0.0563561,0.0517796,0.0
 274406,-0.0016389,-0.0754607,0.0166118,0.0385726,0.0669224,0.006853,-0
 .0150041,0.0049196,0.0318237,0.0424964,0.0134648,-0.0421732,-0.1646326
 ,0.8457241,-0.2160843,0.1289128,-0.1674004,0.3830094,0.0043442,0.09367
 26,-0.0085707,0.4399693,-0.0368864,0.0236915,-0.0003923,0.0490075,-0.1
 918192,-0.0502048,-0.0078679,-0.0868592,-0.0125509,-0.0503282,0.014785
 3,-0.0287388,0.0331052,0.0052486,0.0304593,-0.0266259,0.0715398,-0.224
 1458,-0.9884904,0.2380691,-0.1418897,0.2576354,-0.4058516,-0.0582931,-
 0.1532742,-0.0586563,-0.5381862,0.1936815,-0.0583816,0.0174699,-0.0883
 075,0.194128,0.079688,0.0349004,0.0815584,0.3241706\Polar=73.0339161,0
 .285663,63.8119677,-0.0183121,-0.6210942,57.6651301\Quadrupole=1.20589
 25,-0.8501458,-0.3557467,3.6447074,-1.6033663,0.1879578\PG=C01 [X(C5H1
 2O1)]\NImag=0\\0.47083665,-0.00930784,0.55567258,-0.01345901,0.0278700
 1,0.57618197,-0.15005200,0.02907567,-0.03055459,0.46697685,0.02445659,
 -0.09049046,0.01311307,0.00009820,0.46872991,-0.02911643,0.01264328,-0
 .09344459,-0.00928904,-0.00578959,0.58327656,-0.04796216,0.00023654,0.
 00459970,-0.00109886,0.00138075,-0.03043881,0.05561018,-0.00037924,-0.
 05097949,0.00818763,0.00050096,-0.00129907,0.01119036,0.00174220,0.052
 97184,0.00665971,0.00950663,-0.29986624,-0.00052956,0.00053027,-0.0129
 1289,-0.00553838,-0.01304422,0.32822146,-0.05305246,0.03838464,0.01468
 546,-0.00620612,0.02712678,0.01127008,-0.00029524,0.00040084,0.0002379
 3,0.06443975,0.03691281,-0.26613394,-0.08115844,0.00223048,-0.01030228
 ,-0.00395238,-0.00041634,0.00206479,0.00023129,-0.03949516,0.29236278,
 0.01534885,-0.08148288,-0.08223568,-0.00312111,0.01185754,0.00335272,0
 .00533875,-0.03090511,-0.01104893,-0.01555468,0.08797662,0.08395868,-0
 .03177619,-0.01958815,0.00663222,-0.13038522,-0.04895691,0.01978821,0.
 00118408,-0.00055094,0.00067331,0.00051604,-0.00135639,0.00046325,0.52
 187458,0.00390537,0.00751031,-0.00374267,-0.04847142,-0.12085848,0.017
 85699,0.00037058,0.00003191,0.00009322,0.00170939,0.00058357,-0.000000
 98,-0.05292082,0.53242501,-0.00924656,-0.00835385,0.00333555,0.0204438
 8,0.01837733,-0.08713322,-0.00129059,-0.00062079,0.00024882,0.00073485
 ,-0.00016770,0.00017442,0.02108265,0.01952791,0.55920637,-0.00117275,0
 .00163624,-0.03101766,-0.04919049,0.00030073,0.01118808,-0.00509097,0.
 00172151,-0.00217465,0.00092641,0.00001300,0.00059202,-0.00288762,-0.0
 0282968,0.02538400,0.05906110,0.00050523,-0.00067647,0.01135382,-0.000
 04378,-0.04885864,0.01094993,0.00198434,-0.00020461,0.00086297,-0.0003
 9709,0.00000463,0.00024055,-0.00268676,-0.00246479,0.02300832,0.000528
 31,0.05859714,-0.00105379,0.00081814,-0.01316505,0.01149609,0.01082371
 ,-0.29030910,-0.00222305,0.00115762,0.00053403,-0.00023759,0.00056082,
 0.00050838,0.00092126,0.00093988,-0.00819682,-0.01232934,-0.01209243,0
 .31803649,-0.00280613,-0.00500473,0.00287991,-0.02061500,0.00822361,-0
 .00948839,0.00030094,-0.00005200,-0.00013226,0.00046562,-0.00010234,0.
 00015363,-0.24959072,0.06772504,-0.08439814,0.00043175,0.00030542,0.00
 069666,0.27337631,-0.00247064,-0.00336081,0.00122489,-0.01945261,0.005
 68005,-0.00937676,0.00010295,-0.00015919,-0.00002639,-0.00020949,0.000
 30215,0.00025576,0.06902151,-0.07170219,0.02836145,0.00081129,0.000743
 34,-0.00017269,-0.07290531,0.07631812,0.00105286,0.00097002,-0.0001211
 5,0.00869164,-0.00282291,0.00252117,0.00039755,0.00003243,0.00045224,-
 0.00014926,0.00029778,-0.00012796,-0.08476493,0.02785768,-0.08425674,0
 .00007548,-0.00063141,0.00042406,0.09230405,-0.03223041,0.08689392,0.0
 0100438,-0.00149860,-0.00054466,0.00462706,-0.02153980,-0.01032767,-0.
 00007148,0.00008824,-0.00001817,-0.00092577,0.00024076,0.00012809,-0.0
 6041414,0.05084941,0.02022141,0.00083173,0.00075370,-0.00006401,-0.005
 28577,0.02602790,0.01206206,0.06427736,0.00134071,0.00004194,-0.000225
 69,0.00591025,-0.01906116,-0.00865421,-0.00002690,0.00001709,0.0000536
 7,-0.00085169,0.00087300,-0.00001514,0.04950202,-0.26148181,-0.0865805
 1,0.00025270,0.00032772,0.00070494,0.00191495,-0.00792254,-0.00311894,
 -0.05288713,0.28594139,-0.00022457,-0.00029256,-0.00006265,-0.00208535
 ,0.00874547,0.00254807,0.00005501,-0.00014804,-0.00004124,-0.00030968,
 -0.00003776,0.00025477,0.01962850,-0.08691055,-0.08426216,-0.00062674,
 0.00011424,0.00038845,-0.00197955,0.01237222,0.00468288,-0.02320303,0.
 09487362,0.08668887,0.00117363,0.00014323,0.00175611,-0.00290107,-0.00
 178675,0.02516287,-0.00051564,-0.00015923,-0.00067910,-0.00005156,0.00
 005162,-0.00002434,-0.05002386,-0.00054379,0.01884613,-0.00326899,-0.0
 0352269,0.00123428,0.00345598,0.00117480,-0.02976384,-0.00132695,-0.00
 074712,0.00740961,0.05270507,0.00113875,0.00029139,0.00014756,-0.00193
 981,-0.00244088,0.02285450,-0.00020743,0.00030372,-0.00042284,-0.00007
 654,0.00000317,-0.00018524,-0.00050586,-0.05002367,0.01691747,-0.00357
 045,-0.00261700,0.00119324,-0.00120485,-0.00139269,0.01029204,0.001631
 87,0.00341429,-0.03058303,0.00430764,0.05170274,-0.00069781,-0.0001475
 2,0.00031758,0.00102112,0.00084424,-0.00964150,0.00069336,-0.00011459,
 0.00056656,0.00002128,0.00006236,-0.00007490,0.01934009,0.01726573,-0.
 30189281,0.00153037,0.00136835,0.00118402,0.00085184,0.00024891,-0.011
 10842,0.00032250,0.00084981,-0.01104664,-0.02277155,-0.02055209,0.3296
 8744,-0.00861120,0.03026122,0.01068761,-0.08403063,0.02160964,0.008086
 32,0.00116121,-0.00050658,0.00052591,-0.00549583,0.00181806,-0.0017628
 6,0.00515079,-0.02265552,-0.00860383,-0.00033559,0.00192795,0.00077786
 ,0.00033341,-0.00132690,-0.00037375,-0.00367914,-0.00467077,0.00097986
 ,0.00054878,0.00032465,-0.00027354,0.57014056,0.00852955,-0.01276013,-
 0.00218957,0.01915644,-0.16145451,-0.03302253,-0.00100224,0.00024693,-
 0.00052563,0.00056115,0.00090002,0.00013532,0.00035021,-0.02964060,-0.
 00783347,0.00014402,-0.00140633,-0.00055746,0.00132638,0.00107504,-0.0
 0025124,-0.00230863,-0.00203590,0.00093656,0.00114635,0.00096042,-0.00
 056830,0.02719959,0.48894279,-0.00099322,0.00979463,0.00436020,0.00889
 959,-0.03444041,-0.09435310,-0.00068533,0.00151923,0.00066312,-0.00293
 551,0.00177430,-0.00034453,-0.00256383,0.00667931,0.00350645,0.0077872
 7,-0.03257016,-0.01192275,-0.00023051,-0.00049107,-0.00011930,0.001399
 64,0.00257813,0.00012825,0.00009797,0.00149361,0.00066117,0.01065569,-
 0.03718064,0.55161904,0.00038595,-0.00032879,-0.00052256,0.00603635,0.
 00658350,-0.00359115,-0.00008644,0.00008271,-0.00000795,0.00015018,-0.
 00014736,0.00011372,0.00007398,0.00081039,0.00002354,0.00030434,-0.000
 66577,-0.00055837,0.00044768,0.00024660,0.00020476,0.00045463,0.000240
 37,0.00016500,-0.00010313,0.00011870,0.00000174,-0.16129745,-0.1180481
 1,0.05431080,0.17571360,-0.00089609,0.00048736,0.00027063,-0.02091654,
 -0.01831555,0.01103789,0.00009267,-0.00002068,-0.00004167,0.00002739,0
 .00013122,-0.00018156,0.00345571,-0.00522451,-0.00332208,-0.00009443,0
 .00108365,-0.00051916,0.00000414,0.00030755,-0.00016534,-0.00151983,-0
 .00147513,0.00043071,0.00026362,0.00028154,0.00008519,-0.11682606,-0.1
 7123304,0.05629007,0.12869882,0.18684628,0.00012918,0.00079349,-0.0000
 3502,-0.00949273,-0.00860102,0.00318824,0.00006606,0.00002848,0.000033
 90,-0.00015390,-0.00002360,-0.00004712,0.00076612,-0.00210792,-0.00051
 396,-0.00057533,0.00035211,0.00047150,0.00030476,0.00011472,-0.0000947
 1,-0.00033481,-0.00071971,0.00056911,-0.00014764,-0.00037277,0.0003668
 0,0.05393332,0.05675575,-0.07492012,-0.06011938,-0.06055693,0.07661726
 ,0.00114689,0.00116908,0.00175687,-0.00723141,0.00137212,-0.00276670,0
 .00012083,-0.00013862,-0.00006447,-0.00046014,0.00022415,-0.00022207,0
 .00064988,-0.00132400,-0.00010706,-0.00007093,0.00013753,0.00063654,0.
 00074011,0.00014950,-0.00005764,0.00024511,-0.00003539,0.00024586,-0.0
 0001631,0.00006229,0.00002124,-0.26318788,0.06332730,-0.07582363,-0.01
 919966,0.00566479,-0.00721238,0.28566934,-0.00016589,-0.00573375,-0.00
 345246,0.02764643,-0.00859390,0.01157584,-0.00033786,0.00013321,-0.000
 02270,0.00190924,-0.00060753,0.00045321,0.00169173,0.00078117,0.000762
 77,-0.00034587,0.00096467,-0.00025645,-0.00101501,-0.00076474,-0.00031
 086,-0.00019278,0.00050277,-0.00017661,-0.00010363,-0.00007469,0.00004
 805,0.06211546,-0.06609608,0.02247376,-0.02060990,0.00684355,-0.008507
 40,-0.07003595,0.07343790,-0.00005916,-0.00186805,-0.00058804,0.011739
 48,-0.00361365,0.00356836,0.00026664,-0.00030254,0.00038008,0.00043996
 ,-0.00026199,0.00055987,0.00008079,0.00047622,0.00018063,0.00029169,0.
 00058059,0.00031311,-0.00004560,0.00011532,0.00022882,0.00023247,0.000
 10210,-0.00014175,-0.00019091,0.00001828,-0.00009162,-0.07573851,0.023
 04925,-0.07572354,0.01048884,-0.00371896,0.00329838,0.08348085,-0.0230
 9714,0.07750371,0.00028768,-0.00022124,0.00152321,-0.00098187,0.000325
 44,0.00861030,-0.00003766,0.00030226,-0.00036171,0.00007574,-0.0001129
 8,-0.00024671,-0.00005969,-0.00033868,-0.00088729,0.00018950,0.0017922
 8,0.00067549,0.00001775,0.00004763,-0.00012190,-0.00012817,0.00000576,
 0.00012050,0.00026510,-0.00019622,-0.00004460,-0.04926186,-0.00070654,
 0.00079267,0.00011345,0.00077988,0.02279869,0.00140844,-0.00022411,-0.
 03098871,0.04798918,-0.00079614,0.00142892,-0.00103978,0.00038410,-0.0
 0076784,-0.03197857,0.00031894,-0.00014506,0.00083495,-0.00037814,0.00
 017444,0.00032731,0.00045675,0.00144099,-0.00122641,0.00149061,-0.0056
 5483,-0.00242688,-0.00004864,-0.00010122,0.00007546,0.00014233,0.00026
 777,0.00042091,-0.00027040,-0.00030714,0.00077509,-0.00065684,-0.04811
 751,0.00170010,0.00140199,0.00014505,0.02293488,-0.00087287,-0.0008016
 6,0.00855984,-0.00119852,0.05254017,-0.00055624,0.00070862,0.00055444,
 0.00042568,-0.00032335,-0.01351720,0.00076020,-0.00042691,0.00056113,-
 0.00001784,-0.00002527,0.00038959,0.00013268,0.00069420,0.00044802,0.0
 0053508,-0.00277818,0.00072215,0.00003795,-0.00000715,-0.00004141,-0.0
 0002431,-0.00012514,0.00039193,-0.00052082,-0.00065167,0.00050239,0.00
 092415,0.00152380,-0.30369994,-0.00033773,0.00026897,-0.00929198,0.000
 24320,0.00035957,-0.00950664,-0.00176696,0.00085163,0.33243255,-0.1322
 3675,-0.06220581,0.03370131,-0.02446558,-0.01118521,0.00416416,-0.0021
 8088,-0.00179437,-0.00039462,0.00143827,0.00211516,-0.00089731,-0.0021
 7749,0.00163814,-0.00083561,0.00074676,-0.00061498,0.00079099,-0.00001
 516,-0.00063925,0.00031215,0.00014076,0.00004943,-0.00013541,-0.000021
 89,0.00011163,-0.00009772,-0.00016604,0.00065367,0.00008924,-0.0015809
 4,0.00060067,0.00022801,0.00055823,-0.00080500,-0.00002448,-0.00000602
 ,0.00009747,-0.00006748,0.45365579,-0.04526351,-0.12811355,0.02417313,
 0.00682804,0.01045346,-0.00762982,-0.00205601,-0.00251032,0.00072060,-
 0.02738193,-0.02246081,0.01038971,0.00304681,-0.00195109,0.00164583,0.
 00036080,0.00001419,0.00046484,0.00131098,0.00114458,0.00001897,0.0000
 4728,0.00027330,0.00017258,-0.00016568,-0.00012604,-0.00007161,0.00137
 821,0.00237996,-0.00027540,0.00025959,-0.00160014,0.00077833,-0.000357
 09,-0.00104964,-0.00011943,0.00007445,0.00003085,-0.00021347,0.0189755
 7,0.55811743,0.02497547,0.02283238,-0.09412972,-0.00727477,-0.00918450
 ,0.00303020,0.02858820,0.02272677,-0.01129924,-0.00929291,-0.00789278,
 0.00349930,-0.00253463,0.00131484,-0.00199469,-0.00225739,-0.00051815,
 -0.00069990,-0.00110800,-0.00042637,0.00072173,0.00019215,0.00026086,0
 .00001110,0.00004370,0.00009429,0.00043763,-0.00024735,0.00040080,-0.0
 0055295,-0.00031549,-0.00015160,0.00082583,-0.00039213,-0.00012682,0.0
 0012087,0.00016694,0.00012689,-0.00011056,-0.01259585,0.02513253,0.574
 37685,0.00275372,-0.02451158,-0.01192737,0.00096104,-0.00020597,-0.000
 11301,0.00103126,0.00094029,0.00015826,-0.00451205,-0.00321983,0.00168
 429,-0.00003416,0.00008803,0.00009381,-0.00011583,0.00000836,0.0000240
 5,-0.00011727,0.00011917,-0.00000234,0.00012726,0.00022103,0.00004469,
 0.00003514,-0.00001157,0.00002389,-0.00129132,0.00027716,-0.00014653,-
 0.00178895,0.00085118,-0.00024833,0.00012194,0.00014354,0.00003693,-0.
 00005286,0.00003332,0.00012436,-0.04969677,-0.00053385,0.00275024,0.06
 288316,-0.00064890,-0.01647408,-0.00917920,0.00031776,-0.00100540,0.00
 023139,0.00039448,0.00058605,0.00047195,-0.00279319,-0.00114959,0.0013
 5300,-0.00034530,0.00021303,-0.00005129,-0.00002965,0.00003472,0.00004
 881,-0.00022231,0.00001003,0.00002846,0.00009258,0.00024567,0.00004912
 ,0.00002725,-0.00003588,0.00001853,0.00049418,-0.00091947,0.00043160,0
 .00130392,0.00085875,-0.00039086,0.00034478,0.00051610,0.00000598,-0.0
 0020387,-0.00003870,0.00009541,0.00073772,-0.24561137,-0.09667984,-0.0
 1221261,0.27423526,0.00055645,0.00961753,0.00448874,-0.00013875,-0.000
 47596,-0.00011181,-0.00071071,0.00034310,0.00102449,0.00142483,0.00193
 941,0.00067005,-0.00011467,0.00015715,0.00008217,0.00007516,-0.0000350
 7,0.00017970,-0.00002594,-0.00009456,-0.00002772,-0.00000367,0.0000205
 7,-0.00002531,-0.00001760,-0.00002057,0.00001215,-0.00011175,-0.000738
 71,0.00054624,0.00006023,0.00050137,-0.00002684,0.00019918,0.00025945,
 -0.00012886,0.00005542,0.00004288,-0.00012657,0.00201184,-0.09968171,-
 0.10596778,-0.00157625,0.10375126,0.10486075,-0.00118938,-0.00178151,0
 .02688238,0.00119722,-0.00030869,0.00165669,-0.00415166,-0.00363825,0.
 00132280,0.00087668,0.00017495,-0.00080060,-0.00002707,-0.00009023,-0.
 00002902,-0.00056405,-0.00000339,-0.00077338,-0.00002795,0.00002830,-0
 .00009784,0.00002236,0.00000499,0.00001257,0.00007126,0.00005834,-0.00
 023574,-0.00005454,-0.00004488,-0.00005246,0.00011924,0.00010232,-0.00
 001607,0.00000033,0.00009062,-0.00005414,0.00014261,-0.00014669,-0.000
 11562,-0.04968371,-0.00341557,0.01175215,0.00292961,-0.00121068,0.0001
 8303,0.06167798,-0.00245503,-0.00093194,0.02001262,0.00081815,0.000473
 81,0.00029970,-0.00294047,-0.00154702,0.00147775,0.00082318,0.00054251
 ,0.00021547,0.00004994,-0.00011662,-0.00013091,-0.00031593,0.00019241,
 -0.00046747,-0.00000634,0.00001284,-0.00008908,0.00000199,-0.00003189,
 0.00002978,0.00012246,0.00004741,-0.00012756,-0.00003595,0.00010720,-0
 .00004041,-0.00017247,-0.00001013,-0.00011196,0.00003403,0.00005757,0.
 00006906,-0.00008233,-0.00012620,0.00005649,-0.00201853,-0.05710590,0.
 01480887,0.00071346,0.00365006,-0.02982989,-0.00232682,0.05763364,0.00
 144350,0.00013999,-0.01019253,-0.00077369,0.00012402,-0.00037002,0.001
 24012,0.00162386,0.00086737,-0.00014821,0.00050402,0.00068242,0.000212
 13,-0.00011803,0.00062444,0.00077665,-0.00013704,0.00089068,0.00013284
 ,0.00004257,0.00001105,-0.00003920,-0.00000723,-0.00005382,-0.00028263
 ,-0.00013605,0.00007225,0.00042490,-0.00006390,0.00015309,0.00002769,-
 0.00009672,-0.00030030,0.00010503,-0.00001030,0.00002129,-0.00022378,0
 .00002136,0.00019062,0.01072402,0.01695653,-0.28760178,0.00188696,0.00
 007994,-0.01459245,-0.00321691,-0.02649219,0.31478548,-0.04267314,0.01
 799952,-0.01321152,-0.00225765,-0.00573085,0.00393050,0.00159816,0.001
 17843,0.00031423,0.00149977,0.00066859,-0.00098358,-0.00160614,0.00168
 582,-0.00114016,0.00019266,0.00001471,0.00010628,-0.00095837,-0.000550
 72,0.00016613,0.00008394,-0.00021819,-0.00008555,-0.00003973,-0.000051
 58,0.00026923,0.00008625,-0.00027259,-0.00061332,0.00020045,-0.0004896
 9,0.00013381,-0.00057230,0.00012794,0.00003544,0.00005420,0.00002495,0
 .00020478,-0.16949603,0.07063539,-0.04310618,-0.01449425,0.01376442,-0
 .00302549,-0.01244356,0.00853128,-0.01173585,0.56030317,-0.01595054,0.
 01234823,-0.00610281,-0.00304533,-0.00283130,0.00171585,0.00028210,0.0
 0064251,-0.00059626,0.00052268,0.00229742,-0.00074450,-0.00091708,0.00
 061753,-0.00045018,0.00000354,-0.00009193,-0.00014578,-0.00034069,-0.0
 0026275,0.00006862,0.00008142,0.00012023,-0.00000909,0.00006071,0.0000
 1354,0.00003153,-0.00028476,-0.00112181,0.00033107,0.00026673,0.000926
 25,-0.00041083,0.00031584,0.00046531,-0.00000430,-0.00006263,0.0000326
 1,0.00002470,0.03009868,-0.12056090,0.03102159,0.03600486,-0.01534719,
 0.01458681,0.01224359,-0.00276737,0.00712397,0.12321408,0.31200194,0.0
 0607007,-0.00439929,0.00540338,0.00110906,0.00091021,-0.00052653,-0.00
 091821,-0.00130967,0.00139116,0.00001392,0.00008803,-0.00003052,0.0003
 8743,-0.00006357,0.00047218,0.00063555,-0.00000664,0.00067278,0.000083
 68,0.00011400,-0.00003719,0.00000157,0.00002464,-0.00002608,-0.0001669
 0,-0.00010415,0.00006571,0.00013947,0.00006350,0.00001964,0.00005760,-
 0.00008948,-0.00020505,0.00000772,0.00004647,0.00002284,-0.00013341,-0
 .00001457,0.00016538,-0.02336531,0.03421345,-0.08157953,0.00668775,-0.
 00072263,0.00894713,-0.03516888,0.02084490,-0.00508083,-0.02663948,-0.
 12765809,0.10701125,-0.00605672,0.00554211,-0.00386741,-0.00038263,-0.
 00176317,0.00127399,0.00048433,0.00026177,0.00000871,0.00061074,0.0004
 0083,-0.00020936,-0.00046706,0.00039195,-0.00029200,0.00001297,-0.0000
 2336,-0.00011997,-0.00015318,-0.00017473,0.00006481,0.00001683,-0.0000
 0503,-0.00001171,0.00001418,0.00001046,0.00002429,-0.00000953,-0.00028
 881,0.00001145,0.00005670,0.00020146,-0.00005939,0.00007753,0.00011103
 ,0.00000843,-0.00001553,0.00001778,0.00001894,-0.02481255,-0.02374350,
 0.01065585,0.00126033,0.00018942,0.00115872,0.00110464,-0.00074062,-0.
 00055358,-0.31947743,-0.18249321,0.07119837,0.34773636,0.00154479,-0.0
 0212611,0.00073726,0.00090301,0.00094223,0.00004812,0.00008168,-0.0001
 3260,-0.00010359,0.00011796,0.00041446,0.00031093,0.00025350,-0.000139
 77,0.00013613,-0.00007672,0.00001213,-0.00007368,0.00009170,0.00007244
 ,-0.00002128,-0.00001071,-0.00001673,0.00001242,0.00000164,-0.00000024
 ,-0.00001612,-0.00016557,0.00017301,-0.00006771,-0.00004093,-0.0000320
 3,0.00004522,-0.00003749,0.00001973,0.00000942,0.00001942,-0.00000064,
 -0.00003224,0.02418502,0.00867598,-0.00373976,0.00129501,0.00023199,-0
 .00034306,0.00026359,-0.00008038,0.00044519,-0.23053151,-0.18648231,0.
 07806288,0.20210563,0.17846885,-0.00082928,0.00084939,-0.00080118,-0.0
 0056695,-0.00007447,0.00083464,-0.00020051,0.00006237,0.00022420,-0.00
 002874,0.00008530,-0.00014056,-0.00013057,0.00008059,-0.00002865,0.000
 10977,-0.00006180,-0.00003173,-0.00003693,-0.00002443,-0.00000127,-0.0
 0000037,-0.00002178,-0.00000378,0.00001467,0.00001743,-0.00001781,-0.0
 0002351,0.00006646,-0.00002098,-0.00000130,-0.00004133,0.00006408,-0.0
 0005042,-0.00001839,-0.00001752,0.00003185,0.00001489,-0.00006392,-0.0
 1360792,-0.00667504,0.00091265,0.00049858,0.00045838,0.00019595,-0.001
 24896,-0.00052515,-0.00010697,0.09538074,0.08121771,-0.03668574,-0.079
 31016,-0.07541014,0.03568858\\0.00000263,-0.00000060,0.00000066,-0.000
 00151,-0.00000870,0.00000292,0.00000622,-0.00000583,-0.00000216,0.0000
 0355,-0.00000170,-0.00000129,-0.00000344,0.00000995,-0.00000458,-0.000
 01073,0.00000332,-0.00000005,0.00000059,0.00000540,0.00000294,-0.00000
 225,0.00000121,-0.00000342,0.00000261,-0.00000080,0.00000179,-0.000004
 96,0.00000438,-0.00000491,-0.00000647,-0.00000086,0.00000274,0.0000002
 4,0.00000158,0.00000315,0.00000177,-0.00000397,0.00000159,0.00000067,-
 0.00000102,0.00000772,0.00000791,-0.00000348,-0.00000572,0.00000262,-0
 .00000226,-0.00000016,0.00000101,0.00000645,0.00000319,-0.00000046,-0.
 00000309,-0.00000441\\\@


 IT IS A PROFOUNDLY ERRONEOUS TRUISM ... THAT WE SHOULD CULTIVATE
 THE HABIT OF THINKING OF WHAT WE ARE DOING.
 THE PRECISE OPPOSITE IS THE CASE.
 CIVILIZATION ADVANCES BY EXTENDING THE NUMBER OF IMPORTANT OPERATIONS
 WHICH WE CAN PERFORM WITHOUT THINKING ABOUT THEM.

                                    -- ALFRED NORTH WHITEHEAD
 Job cpu time:       0 days  0 hours 20 minutes  5.6 seconds.
 Elapsed time:       0 days  0 hours  0 minutes 37.8 seconds.
 File lengths (MBytes):  RWF=     41 Int=      0 D2E=      0 Chk=      3 Scr=      1
 Normal termination of Gaussian 16 at Fri Sep 15 07:31:25 2023.
