 Entering Gaussian System, Link 0=/home/ubuntu/g16/g16
 Input=/home/ubuntu/Downloads/MOLECULE_5-vol.gjf
 Output=/home/ubuntu/Downloads/MOLECULE_5-vol.log
 Initial command:
 /home/ubuntu/g16/l1.exe "/home/ubuntu/Scratch/Gau-12185.inp" -scrdir="/home/ubuntu/Scratch/"
 Entering Link 1 = /home/ubuntu/g16/l1.exe PID=     12187.
  
 Copyright (c) 1988-2017, Gaussian, Inc.  All Rights Reserved.
  
 This is part of the Gaussian(R) 16 program.  It is based on
 the Gaussian(R) 09 system (copyright 2009, Gaussian, Inc.),
 the Gaussian(R) 03 system (copyright 2003, Gaussian, Inc.),
 the Gaussian(R) 98 system (copyright 1998, Gaussian, Inc.),
 the Gaussian(R) 94 system (copyright 1995, Gaussian, Inc.),
 the Gaussian 92(TM) system (copyright 1992, Gaussian, Inc.),
 the Gaussian 90(TM) system (copyright 1990, Gaussian, Inc.),
 the Gaussian 88(TM) system (copyright 1988, Gaussian, Inc.),
 the Gaussian 86(TM) system (copyright 1986, Carnegie Mellon
 University), and the Gaussian 82(TM) system (copyright 1983,
 Carnegie Mellon University). Gaussian is a federally registered
 trademark of Gaussian, Inc.
  
 This software contains proprietary and confidential information,
 including trade secrets, belonging to Gaussian, Inc.
  
 This software is provided under written license and may be
 used, copied, transmitted, or stored only in accord with that
 written license.
  
 The following legend is applicable only to US Government
 contracts under FAR:
  
                    RESTRICTED RIGHTS LEGEND
  
 Use, reproduction and disclosure by the US Government is
 subject to restrictions as set forth in subparagraphs (a)
 and (c) of the Commercial Computer Software - Restricted
 Rights clause in FAR 52.227-19.
  
 Gaussian, Inc.
 340 Quinnipiac St., Bldg. 40, Wallingford CT 06492
  
  
 ---------------------------------------------------------------
 Warning -- This program may not be used in any manner that
 competes with the business of Gaussian, Inc. or will provide
 assistance to any competitor of Gaussian, Inc.  The licensee
 of this program is prohibited from giving any competitor of
 Gaussian, Inc. access to this program.  By using this program,
 the user acknowledges that Gaussian, Inc. is engaged in the
 business of creating and licensing software in the field of
 computational chemistry and represents and warrants to the
 licensee that it is not a competitor of Gaussian, Inc. and that
 it will not use this program in any manner prohibited above.
 ---------------------------------------------------------------
  

 Cite this work as:
 Gaussian 16, Revision B.01,
 M. J. Frisch, G. W. Trucks, H. B. Schlegel, G. E. Scuseria, 
 M. A. Robb, J. R. Cheeseman, G. Scalmani, V. Barone, 
 G. A. Petersson, H. Nakatsuji, X. Li, M. Caricato, A. V. Marenich, 
 J. Bloino, B. G. Janesko, R. Gomperts, B. Mennucci, H. P. Hratchian, 
 J. V. Ortiz, A. F. Izmaylov, J. L. Sonnenberg, D. Williams-Young, 
 F. Ding, F. Lipparini, F. Egidi, J. Goings, B. Peng, A. Petrone, 
 T. Henderson, D. Ranasinghe, V. G. Zakrzewski, J. Gao, N. Rega, 
 G. Zheng, W. Liang, M. Hada, M. Ehara, K. Toyota, R. Fukuda, 
 J. Hasegawa, M. Ishida, T. Nakajima, Y. Honda, O. Kitao, H. Nakai, 
 T. Vreven, K. Throssell, J. A. Montgomery, Jr., J. E. Peralta, 
 F. Ogliaro, M. J. Bearpark, J. J. Heyd, E. N. Brothers, K. N. Kudin, 
 V. N. Staroverov, T. A. Keith, R. Kobayashi, J. Normand, 
 K. Raghavachari, A. P. Rendell, J. C. Burant, S. S. Iyengar, 
 J. Tomasi, M. Cossi, J. M. Millam, M. Klene, C. Adamo, R. Cammi, 
 J. W. Ochterski, R. L. Martin, K. Morokuma, O. Farkas, 
 J. B. Foresman, and D. J. Fox, Gaussian, Inc., Wallingford CT, 2016.
 
 ******************************************
 Gaussian 16:  EM64L-G16RevB.01 20-Dec-2017
                15-Sep-2023 
 ******************************************
 %nprocshared=32
 Will use up to   32 processors via shared memory.
 %mem=62GB
 %chk=MOLECULE_5-vol.chk
 ----------------------------------------------------------------------
 # opt freq b3lyp/6-31+g(d) empiricaldispersion=gd3 scf=maxcycle=1000 v
 olume
 ----------------------------------------------------------------------
 1/18=20,19=15,26=3,38=1/1,3;
 2/9=110,12=2,17=6,18=5,40=1/2;
 3/5=1,6=6,7=11,11=2,25=1,30=1,71=1,74=-5,124=31/1,2,3;
 4//1;
 5/5=2,7=1000,38=5/2;
 6/7=2,8=2,9=2,10=2,28=1,44=1/1,4;
 7//1,2,3,16;
 1/18=20,19=15,26=3/3(2);
 2/9=110/2;
 99//99;
 2/9=110/2;
 3/5=1,6=6,7=11,11=2,25=1,30=1,71=1,74=-5,124=31/1,2,3;
 4/5=5,16=3,69=1/1;
 5/5=2,7=1000,38=5/2;
 7//1,2,3,16;
 1/18=20,19=15,26=3/3(-5);
 2/9=110/2;
 6/7=2,8=2,9=2,10=2,19=2,28=1,44=1/1,4;
 99/9=1/99;
 -------------------
 Title Card Required
 -------------------
 Symbolic Z-matrix:
 Charge =  0 Multiplicity = 1
 C                     1.26989  -0.6812   -0.08428 
 C                    0.         0.04384   0.35688 
 H                    -0.00002   0.13407   1.45392 
 H                     2.16112  -0.13828   0.24911 
 H                     1.30495  -1.69859   0.32481 
 H                     1.29964  -0.74496  -1.17851 
 C                    -1.2698   -0.68136  -0.0843 
 H                    -2.16111  -0.13855   0.24906 
 H                    -1.29952  -0.74514  -1.17853 
 H                    -1.30476  -1.69875   0.32481 
 O                    -0.00005   1.36389  -0.23043 
 H                    -0.00047   2.03135   0.46899 
 

 GradGradGradGradGradGradGradGradGradGradGradGradGradGradGradGradGradGrad
 Berny optimization.
 Initialization pass.
                           ----------------------------
                           !    Initial Parameters    !
                           ! (Angstroms and Degrees)  !
 --------------------------                            --------------------------
 ! Name  Definition              Value          Derivative Info.                !
 --------------------------------------------------------------------------------
 ! R1    R(1,2)                  1.5274         estimate D2E/DX2                !
 ! R2    R(1,4)                  1.0955         estimate D2E/DX2                !
 ! R3    R(1,5)                  1.0971         estimate D2E/DX2                !
 ! R4    R(1,6)                  1.0965         estimate D2E/DX2                !
 ! R5    R(2,3)                  1.1007         estimate D2E/DX2                !
 ! R6    R(2,7)                  1.5274         estimate D2E/DX2                !
 ! R7    R(2,11)                 1.4448         estimate D2E/DX2                !
 ! R8    R(7,8)                  1.0955         estimate D2E/DX2                !
 ! R9    R(7,9)                  1.0965         estimate D2E/DX2                !
 ! R10   R(7,10)                 1.0971         estimate D2E/DX2                !
 ! R11   R(11,12)                0.9668         estimate D2E/DX2                !
 ! A1    A(2,1,4)              110.6847         estimate D2E/DX2                !
 ! A2    A(2,1,5)              111.0426         estimate D2E/DX2                !
 ! A3    A(2,1,6)              109.7791         estimate D2E/DX2                !
 ! A4    A(4,1,5)              108.6682         estimate D2E/DX2                !
 ! A5    A(4,1,6)              108.0856         estimate D2E/DX2                !
 ! A6    A(5,1,6)              108.501          estimate D2E/DX2                !
 ! A7    A(1,2,3)              109.0733         estimate D2E/DX2                !
 ! A8    A(1,2,7)              112.4816         estimate D2E/DX2                !
 ! A9    A(1,2,11)             108.4405         estimate D2E/DX2                !
 ! A10   A(3,2,7)              109.0733         estimate D2E/DX2                !
 ! A11   A(3,2,11)             109.2832         estimate D2E/DX2                !
 ! A12   A(7,2,11)             108.4429         estimate D2E/DX2                !
 ! A13   A(2,7,8)              110.6849         estimate D2E/DX2                !
 ! A14   A(2,7,9)              109.779          estimate D2E/DX2                !
 ! A15   A(2,7,10)             111.0429         estimate D2E/DX2                !
 ! A16   A(8,7,9)              108.0854         estimate D2E/DX2                !
 ! A17   A(8,7,10)             108.6678         estimate D2E/DX2                !
 ! A18   A(9,7,10)             108.5012         estimate D2E/DX2                !
 ! A19   A(2,11,12)            109.6761         estimate D2E/DX2                !
 ! D1    D(4,1,2,3)            -58.7012         estimate D2E/DX2                !
 ! D2    D(4,1,2,7)           -179.8516         estimate D2E/DX2                !
 ! D3    D(4,1,2,11)            60.2211         estimate D2E/DX2                !
 ! D4    D(5,1,2,3)             62.0854         estimate D2E/DX2                !
 ! D5    D(5,1,2,7)            -59.0649         estimate D2E/DX2                !
 ! D6    D(5,1,2,11)          -178.9922         estimate D2E/DX2                !
 ! D7    D(6,1,2,3)           -177.9371         estimate D2E/DX2                !
 ! D8    D(6,1,2,7)             60.9125         estimate D2E/DX2                !
 ! D9    D(6,1,2,11)           -59.0148         estimate D2E/DX2                !
 ! D10   D(1,2,7,8)            179.8529         estimate D2E/DX2                !
 ! D11   D(1,2,7,9)            -60.9113         estimate D2E/DX2                !
 ! D12   D(1,2,7,10)            59.0664         estimate D2E/DX2                !
 ! D13   D(3,2,7,8)             58.7026         estimate D2E/DX2                !
 ! D14   D(3,2,7,9)            177.9383         estimate D2E/DX2                !
 ! D15   D(3,2,7,10)           -62.0839         estimate D2E/DX2                !
 ! D16   D(11,2,7,8)           -60.2212         estimate D2E/DX2                !
 ! D17   D(11,2,7,9)            59.0146         estimate D2E/DX2                !
 ! D18   D(11,2,7,10)          178.9924         estimate D2E/DX2                !
 ! D19   D(1,2,11,12)         -118.8145         estimate D2E/DX2                !
 ! D20   D(3,2,11,12)           -0.0246         estimate D2E/DX2                !
 ! D21   D(7,2,11,12)          118.7666         estimate D2E/DX2                !
 --------------------------------------------------------------------------------
 Trust Radius=3.00D-01 FncErr=1.00D-07 GrdErr=1.00D-06 EigMax=2.50D+02 EigMin=1.00D-04
 Number of steps in this run=     61 maximum allowed number of steps=    100.
 GradGradGradGradGradGradGradGradGradGradGradGradGradGradGradGradGradGrad

                          Input orientation:                          
 ---------------------------------------------------------------------
 Center     Atomic      Atomic             Coordinates (Angstroms)
 Number     Number       Type             X           Y           Z
 ---------------------------------------------------------------------
      1          6           0        1.269892   -0.681196   -0.084281
      2          6           0       -0.000002    0.043841    0.356877
      3          1           0       -0.000015    0.134065    1.453919
      4          1           0        2.161120   -0.138282    0.249111
      5          1           0        1.304950   -1.698588    0.324813
      6          1           0        1.299641   -0.744955   -1.178515
      7          6           0       -1.269802   -0.681359   -0.084300
      8          1           0       -2.161107   -0.138548    0.249058
      9          1           0       -1.299515   -0.745139   -1.178534
     10          1           0       -1.304755   -1.698748    0.324813
     11          8           0       -0.000047    1.363891   -0.230428
     12          1           0       -0.000470    2.031353    0.468985
 ---------------------------------------------------------------------
                    Distance matrix (angstroms):
                    1          2          3          4          5
     1  C    0.000000
     2  C    1.527393   0.000000
     3  H    2.154849   1.100746   0.000000
     4  H    1.095533   2.171458   2.489225   0.000000
     5  H    1.097121   2.177151   2.517227   1.781379   0.000000
     6  H    1.096494   2.160717   3.064554   1.774349   1.780292
     7  C    2.539694   1.527398   2.154853   3.489602   2.798477
     8  H    3.489604   2.171466   2.489242   4.322227   3.801712
     9  H    2.793444   2.160720   3.064557   3.792419   3.154735
    10  H    2.798496   2.177160   2.517227   3.801720   2.609705
    11  O    2.411739   1.444804   2.085545   2.675280   3.374920
    12  H    3.045956   1.990671   2.137708   3.070526   3.954411
                    6          7          8          9         10
     6  H    0.000000
     7  C    2.793455   0.000000
     8  H    3.792423   1.095535   0.000000
     9  H    2.599156   1.096494   1.774348   0.000000
    10  H    3.154773   1.097121   1.781376   1.780295   0.000000
    11  O    2.652412   2.411779   2.675334   2.652457   3.374954
    12  H    3.480292   3.045675   3.070047   3.480050   3.954187
                   11         12
    11  O    0.000000
    12  H    0.966791   0.000000
 Stoichiometry    C3H8O
 Framework group  C1[X(C3H8O)]
 Deg. of freedom    30
 Full point group                 C1      NOp   1
 Largest Abelian subgroup         C1      NOp   1
 Largest concise Abelian subgroup C1      NOp   1
                         Standard orientation:                         
 ---------------------------------------------------------------------
 Center     Atomic      Atomic             Coordinates (Angstroms)
 Number     Number       Type             X           Y           Z
 ---------------------------------------------------------------------
      1          6           0        1.269892   -0.681196   -0.084281
      2          6           0       -0.000002    0.043841    0.356877
      3          1           0       -0.000015    0.134065    1.453919
      4          1           0        2.161120   -0.138282    0.249111
      5          1           0        1.304950   -1.698588    0.324813
      6          1           0        1.299641   -0.744955   -1.178515
      7          6           0       -1.269802   -0.681359   -0.084300
      8          1           0       -2.161107   -0.138548    0.249058
      9          1           0       -1.299515   -0.745139   -1.178534
     10          1           0       -1.304755   -1.698748    0.324813
     11          8           0       -0.000047    1.363891   -0.230428
     12          1           0       -0.000470    2.031353    0.468985
 ---------------------------------------------------------------------
 Rotational constants (GHZ):           8.4301502           8.0326950           4.7260636
 Standard basis: 6-31+G(d) (6D, 7F)
 There are    92 symmetry adapted cartesian basis functions of A   symmetry.
 There are    92 symmetry adapted basis functions of A   symmetry.
    92 basis functions,   160 primitive gaussians,    92 cartesian basis functions
    17 alpha electrons       17 beta electrons
       nuclear repulsion energy       133.9555199540 Hartrees.
 NAtoms=   12 NActive=   12 NUniq=   12 SFac= 1.00D+00 NAtFMM=   60 NAOKFM=F Big=F
 Integral buffers will be    131072 words long.
 Raffenetti 2 integral format.
 Two-electron integral symmetry is turned on.
 Nuclear repulsion after empirical dispersion term =      133.9492686935 Hartrees.
 One-electron integrals computed using PRISM.
 NBasis=    92 RedAO= T EigKep=  1.17D-04  NBF=    92
 NBsUse=    92 1.00D-06 EigRej= -1.00D+00 NBFU=    92
 ExpMin= 4.38D-02 ExpMax= 5.48D+03 ExpMxC= 8.25D+02 IAcc=3 IRadAn=         5 AccDes= 0.00D+00
 Harris functional with IExCor=  402 and IRadAn=       5 diagonalized for initial guess.
 HarFok:  IExCor=  402 AccDes= 0.00D+00 IRadAn=         5 IDoV= 1 UseB2=F ITyADJ=14
 ICtDFT=  3500011 ScaDFX=  1.000000  1.000000  1.000000  1.000000
 FoFCou: FMM=F IPFlag=           0 FMFlag=      100000 FMFlg1=           0
         NFxFlg=           0 DoJE=T BraDBF=F KetDBF=T FulRan=T
         wScrn=  0.000000 ICntrl=       500 IOpCl=  0 I1Cent=   200000004 NGrid=           0
         NMat0=    1 NMatS0=      1 NMatT0=    0 NMatD0=    1 NMtDS0=    0 NMtDT0=    0
 Petite list used in FoFCou.
 Keep R1 ints in memory in canonical form, NReq=38538661.
 Requested convergence on RMS density matrix=1.00D-08 within1000 cycles.
 Requested convergence on MAX density matrix=1.00D-06.
 Requested convergence on             energy=1.00D-06.
 No special actions if energy rises.
 SCF Done:  E(RB3LYP) =  -194.369627758     A.U. after   11 cycles
            NFock= 11  Conv=0.28D-08     -V/T= 2.0099

 **********************************************************************

            Population analysis using the SCF Density.

 **********************************************************************

 Orbital symmetries:
       Occupied  (A) (A) (A) (A) (A) (A) (A) (A) (A) (A) (A) (A)
                 (A) (A) (A) (A) (A)
       Virtual   (A) (A) (A) (A) (A) (A) (A) (A) (A) (A) (A) (A)
                 (A) (A) (A) (A) (A) (A) (A) (A) (A) (A) (A) (A)
                 (A) (A) (A) (A) (A) (A) (A) (A) (A) (A) (A) (A)
                 (A) (A) (A) (A) (A) (A) (A) (A) (A) (A) (A) (A)
                 (A) (A) (A) (A) (A) (A) (A) (A) (A) (A) (A) (A)
                 (A) (A) (A) (A) (A) (A) (A) (A) (A) (A) (A) (A)
                 (A) (A) (A)
 The electronic state is 1-A.
 Alpha  occ. eigenvalues --  -19.15331 -10.24424 -10.17708 -10.17708  -1.01959
 Alpha  occ. eigenvalues --   -0.77495  -0.68961  -0.58819  -0.52829  -0.44659
 Alpha  occ. eigenvalues --   -0.42678  -0.39773  -0.38849  -0.37137  -0.35743
 Alpha  occ. eigenvalues --   -0.32495  -0.27554
 Alpha virt. eigenvalues --   -0.00362   0.02898   0.03241   0.04252   0.06402
 Alpha virt. eigenvalues --    0.07079   0.07261   0.08411   0.09131   0.11151
 Alpha virt. eigenvalues --    0.11597   0.14433   0.18340   0.18735   0.19515
 Alpha virt. eigenvalues --    0.20142   0.20782   0.23432   0.24956   0.25302
 Alpha virt. eigenvalues --    0.26779   0.29912   0.29964   0.31823   0.32928
 Alpha virt. eigenvalues --    0.36224   0.38002   0.61109   0.63194   0.63595
 Alpha virt. eigenvalues --    0.68217   0.69817   0.73596   0.74318   0.77659
 Alpha virt. eigenvalues --    0.81947   0.95450   0.96333   0.97292   0.98778
 Alpha virt. eigenvalues --    1.03080   1.05156   1.08941   1.12190   1.12600
 Alpha virt. eigenvalues --    1.22134   1.24972   1.28760   1.37745   1.43826
 Alpha virt. eigenvalues --    1.48537   1.57631   1.68170   1.74905   1.78699
 Alpha virt. eigenvalues --    1.83840   1.86643   1.98310   1.99072   2.05540
 Alpha virt. eigenvalues --    2.15408   2.21627   2.23775   2.25715   2.26752
 Alpha virt. eigenvalues --    2.48166   2.51229   2.53695   2.62916   2.72283
 Alpha virt. eigenvalues --    2.90435   4.11039   4.24392   4.31823   4.54587
          Condensed to atoms (all electrons):
               1          2          3          4          5          6
     1  C    6.062145   0.099017  -0.041883   0.376567   0.355728   0.403067
     2  C    0.099017   5.409994   0.374288  -0.044202  -0.038295  -0.055130
     3  H   -0.041883   0.374288   0.607198  -0.004466  -0.001773   0.004782
     4  H    0.376567  -0.044202  -0.004466   0.506784  -0.027399  -0.025975
     5  H    0.355728  -0.038295  -0.001773  -0.027399   0.526688  -0.029201
     6  H    0.403067  -0.055130   0.004782  -0.025975  -0.029201   0.494916
     7  C   -0.533236   0.099374  -0.041890   0.017946   0.010996  -0.005450
     8  H    0.017954  -0.044211  -0.004466  -0.000142   0.000010  -0.000030
     9  H   -0.005459  -0.055135   0.004782  -0.000030   0.000023   0.003182
    10  H    0.011013  -0.038316  -0.001772   0.000010  -0.000137   0.000023
    11  O   -0.170452   0.343237  -0.046105   0.000084   0.009800  -0.002320
    12  H   -0.011184   0.039895  -0.012112   0.000321  -0.000233   0.000003
               7          8          9         10         11         12
     1  C   -0.533236   0.017954  -0.005459   0.011013  -0.170452  -0.011184
     2  C    0.099374  -0.044211  -0.055135  -0.038316   0.343237   0.039895
     3  H   -0.041890  -0.004466   0.004782  -0.001772  -0.046105  -0.012112
     4  H    0.017946  -0.000142  -0.000030   0.000010   0.000084   0.000321
     5  H    0.010996   0.000010   0.000023  -0.000137   0.009800  -0.000233
     6  H   -0.005450  -0.000030   0.003182   0.000023  -0.002320   0.000003
     7  C    6.061839   0.376569   0.403084   0.355727  -0.170476  -0.011236
     8  H    0.376569   0.506803  -0.025976  -0.027400   0.000081   0.000322
     9  H    0.403084  -0.025976   0.494912  -0.029200  -0.002321   0.000003
    10  H    0.355727  -0.027400  -0.029200   0.526691   0.009801  -0.000233
    11  O   -0.170476   0.000081  -0.002321   0.009801   8.457142   0.182214
    12  H   -0.011236   0.000322   0.000003  -0.000233   0.182214   0.360772
 Mulliken charges:
               1
     1  C   -0.563276
     2  C   -0.090514
     3  H    0.163416
     4  H    0.200501
     5  H    0.193793
     6  H    0.212132
     7  C   -0.563247
     8  H    0.200486
     9  H    0.212135
    10  H    0.193792
    11  O   -0.610686
    12  H    0.451468
 Sum of Mulliken charges =   0.00000
 Mulliken charges with hydrogens summed into heavy atoms:
               1
     1  C    0.043150
     2  C    0.072902
     7  C    0.043166
    11  O   -0.159218
 Electronic spatial extent (au):  <R**2>=            322.8994
 Charge=              0.0000 electrons
 Dipole moment (field-independent basis, Debye):
    X=             -0.0006    Y=             -0.3672    Z=              1.8044  Tot=              1.8414
 Quadrupole moment (field-independent basis, Debye-Ang):
   XX=            -27.7351   YY=            -25.7869   ZZ=            -26.6888
   XY=             -0.0018   XZ=             -0.0006   YZ=              3.2975
 Traceless Quadrupole moment (field-independent basis, Debye-Ang):
   XX=             -0.9982   YY=              0.9500   ZZ=              0.0482
   XY=             -0.0018   XZ=             -0.0006   YZ=              3.2975
 Octapole moment (field-independent basis, Debye-Ang**2):
  XXX=             -0.0001  YYY=             12.4809  ZZZ=             -0.1499  XYY=             -0.0040
  XXY=              2.4170  XXZ=              0.7024  XZZ=             -0.0001  YZZ=              2.0571
  YYZ=              6.9015  XYZ=             -0.0012
 Hexadecapole moment (field-independent basis, Debye-Ang**3):
 XXXX=           -210.7204 YYYY=           -145.8381 ZZZZ=            -58.6047 XXXY=             -0.0013
 XXXZ=             -0.0003 YYYX=             -0.0110 YYYZ=              9.2564 ZZZX=             -0.0007
 ZZZY=              2.8700 XXYY=            -66.4177 XXZZ=            -45.6613 YYZZ=            -37.9457
 XXYZ=              0.8129 YYXZ=             -0.0021 ZZXY=             -0.0008
 N-N= 1.339492686935D+02 E-N=-7.202335986215D+02  KE= 1.924590523577D+02
 Evaluate density.
 Using the total density.
 Monte-Carlo method of calculating molar volume:
 based on  0.001 e/bohr**3 density envelope.
 Number of points per bohr**3 =   20 CutOff= 1.00D-04
 Using the SCF density.
 There are       311 points.  Will hold       311 in memory.
 LenV=  8321460724 MDV=  8321499136.
 Box volume = 3791.651 fraction occupied=0.203
 Integrated density= 3.2939294939427242D+01 error=-1.0607050605727579D+00
 Molar volume =  768.084 bohr**3/mol ( 68.543 cm**3/mol)
 Recommended a0 for SCRF calculation =  3.81 angstrom (  7.20 bohr)
 Calling FoFJK, ICntrl=      2127 FMM=F ISym2X=0 I1Cent= 0 IOpClX= 0 NMat=1 NMatS=1 NMatT=0.
 ***** Axes restored to original set *****
 -------------------------------------------------------------------
 Center     Atomic                   Forces (Hartrees/Bohr)
 Number     Number              X              Y              Z
 -------------------------------------------------------------------
      1        6          -0.000033984    0.000027638    0.000022031
      2        6          -0.000001520   -0.000006361   -0.000007510
      3        1           0.000000746    0.000005147   -0.000013490
      4        1           0.000004800   -0.000005595    0.000003521
      5        1           0.000003725   -0.000011632   -0.000008945
      6        1           0.000012188    0.000005201   -0.000003076
      7        6           0.000033772    0.000026980    0.000022368
      8        1          -0.000004987   -0.000005661    0.000003637
      9        1          -0.000012140    0.000005194   -0.000002609
     10        1          -0.000003977   -0.000011627   -0.000008779
     11        8           0.000003633   -0.000045178   -0.000012338
     12        1          -0.000002255    0.000015894    0.000005190
 -------------------------------------------------------------------
 Cartesian Forces:  Max     0.000045178 RMS     0.000015395

 GradGradGradGradGradGradGradGradGradGradGradGradGradGradGradGradGradGrad
 Berny optimization.
 FormGI is forming the generalized inverse of G from B-inverse, IUseBI=4.
 Internal  Forces:  Max     0.000023957 RMS     0.000009681
 Search for a local minimum.
 Step number   1 out of a maximum of   61
 All quantities printed in internal units (Hartrees-Bohrs-Radians)
 Mixed Optimization -- En-DIIS/RFO-DIIS
 Second derivative matrix not updated -- first step.
 ITU=  0
     Eigenvalues ---    0.00404   0.00404   0.01099   0.04339   0.04948
     Eigenvalues ---    0.05563   0.05563   0.05714   0.05714   0.07323
     Eigenvalues ---    0.16000   0.16000   0.16000   0.16000   0.16000
     Eigenvalues ---    0.16000   0.16000   0.16659   0.19568   0.29665
     Eigenvalues ---    0.29665   0.33600   0.34002   0.34003   0.34073
     Eigenvalues ---    0.34073   0.34181   0.34181   0.38934   0.54038
 RFO step:  Lambda=-1.60165274D-07 EMin= 4.03526352D-03
 Linear search not attempted -- first point.
 Iteration  1 RMS(Cart)=  0.00082255 RMS(Int)=  0.00000039
 Iteration  2 RMS(Cart)=  0.00000042 RMS(Int)=  0.00000000
 Variable       Old X    -DE/DX   Delta X   Delta X   Delta X     New X
                                 (Linear)    (Quad)   (Total)
    R1        2.88635  -0.00002   0.00000  -0.00008  -0.00008   2.88628
    R2        2.07026   0.00000   0.00000   0.00001   0.00001   2.07026
    R3        2.07326   0.00001   0.00000   0.00002   0.00002   2.07328
    R4        2.07207   0.00000   0.00000   0.00001   0.00001   2.07208
    R5        2.08011  -0.00001   0.00000  -0.00004  -0.00004   2.08007
    R6        2.88636  -0.00002   0.00000  -0.00007  -0.00007   2.88629
    R7        2.73028  -0.00002   0.00000  -0.00006  -0.00006   2.73022
    R8        2.07026   0.00000   0.00000   0.00001   0.00001   2.07027
    R9        2.07207   0.00000   0.00000   0.00001   0.00001   2.07208
   R10        2.07326   0.00001   0.00000   0.00002   0.00002   2.07328
   R11        1.82697   0.00001   0.00000   0.00003   0.00003   1.82700
    A1        1.93181   0.00000   0.00000   0.00002   0.00002   1.93183
    A2        1.93806   0.00001   0.00000   0.00008   0.00008   1.93814
    A3        1.91601   0.00001   0.00000   0.00004   0.00004   1.91605
    A4        1.89662  -0.00001   0.00000  -0.00003  -0.00003   1.89659
    A5        1.88645  -0.00001   0.00000  -0.00007  -0.00007   1.88638
    A6        1.89370  -0.00001   0.00000  -0.00004  -0.00004   1.89366
    A7        1.90369  -0.00001   0.00000  -0.00002  -0.00002   1.90366
    A8        1.96318   0.00002   0.00000   0.00010   0.00010   1.96327
    A9        1.89264  -0.00001   0.00000  -0.00008  -0.00008   1.89257
   A10        1.90369  -0.00001   0.00000  -0.00002  -0.00002   1.90367
   A11        1.90735   0.00001   0.00000   0.00009   0.00009   1.90744
   A12        1.89268  -0.00001   0.00000  -0.00007  -0.00007   1.89262
   A13        1.93182   0.00000   0.00000   0.00002   0.00002   1.93183
   A14        1.91600   0.00001   0.00000   0.00004   0.00004   1.91605
   A15        1.93806   0.00001   0.00000   0.00008   0.00008   1.93814
   A16        1.88645  -0.00001   0.00000  -0.00007  -0.00007   1.88638
   A17        1.89661  -0.00001   0.00000  -0.00003  -0.00003   1.89658
   A18        1.89370  -0.00001   0.00000  -0.00004  -0.00004   1.89366
   A19        1.91421   0.00001   0.00000   0.00009   0.00009   1.91430
    D1       -1.02453   0.00000   0.00000   0.00136   0.00136  -1.02317
    D2       -3.13900   0.00000   0.00000   0.00134   0.00134  -3.13766
    D3        1.05106   0.00001   0.00000   0.00141   0.00141   1.05247
    D4        1.08360   0.00001   0.00000   0.00138   0.00138   1.08498
    D5       -1.03088   0.00000   0.00000   0.00136   0.00136  -1.02951
    D6       -3.12400   0.00001   0.00000   0.00144   0.00144  -3.12257
    D7       -3.10559   0.00001   0.00000   0.00141   0.00141  -3.10418
    D8        1.06312   0.00000   0.00000   0.00139   0.00139   1.06451
    D9       -1.03000   0.00001   0.00000   0.00146   0.00146  -1.02854
   D10        3.13903   0.00000   0.00000  -0.00133  -0.00133   3.13770
   D11       -1.06310   0.00000   0.00000  -0.00138  -0.00138  -1.06448
   D12        1.03090   0.00000   0.00000  -0.00135  -0.00135   1.02955
   D13        1.02455   0.00000   0.00000  -0.00135  -0.00135   1.02320
   D14        3.10561  -0.00001   0.00000  -0.00140  -0.00140   3.10421
   D15       -1.08357  -0.00001   0.00000  -0.00137  -0.00137  -1.08494
   D16       -1.05106  -0.00001   0.00000  -0.00141  -0.00141  -1.05247
   D17        1.03000  -0.00001   0.00000  -0.00146  -0.00146   1.02854
   D18        3.12401  -0.00001   0.00000  -0.00143  -0.00143   3.12258
   D19       -2.07370   0.00001   0.00000  -0.00010  -0.00010  -2.07380
   D20       -0.00043   0.00000   0.00000  -0.00012  -0.00012  -0.00055
   D21        2.07287  -0.00001   0.00000  -0.00013  -0.00013   2.07274
         Item               Value     Threshold  Converged?
 Maximum Force            0.000024     0.000450     YES
 RMS     Force            0.000010     0.000300     YES
 Maximum Displacement     0.002264     0.001800     NO 
 RMS     Displacement     0.000823     0.001200     YES
 Predicted change in Energy=-8.008277D-08
 GradGradGradGradGradGradGradGradGradGradGradGradGradGradGradGradGradGrad

                          Input orientation:                          
 ---------------------------------------------------------------------
 Center     Atomic      Atomic             Coordinates (Angstroms)
 Number     Number       Type             X           Y           Z
 ---------------------------------------------------------------------
      1          6           0        1.269905   -0.681231   -0.084084
      2          6           0        0.000008    0.043892    0.356784
      3          1           0       -0.000002    0.134494    1.453775
      4          1           0        2.161116   -0.138898    0.250309
      5          1           0        1.304402   -1.698984    0.324192
      6          1           0        1.300421   -0.744135   -1.178351
      7          6           0       -1.269806   -0.681380   -0.084099
      8          1           0       -2.161087   -0.139134    0.250255
      9          1           0       -1.300286   -0.744314   -1.178365
     10          1           0       -1.304216   -1.699125    0.324206
     11          8           0       -0.000022    1.363654   -0.231087
     12          1           0       -0.000544    2.031495    0.467984
 ---------------------------------------------------------------------
                    Distance matrix (angstroms):
                    1          2          3          4          5
     1  C    0.000000
     2  C    1.527353   0.000000
     3  H    2.154782   1.100725   0.000000
     4  H    1.095537   2.171436   2.488675   0.000000
     5  H    1.097132   2.177182   2.517751   1.781372   0.000000
     6  H    1.096498   2.160718   3.064503   1.774310   1.780278
     7  C    2.539712   1.527359   2.154787   3.489605   2.797994
     8  H    3.489607   2.171446   2.488698   4.322202   3.801080
     9  H    2.794157   2.160721   3.064507   3.793276   3.154913
    10  H    2.798018   2.177192   2.517748   3.801091   2.608618
    11  O    2.411613   1.444772   2.085568   2.675802   3.374849
    12  H    3.045933   1.990712   2.137848   3.070954   3.954748
                    6          7          8          9         10
     6  H    0.000000
     7  C    2.794172   0.000000
     8  H    3.793281   1.095538   0.000000
     9  H    2.600708   1.096498   1.774310   0.000000
    10  H    3.154967   1.097133   1.781367   1.780281   0.000000
    11  O    2.651648   2.411664   2.675867   2.651707   3.374890
    12  H    3.479519   3.045573   3.070339   3.479211   3.954460
                   11         12
    11  O    0.000000
    12  H    0.966805   0.000000
 Stoichiometry    C3H8O
 Framework group  C1[X(C3H8O)]
 Deg. of freedom    30
 Full point group                 C1      NOp   1
 Largest Abelian subgroup         C1      NOp   1
 Largest concise Abelian subgroup C1      NOp   1
                         Standard orientation:                         
 ---------------------------------------------------------------------
 Center     Atomic      Atomic             Coordinates (Angstroms)
 Number     Number       Type             X           Y           Z
 ---------------------------------------------------------------------
      1          6           0        1.269916   -0.681112   -0.084280
      2          6           0       -0.000003    0.043789    0.356894
      3          1           0       -0.000020    0.133922    1.453923
      4          1           0        2.161110   -0.138897    0.250349
      5          1           0        1.304439   -1.699038    0.323561
      6          1           0        1.300438   -0.743546   -1.178574
      7          6           0       -1.269796   -0.681328   -0.084305
      8          1           0       -2.161092   -0.139249    0.250277
      9          1           0       -1.300270   -0.743795   -1.178598
     10          1           0       -1.304179   -1.699249    0.323565
     11          8           0       -0.000065    1.363802   -0.230413
     12          1           0       -0.000608    2.031344    0.468944
 ---------------------------------------------------------------------
 Rotational constants (GHZ):           8.4310568           8.0324966           4.7262722
 Standard basis: 6-31+G(d) (6D, 7F)
 There are    92 symmetry adapted cartesian basis functions of A   symmetry.
 There are    92 symmetry adapted basis functions of A   symmetry.
    92 basis functions,   160 primitive gaussians,    92 cartesian basis functions
    17 alpha electrons       17 beta electrons
       nuclear repulsion energy       133.9576018353 Hartrees.
 NAtoms=   12 NActive=   12 NUniq=   12 SFac= 1.00D+00 NAtFMM=   60 NAOKFM=F Big=F
 Integral buffers will be    131072 words long.
 Raffenetti 2 integral format.
 Two-electron integral symmetry is turned on.
 Nuclear repulsion after empirical dispersion term =      133.9513505795 Hartrees.
 One-electron integrals computed using PRISM.
 NBasis=    92 RedAO= T EigKep=  1.17D-04  NBF=    92
 NBsUse=    92 1.00D-06 EigRej= -1.00D+00 NBFU=    92
 Initial guess from the checkpoint file:  "MOLECULE_5-vol.chk"
 B after Tr=     0.000000    0.000000    0.000000
         Rot=    1.000000   -0.000107    0.000002   -0.000011 Ang=  -0.01 deg.
 Keep R1 ints in memory in canonical form, NReq=38538661.
 Requested convergence on RMS density matrix=1.00D-08 within1000 cycles.
 Requested convergence on MAX density matrix=1.00D-06.
 Requested convergence on             energy=1.00D-06.
 No special actions if energy rises.
 SCF Done:  E(RB3LYP) =  -194.369627851     A.U. after    7 cycles
            NFock=  7  Conv=0.34D-08     -V/T= 2.0099
 Calling FoFJK, ICntrl=      2127 FMM=F ISym2X=0 I1Cent= 0 IOpClX= 0 NMat=1 NMatS=1 NMatT=0.
 ***** Axes restored to original set *****
 -------------------------------------------------------------------
 Center     Atomic                   Forces (Hartrees/Bohr)
 Number     Number              X              Y              Z
 -------------------------------------------------------------------
      1        6          -0.000006436    0.000003844    0.000009495
      2        6          -0.000001838   -0.000016286   -0.000016338
      3        1           0.000000915    0.000009623   -0.000001032
      4        1           0.000005427   -0.000002285   -0.000000203
      5        1           0.000003876   -0.000000547   -0.000002765
      6        1          -0.000001355    0.000003607   -0.000000536
      7        6           0.000006149    0.000002854    0.000010528
      8        1          -0.000005758   -0.000002359   -0.000000115
      9        1           0.000001387    0.000003672   -0.000000431
     10        1          -0.000004231   -0.000000681   -0.000002525
     11        8           0.000004727   -0.000005494    0.000005756
     12        1          -0.000002863    0.000004055   -0.000001833
 -------------------------------------------------------------------
 Cartesian Forces:  Max     0.000016338 RMS     0.000005770

 GradGradGradGradGradGradGradGradGradGradGradGradGradGradGradGradGradGrad
 Berny optimization.
 Using GEDIIS/GDIIS optimizer.
 FormGI is forming the generalized inverse of G from B-inverse, IUseBI=4.
 Internal  Forces:  Max     0.000007439 RMS     0.000003477
 Search for a local minimum.
 Step number   2 out of a maximum of   61
 All quantities printed in internal units (Hartrees-Bohrs-Radians)
 Mixed Optimization -- En-DIIS/RFO-DIIS
 Swapping is turned off.
 Update second derivatives using D2CorX and points    1    2
 DE= -9.25D-08 DEPred=-8.01D-08 R= 1.15D+00
 Trust test= 1.15D+00 RLast= 5.91D-03 DXMaxT set to 3.00D-01
 ITU=  0  0
     Eigenvalues ---    0.00335   0.00404   0.01098   0.04343   0.05034
     Eigenvalues ---    0.05562   0.05565   0.05701   0.05713   0.07323
     Eigenvalues ---    0.15582   0.16000   0.16000   0.16000   0.16000
     Eigenvalues ---    0.16000   0.16346   0.16660   0.19426   0.29651
     Eigenvalues ---    0.29676   0.33615   0.34002   0.34019   0.34071
     Eigenvalues ---    0.34073   0.34181   0.34191   0.38910   0.54034
 En-DIIS/RFO-DIIS/Sim-DIIS IScMMF=       -3 using points:     2    1
 RFO step:  Lambda=-3.81941529D-09.
 DidBck=F Rises=F RFO-DIIS coefs:    1.23754   -0.23754
 Iteration  1 RMS(Cart)=  0.00018813 RMS(Int)=  0.00000002
 Iteration  2 RMS(Cart)=  0.00000002 RMS(Int)=  0.00000000
 Variable       Old X    -DE/DX   Delta X   Delta X   Delta X     New X
                                 (Linear)    (Quad)   (Total)
    R1        2.88628   0.00000  -0.00002   0.00000  -0.00001   2.88627
    R2        2.07026   0.00000   0.00000   0.00001   0.00001   2.07028
    R3        2.07328   0.00000   0.00001  -0.00001   0.00000   2.07328
    R4        2.07208   0.00000   0.00000   0.00000   0.00000   2.07208
    R5        2.08007   0.00000  -0.00001   0.00001   0.00000   2.08007
    R6        2.88629   0.00000  -0.00002   0.00001  -0.00001   2.88628
    R7        2.73022   0.00000  -0.00001   0.00000  -0.00001   2.73021
    R8        2.07027   0.00000   0.00000   0.00001   0.00001   2.07028
    R9        2.07208   0.00000   0.00000   0.00000   0.00000   2.07208
   R10        2.07328   0.00000   0.00001  -0.00001   0.00000   2.07328
   R11        1.82700   0.00000   0.00001   0.00000   0.00000   1.82700
    A1        1.93183   0.00001   0.00000   0.00005   0.00005   1.93188
    A2        1.93814   0.00001   0.00002   0.00004   0.00006   1.93820
    A3        1.91605  -0.00001   0.00001  -0.00007  -0.00006   1.91599
    A4        1.89659  -0.00001  -0.00001  -0.00002  -0.00002   1.89656
    A5        1.88638   0.00000  -0.00002  -0.00001  -0.00003   1.88635
    A6        1.89366   0.00000  -0.00001   0.00000  -0.00001   1.89365
    A7        1.90366   0.00000  -0.00001   0.00003   0.00003   1.90369
    A8        1.96327   0.00001   0.00002   0.00004   0.00006   1.96334
    A9        1.89257   0.00000  -0.00002  -0.00002  -0.00003   1.89253
   A10        1.90367   0.00000  -0.00001   0.00003   0.00003   1.90369
   A11        1.90744   0.00000   0.00002  -0.00009  -0.00007   1.90737
   A12        1.89262   0.00000  -0.00002   0.00000  -0.00002   1.89260
   A13        1.93183   0.00001   0.00000   0.00005   0.00005   1.93188
   A14        1.91605  -0.00001   0.00001  -0.00007  -0.00006   1.91599
   A15        1.93814   0.00001   0.00002   0.00005   0.00007   1.93821
   A16        1.88638   0.00000  -0.00002  -0.00001  -0.00003   1.88635
   A17        1.89658  -0.00001  -0.00001  -0.00002  -0.00003   1.89655
   A18        1.89366   0.00000  -0.00001   0.00000  -0.00001   1.89366
   A19        1.91430   0.00001   0.00002   0.00004   0.00006   1.91436
    D1       -1.02317   0.00000   0.00032   0.00004   0.00037  -1.02281
    D2       -3.13766   0.00000   0.00032  -0.00005   0.00027  -3.13739
    D3        1.05247   0.00000   0.00034  -0.00006   0.00027   1.05274
    D4        1.08498   0.00000   0.00033   0.00009   0.00041   1.08539
    D5       -1.02951   0.00000   0.00032   0.00000   0.00032  -1.02919
    D6       -3.12257   0.00000   0.00034  -0.00002   0.00032  -3.12224
    D7       -3.10418   0.00000   0.00033   0.00007   0.00041  -3.10377
    D8        1.06451   0.00000   0.00033  -0.00002   0.00031   1.06483
    D9       -1.02854   0.00000   0.00035  -0.00003   0.00032  -1.02823
   D10        3.13770   0.00000  -0.00032   0.00006  -0.00026   3.13744
   D11       -1.06448   0.00000  -0.00033   0.00003  -0.00030  -1.06478
   D12        1.02955   0.00000  -0.00032   0.00002  -0.00030   1.02925
   D13        1.02320   0.00000  -0.00032  -0.00003  -0.00035   1.02285
   D14        3.10421   0.00000  -0.00033  -0.00006  -0.00039   3.10382
   D15       -1.08494   0.00000  -0.00033  -0.00007  -0.00040  -1.08534
   D16       -1.05247   0.00000  -0.00033   0.00006  -0.00027  -1.05274
   D17        1.02854   0.00000  -0.00035   0.00003  -0.00031   1.02823
   D18        3.12258   0.00000  -0.00034   0.00002  -0.00032   3.12226
   D19       -2.07380   0.00000  -0.00002  -0.00014  -0.00016  -2.07396
   D20       -0.00055   0.00000  -0.00003  -0.00016  -0.00019  -0.00074
   D21        2.07274   0.00000  -0.00003  -0.00017  -0.00021   2.07253
         Item               Value     Threshold  Converged?
 Maximum Force            0.000007     0.000450     YES
 RMS     Force            0.000003     0.000300     YES
 Maximum Displacement     0.000464     0.001800     YES
 RMS     Displacement     0.000188     0.001200     YES
 Predicted change in Energy=-6.077952D-09
 Optimization completed.
    -- Stationary point found.
                           ----------------------------
                           !   Optimized Parameters   !
                           ! (Angstroms and Degrees)  !
 --------------------------                            --------------------------
 ! Name  Definition              Value          Derivative Info.                !
 --------------------------------------------------------------------------------
 ! R1    R(1,2)                  1.5274         -DE/DX =    0.0                 !
 ! R2    R(1,4)                  1.0955         -DE/DX =    0.0                 !
 ! R3    R(1,5)                  1.0971         -DE/DX =    0.0                 !
 ! R4    R(1,6)                  1.0965         -DE/DX =    0.0                 !
 ! R5    R(2,3)                  1.1007         -DE/DX =    0.0                 !
 ! R6    R(2,7)                  1.5274         -DE/DX =    0.0                 !
 ! R7    R(2,11)                 1.4448         -DE/DX =    0.0                 !
 ! R8    R(7,8)                  1.0955         -DE/DX =    0.0                 !
 ! R9    R(7,9)                  1.0965         -DE/DX =    0.0                 !
 ! R10   R(7,10)                 1.0971         -DE/DX =    0.0                 !
 ! R11   R(11,12)                0.9668         -DE/DX =    0.0                 !
 ! A1    A(2,1,4)              110.6855         -DE/DX =    0.0                 !
 ! A2    A(2,1,5)              111.0471         -DE/DX =    0.0                 !
 ! A3    A(2,1,6)              109.7816         -DE/DX =    0.0                 !
 ! A4    A(4,1,5)              108.6664         -DE/DX =    0.0                 !
 ! A5    A(4,1,6)              108.0816         -DE/DX =    0.0                 !
 ! A6    A(5,1,6)              108.4986         -DE/DX =    0.0                 !
 ! A7    A(1,2,3)              109.0719         -DE/DX =    0.0                 !
 ! A8    A(1,2,7)              112.4873         -DE/DX =    0.0                 !
 ! A9    A(1,2,11)             108.4361         -DE/DX =    0.0                 !
 ! A10   A(3,2,7)              109.072          -DE/DX =    0.0                 !
 ! A11   A(3,2,11)             109.2885         -DE/DX =    0.0                 !
 ! A12   A(7,2,11)             108.4391         -DE/DX =    0.0                 !
 ! A13   A(2,7,8)              110.6858         -DE/DX =    0.0                 !
 ! A14   A(2,7,9)              109.7815         -DE/DX =    0.0                 !
 ! A15   A(2,7,10)             111.0475         -DE/DX =    0.0                 !
 ! A16   A(8,7,9)              108.0814         -DE/DX =    0.0                 !
 ! A17   A(8,7,10)             108.6658         -DE/DX =    0.0                 !
 ! A18   A(9,7,10)             108.4988         -DE/DX =    0.0                 !
 ! A19   A(2,11,12)            109.6812         -DE/DX =    0.0                 !
 ! D1    D(4,1,2,3)            -58.6234         -DE/DX =    0.0                 !
 ! D2    D(4,1,2,7)           -179.7748         -DE/DX =    0.0                 !
 ! D3    D(4,1,2,11)            60.302          -DE/DX =    0.0                 !
 ! D4    D(5,1,2,3)             62.1647         -DE/DX =    0.0                 !
 ! D5    D(5,1,2,7)            -58.9868         -DE/DX =    0.0                 !
 ! D6    D(5,1,2,11)          -178.9099         -DE/DX =    0.0                 !
 ! D7    D(6,1,2,3)           -177.8564         -DE/DX =    0.0                 !
 ! D8    D(6,1,2,7)             60.9921         -DE/DX =    0.0                 !
 ! D9    D(6,1,2,11)           -58.931          -DE/DX =    0.0                 !
 ! D10   D(1,2,7,8)            179.7767         -DE/DX =    0.0                 !
 ! D11   D(1,2,7,9)            -60.9903         -DE/DX =    0.0                 !
 ! D12   D(1,2,7,10)            58.989          -DE/DX =    0.0                 !
 ! D13   D(3,2,7,8)             58.6253         -DE/DX =    0.0                 !
 ! D14   D(3,2,7,9)            177.8582         -DE/DX =    0.0                 !
 ! D15   D(3,2,7,10)           -62.1624         -DE/DX =    0.0                 !
 ! D16   D(11,2,7,8)           -60.3019         -DE/DX =    0.0                 !
 ! D17   D(11,2,7,9)            58.9311         -DE/DX =    0.0                 !
 ! D18   D(11,2,7,10)          178.9104         -DE/DX =    0.0                 !
 ! D19   D(1,2,11,12)         -118.8202         -DE/DX =    0.0                 !
 ! D20   D(3,2,11,12)           -0.0315         -DE/DX =    0.0                 !
 ! D21   D(7,2,11,12)          118.759          -DE/DX =    0.0                 !
 --------------------------------------------------------------------------------
 GradGradGradGradGradGradGradGradGradGradGradGradGradGradGradGradGradGrad

                          Input orientation:                          
 ---------------------------------------------------------------------
 Center     Atomic      Atomic             Coordinates (Angstroms)
 Number     Number       Type             X           Y           Z
 ---------------------------------------------------------------------
      1          6           0        1.269905   -0.681231   -0.084084
      2          6           0        0.000008    0.043892    0.356784
      3          1           0       -0.000002    0.134494    1.453775
      4          1           0        2.161116   -0.138898    0.250309
      5          1           0        1.304402   -1.698984    0.324192
      6          1           0        1.300421   -0.744135   -1.178351
      7          6           0       -1.269806   -0.681380   -0.084099
      8          1           0       -2.161087   -0.139134    0.250255
      9          1           0       -1.300286   -0.744314   -1.178365
     10          1           0       -1.304216   -1.699125    0.324206
     11          8           0       -0.000022    1.363654   -0.231087
     12          1           0       -0.000544    2.031495    0.467984
 ---------------------------------------------------------------------
                    Distance matrix (angstroms):
                    1          2          3          4          5
     1  C    0.000000
     2  C    1.527353   0.000000
     3  H    2.154782   1.100725   0.000000
     4  H    1.095537   2.171436   2.488675   0.000000
     5  H    1.097132   2.177182   2.517751   1.781372   0.000000
     6  H    1.096498   2.160718   3.064503   1.774310   1.780278
     7  C    2.539712   1.527359   2.154787   3.489605   2.797994
     8  H    3.489607   2.171446   2.488698   4.322202   3.801080
     9  H    2.794157   2.160721   3.064507   3.793276   3.154913
    10  H    2.798018   2.177192   2.517748   3.801091   2.608618
    11  O    2.411613   1.444772   2.085568   2.675802   3.374849
    12  H    3.045933   1.990712   2.137848   3.070954   3.954748
                    6          7          8          9         10
     6  H    0.000000
     7  C    2.794172   0.000000
     8  H    3.793281   1.095538   0.000000
     9  H    2.600708   1.096498   1.774310   0.000000
    10  H    3.154967   1.097133   1.781367   1.780281   0.000000
    11  O    2.651648   2.411664   2.675867   2.651707   3.374890
    12  H    3.479519   3.045573   3.070339   3.479211   3.954460
                   11         12
    11  O    0.000000
    12  H    0.966805   0.000000
 Stoichiometry    C3H8O
 Framework group  C1[X(C3H8O)]
 Deg. of freedom    30
 Full point group                 C1      NOp   1
 Largest Abelian subgroup         C1      NOp   1
 Largest concise Abelian subgroup C1      NOp   1
                         Standard orientation:                         
 ---------------------------------------------------------------------
 Center     Atomic      Atomic             Coordinates (Angstroms)
 Number     Number       Type             X           Y           Z
 ---------------------------------------------------------------------
      1          6           0        1.269916   -0.681112   -0.084280
      2          6           0       -0.000003    0.043789    0.356894
      3          1           0       -0.000020    0.133922    1.453923
      4          1           0        2.161110   -0.138897    0.250349
      5          1           0        1.304439   -1.699038    0.323561
      6          1           0        1.300438   -0.743546   -1.178574
      7          6           0       -1.269796   -0.681328   -0.084305
      8          1           0       -2.161092   -0.139249    0.250277
      9          1           0       -1.300270   -0.743795   -1.178598
     10          1           0       -1.304179   -1.699249    0.323565
     11          8           0       -0.000065    1.363802   -0.230413
     12          1           0       -0.000608    2.031344    0.468944
 ---------------------------------------------------------------------
 Rotational constants (GHZ):           8.4310568           8.0324966           4.7262722

 **********************************************************************

            Population analysis using the SCF Density.

 **********************************************************************

 Orbital symmetries:
       Occupied  (A) (A) (A) (A) (A) (A) (A) (A) (A) (A) (A) (A)
                 (A) (A) (A) (A) (A)
       Virtual   (A) (A) (A) (A) (A) (A) (A) (A) (A) (A) (A) (A)
                 (A) (A) (A) (A) (A) (A) (A) (A) (A) (A) (A) (A)
                 (A) (A) (A) (A) (A) (A) (A) (A) (A) (A) (A) (A)
                 (A) (A) (A) (A) (A) (A) (A) (A) (A) (A) (A) (A)
                 (A) (A) (A) (A) (A) (A) (A) (A) (A) (A) (A) (A)
                 (A) (A) (A) (A) (A) (A) (A) (A) (A) (A) (A) (A)
                 (A) (A) (A)
 The electronic state is 1-A.
 Alpha  occ. eigenvalues --  -19.15331 -10.24423 -10.17708 -10.17707  -1.01960
 Alpha  occ. eigenvalues --   -0.77495  -0.68961  -0.58819  -0.52831  -0.44660
 Alpha  occ. eigenvalues --   -0.42679  -0.39770  -0.38849  -0.37137  -0.35743
 Alpha  occ. eigenvalues --   -0.32495  -0.27554
 Alpha virt. eigenvalues --   -0.00362   0.02898   0.03241   0.04252   0.06401
 Alpha virt. eigenvalues --    0.07080   0.07261   0.08412   0.09131   0.11152
 Alpha virt. eigenvalues --    0.11600   0.14433   0.18334   0.18734   0.19519
 Alpha virt. eigenvalues --    0.20146   0.20780   0.23431   0.24964   0.25301
 Alpha virt. eigenvalues --    0.26771   0.29918   0.29967   0.31826   0.32929
 Alpha virt. eigenvalues --    0.36222   0.37999   0.61109   0.63194   0.63595
 Alpha virt. eigenvalues --    0.68221   0.69825   0.73604   0.74314   0.77656
 Alpha virt. eigenvalues --    0.81950   0.95445   0.96332   0.97280   0.98778
 Alpha virt. eigenvalues --    1.03080   1.05160   1.08940   1.12196   1.12603
 Alpha virt. eigenvalues --    1.22125   1.24975   1.28760   1.37741   1.43834
 Alpha virt. eigenvalues --    1.48540   1.57633   1.68167   1.74904   1.78699
 Alpha virt. eigenvalues --    1.83847   1.86648   1.98322   1.99061   2.05552
 Alpha virt. eigenvalues --    2.15387   2.21617   2.23800   2.25717   2.26752
 Alpha virt. eigenvalues --    2.48158   2.51229   2.53704   2.62925   2.72286
 Alpha virt. eigenvalues --    2.90439   4.11040   4.24394   4.31827   4.54588
          Condensed to atoms (all electrons):
               1          2          3          4          5          6
     1  C    6.061948   0.099051  -0.041919   0.376578   0.355742   0.403077
     2  C    0.099051   5.409522   0.374375  -0.044220  -0.038307  -0.055061
     3  H   -0.041919   0.374375   0.607188  -0.004480  -0.001762   0.004782
     4  H    0.376578  -0.044220  -0.004480   0.506836  -0.027405  -0.025981
     5  H    0.355742  -0.038307  -0.001762  -0.027405   0.526708  -0.029199
     6  H    0.403077  -0.055061   0.004782  -0.025981  -0.029199   0.494856
     7  C   -0.532949   0.099510  -0.041928   0.017947   0.010985  -0.005486
     8  H    0.017957  -0.044232  -0.004480  -0.000142   0.000011  -0.000030
     9  H   -0.005498  -0.055068   0.004782  -0.000030   0.000024   0.003171
    10  H    0.011007  -0.038333  -0.001760   0.000011  -0.000136   0.000024
    11  O   -0.170489   0.343303  -0.046111   0.000097   0.009801  -0.002341
    12  H   -0.011171   0.039879  -0.012113   0.000320  -0.000233   0.000004
               7          8          9         10         11         12
     1  C   -0.532949   0.017957  -0.005498   0.011007  -0.170489  -0.011171
     2  C    0.099510  -0.044232  -0.055068  -0.038333   0.343303   0.039879
     3  H   -0.041928  -0.004480   0.004782  -0.001760  -0.046111  -0.012113
     4  H    0.017947  -0.000142  -0.000030   0.000011   0.000097   0.000320
     5  H    0.010985   0.000011   0.000024  -0.000136   0.009801  -0.000233
     6  H   -0.005486  -0.000030   0.003171   0.000024  -0.002341   0.000004
     7  C    6.061555   0.376581   0.403100   0.355741  -0.170520  -0.011237
     8  H    0.376581   0.506860  -0.025982  -0.027407   0.000093   0.000322
     9  H    0.403100  -0.025982   0.494850  -0.029198  -0.002342   0.000004
    10  H    0.355741  -0.027407  -0.029198   0.526712   0.009803  -0.000233
    11  O   -0.170520   0.000093  -0.002342   0.009803   8.457157   0.182227
    12  H   -0.011237   0.000322   0.000004  -0.000233   0.182227   0.360761
 Mulliken charges:
               1
     1  C   -0.563336
     2  C   -0.090417
     3  H    0.163425
     4  H    0.200469
     5  H    0.193770
     6  H    0.212185
     7  C   -0.563299
     8  H    0.200451
     9  H    0.212188
    10  H    0.193769
    11  O   -0.610676
    12  H    0.451471
 Sum of Mulliken charges =   0.00000
 Mulliken charges with hydrogens summed into heavy atoms:
               1
     1  C    0.043089
     2  C    0.073007
     7  C    0.043109
    11  O   -0.159205
 Electronic spatial extent (au):  <R**2>=            322.8911
 Charge=              0.0000 electrons
 Dipole moment (field-independent basis, Debye):
    X=             -0.0008    Y=             -0.3668    Z=              1.8042  Tot=              1.8411
 Quadrupole moment (field-independent basis, Debye-Ang):
   XX=            -27.7354   YY=            -25.7862   ZZ=            -26.6886
   XY=             -0.0024   XZ=             -0.0008   YZ=              3.2973
 Traceless Quadrupole moment (field-independent basis, Debye-Ang):
   XX=             -0.9987   YY=              0.9506   ZZ=              0.0481
   XY=             -0.0024   XZ=             -0.0008   YZ=              3.2973
 Octapole moment (field-independent basis, Debye-Ang**2):
  XXX=             -0.0001  YYY=             12.4795  ZZZ=             -0.1505  XYY=             -0.0052
  XXY=              2.4156  XXZ=              0.7026  XZZ=             -0.0002  YZZ=              2.0607
  YYZ=              6.8997  XYZ=             -0.0016
 Hexadecapole moment (field-independent basis, Debye-Ang**3):
 XXXX=           -210.7328 YYYY=           -145.8070 ZZZZ=            -58.6029 XXXY=             -0.0017
 XXXZ=             -0.0003 YYYX=             -0.0143 YYYZ=              9.2581 ZZZX=             -0.0009
 ZZZY=              2.8674 XXYY=            -66.4201 XXZZ=            -45.6558 YYZZ=            -37.9500
 XXYZ=              0.8158 YYXZ=             -0.0028 ZZXY=             -0.0010
 N-N= 1.339513505795D+02 E-N=-7.202378761868D+02  KE= 1.924591815749D+02
 Evaluate density.
 Using the total density.
 Monte-Carlo method of calculating molar volume:
 based on  0.001 e/bohr**3 density envelope.
 Number of points per bohr**3 =   20 CutOff= 1.00D-04
 Using the SCF density.
 There are       311 points.  Will hold       311 in memory.
 LenV=  8321460724 MDV=  8321499136.
 Box volume = 3791.613 fraction occupied=0.186
 Integrated density= 9.5359720464302626D+01 error= 6.1359720464302626D+01
 Molar volume =  707.118 bohr**3/mol ( 63.102 cm**3/mol)
 Recommended a0 for SCRF calculation =  3.72 angstrom (  7.03 bohr)
 1\1\GINC-IP-172-31-1-231\FOpt\RB3LYP\6-31+G(d)\C3H8O1\UBUNTU\15-Sep-20
 23\0\\# opt freq b3lyp/6-31+g(d) empiricaldispersion=gd3 scf=maxcycle=
 1000 volume\\Title Card Required\\0,1\C,1.2699053067,-0.681231408,-0.0
 840842239\C,0.0000078855,0.0438916469,0.3567844392\H,-0.0000022118,0.1
 344944001,1.4537746699\H,2.1611157543,-0.1388976739,0.2503088118\H,1.3
 044023125,-1.6989836967,0.3241919949\H,1.3004213254,-0.7441349734,-1.1
 783514756\C,-1.269806421,-0.6813799617,-0.0840988907\H,-2.1610866287,-
 0.1391336335,0.2502548782\H,-1.3002862411,-0.7443138668,-1.1783649236\
 H,-1.304215525,-1.699124855,0.3242060107\O,-0.0000215401,1.3636538285,
 -0.231087028\H,-0.0005440168,2.0314951935,0.4679837373\\Version=EM64L-
 G16RevB.01\State=1-A\HF=-194.3696279\RMSD=3.378e-09\RMSF=5.770e-06\Dip
 ole=-0.0002977,-0.1440206,0.7098816\Quadrupole=-0.7424874,0.7088144,0.
 033673,-0.0017077,-0.0005382,2.451153\PG=C01 [X(C3H8O1)]\\@


 I KNOW YOU BELIEVE YOU UNDERSTAND WHAT YOU THINK I SAID,
 BUT I AM NOT SURE YOU REALIZE THAT WHAT YOU HEARD IS NOT WHAT I MEANT.
 Job cpu time:       0 days  0 hours  2 minutes 55.1 seconds.
 Elapsed time:       0 days  0 hours  0 minutes  5.5 seconds.
 File lengths (MBytes):  RWF=     10 Int=      0 D2E=      0 Chk=      2 Scr=      1
 Normal termination of Gaussian 16 at Fri Sep 15 07:31:31 2023.
 Link1:  Proceeding to internal job step number  2.
 ---------------------------------------------------------------------
 #N Geom=AllCheck Guess=TCheck SCRF=Check GenChk RB3LYP/6-31+G(d) Freq
 ---------------------------------------------------------------------
 1/10=4,29=7,30=1,38=1,40=1/1,3;
 2/12=2,40=1/2;
 3/5=1,6=6,7=11,11=2,14=-4,25=1,30=1,70=2,71=2,74=-5,116=1,124=31,140=1/1,2,3;
 4/5=101/1;
 5/5=2,7=1000,38=6,98=1/2;
 8/6=4,10=90,11=11/1;
 11/6=1,8=1,9=11,15=111,16=1/1,2,10;
 10/6=1/2;
 6/7=2,8=2,9=2,10=2,28=1/1;
 7/8=1,10=1,25=1/1,2,3,16;
 1/10=4,30=1/3;
 99//99;
 Structure from the checkpoint file:  "MOLECULE_5-vol.chk"
 -------------------
 Title Card Required
 -------------------
 Charge =  0 Multiplicity = 1
 Redundant internal coordinates found in file.  (old form).
 C,0,1.2699053067,-0.681231408,-0.0840842239
 C,0,0.0000078855,0.0438916469,0.3567844392
 H,0,-0.0000022118,0.1344944001,1.4537746699
 H,0,2.1611157543,-0.1388976739,0.2503088118
 H,0,1.3044023125,-1.6989836967,0.3241919949
 H,0,1.3004213254,-0.7441349734,-1.1783514756
 C,0,-1.269806421,-0.6813799617,-0.0840988907
 H,0,-2.1610866287,-0.1391336335,0.2502548782
 H,0,-1.3002862411,-0.7443138668,-1.1783649236
 H,0,-1.304215525,-1.699124855,0.3242060107
 O,0,-0.0000215401,1.3636538285,-0.231087028
 H,0,-0.0005440168,2.0314951935,0.4679837373
 Recover connectivity data from disk.

 GradGradGradGradGradGradGradGradGradGradGradGradGradGradGradGradGradGrad
 Berny optimization.
 Initialization pass.
                           ----------------------------
                           !    Initial Parameters    !
                           ! (Angstroms and Degrees)  !
 --------------------------                            --------------------------
 ! Name  Definition              Value          Derivative Info.                !
 --------------------------------------------------------------------------------
 ! R1    R(1,2)                  1.5274         calculate D2E/DX2 analytically  !
 ! R2    R(1,4)                  1.0955         calculate D2E/DX2 analytically  !
 ! R3    R(1,5)                  1.0971         calculate D2E/DX2 analytically  !
 ! R4    R(1,6)                  1.0965         calculate D2E/DX2 analytically  !
 ! R5    R(2,3)                  1.1007         calculate D2E/DX2 analytically  !
 ! R6    R(2,7)                  1.5274         calculate D2E/DX2 analytically  !
 ! R7    R(2,11)                 1.4448         calculate D2E/DX2 analytically  !
 ! R8    R(7,8)                  1.0955         calculate D2E/DX2 analytically  !
 ! R9    R(7,9)                  1.0965         calculate D2E/DX2 analytically  !
 ! R10   R(7,10)                 1.0971         calculate D2E/DX2 analytically  !
 ! R11   R(11,12)                0.9668         calculate D2E/DX2 analytically  !
 ! A1    A(2,1,4)              110.6855         calculate D2E/DX2 analytically  !
 ! A2    A(2,1,5)              111.0471         calculate D2E/DX2 analytically  !
 ! A3    A(2,1,6)              109.7816         calculate D2E/DX2 analytically  !
 ! A4    A(4,1,5)              108.6664         calculate D2E/DX2 analytically  !
 ! A5    A(4,1,6)              108.0816         calculate D2E/DX2 analytically  !
 ! A6    A(5,1,6)              108.4986         calculate D2E/DX2 analytically  !
 ! A7    A(1,2,3)              109.0719         calculate D2E/DX2 analytically  !
 ! A8    A(1,2,7)              112.4873         calculate D2E/DX2 analytically  !
 ! A9    A(1,2,11)             108.4361         calculate D2E/DX2 analytically  !
 ! A10   A(3,2,7)              109.072          calculate D2E/DX2 analytically  !
 ! A11   A(3,2,11)             109.2885         calculate D2E/DX2 analytically  !
 ! A12   A(7,2,11)             108.4391         calculate D2E/DX2 analytically  !
 ! A13   A(2,7,8)              110.6858         calculate D2E/DX2 analytically  !
 ! A14   A(2,7,9)              109.7815         calculate D2E/DX2 analytically  !
 ! A15   A(2,7,10)             111.0475         calculate D2E/DX2 analytically  !
 ! A16   A(8,7,9)              108.0814         calculate D2E/DX2 analytically  !
 ! A17   A(8,7,10)             108.6658         calculate D2E/DX2 analytically  !
 ! A18   A(9,7,10)             108.4988         calculate D2E/DX2 analytically  !
 ! A19   A(2,11,12)            109.6812         calculate D2E/DX2 analytically  !
 ! D1    D(4,1,2,3)            -58.6234         calculate D2E/DX2 analytically  !
 ! D2    D(4,1,2,7)           -179.7748         calculate D2E/DX2 analytically  !
 ! D3    D(4,1,2,11)            60.302          calculate D2E/DX2 analytically  !
 ! D4    D(5,1,2,3)             62.1647         calculate D2E/DX2 analytically  !
 ! D5    D(5,1,2,7)            -58.9868         calculate D2E/DX2 analytically  !
 ! D6    D(5,1,2,11)          -178.9099         calculate D2E/DX2 analytically  !
 ! D7    D(6,1,2,3)           -177.8564         calculate D2E/DX2 analytically  !
 ! D8    D(6,1,2,7)             60.9921         calculate D2E/DX2 analytically  !
 ! D9    D(6,1,2,11)           -58.931          calculate D2E/DX2 analytically  !
 ! D10   D(1,2,7,8)            179.7767         calculate D2E/DX2 analytically  !
 ! D11   D(1,2,7,9)            -60.9903         calculate D2E/DX2 analytically  !
 ! D12   D(1,2,7,10)            58.989          calculate D2E/DX2 analytically  !
 ! D13   D(3,2,7,8)             58.6253         calculate D2E/DX2 analytically  !
 ! D14   D(3,2,7,9)            177.8582         calculate D2E/DX2 analytically  !
 ! D15   D(3,2,7,10)           -62.1624         calculate D2E/DX2 analytically  !
 ! D16   D(11,2,7,8)           -60.3019         calculate D2E/DX2 analytically  !
 ! D17   D(11,2,7,9)            58.9311         calculate D2E/DX2 analytically  !
 ! D18   D(11,2,7,10)          178.9104         calculate D2E/DX2 analytically  !
 ! D19   D(1,2,11,12)         -118.8202         calculate D2E/DX2 analytically  !
 ! D20   D(3,2,11,12)           -0.0315         calculate D2E/DX2 analytically  !
 ! D21   D(7,2,11,12)          118.759          calculate D2E/DX2 analytically  !
 --------------------------------------------------------------------------------
 Trust Radius=3.00D-01 FncErr=1.00D-07 GrdErr=1.00D-07 EigMax=2.50D+02 EigMin=1.00D-04
 Number of steps in this run=      2 maximum allowed number of steps=      2.
 GradGradGradGradGradGradGradGradGradGradGradGradGradGradGradGradGradGrad

                          Input orientation:                          
 ---------------------------------------------------------------------
 Center     Atomic      Atomic             Coordinates (Angstroms)
 Number     Number       Type             X           Y           Z
 ---------------------------------------------------------------------
      1          6           0        1.269905   -0.681231   -0.084084
      2          6           0        0.000008    0.043892    0.356784
      3          1           0       -0.000002    0.134494    1.453775
      4          1           0        2.161116   -0.138898    0.250309
      5          1           0        1.304402   -1.698984    0.324192
      6          1           0        1.300421   -0.744135   -1.178351
      7          6           0       -1.269806   -0.681380   -0.084099
      8          1           0       -2.161087   -0.139134    0.250255
      9          1           0       -1.300286   -0.744314   -1.178365
     10          1           0       -1.304216   -1.699125    0.324206
     11          8           0       -0.000022    1.363654   -0.231087
     12          1           0       -0.000544    2.031495    0.467984
 ---------------------------------------------------------------------
                    Distance matrix (angstroms):
                    1          2          3          4          5
     1  C    0.000000
     2  C    1.527353   0.000000
     3  H    2.154782   1.100725   0.000000
     4  H    1.095537   2.171436   2.488675   0.000000
     5  H    1.097132   2.177182   2.517751   1.781372   0.000000
     6  H    1.096498   2.160718   3.064503   1.774310   1.780278
     7  C    2.539712   1.527359   2.154787   3.489605   2.797994
     8  H    3.489607   2.171446   2.488698   4.322202   3.801080
     9  H    2.794157   2.160721   3.064507   3.793276   3.154913
    10  H    2.798018   2.177192   2.517748   3.801091   2.608618
    11  O    2.411613   1.444772   2.085568   2.675802   3.374849
    12  H    3.045933   1.990712   2.137848   3.070954   3.954748
                    6          7          8          9         10
     6  H    0.000000
     7  C    2.794172   0.000000
     8  H    3.793281   1.095538   0.000000
     9  H    2.600708   1.096498   1.774310   0.000000
    10  H    3.154967   1.097133   1.781367   1.780281   0.000000
    11  O    2.651648   2.411664   2.675867   2.651707   3.374890
    12  H    3.479519   3.045573   3.070339   3.479211   3.954460
                   11         12
    11  O    0.000000
    12  H    0.966805   0.000000
 Stoichiometry    C3H8O
 Framework group  C1[X(C3H8O)]
 Deg. of freedom    30
 Full point group                 C1      NOp   1
 Largest Abelian subgroup         C1      NOp   1
 Largest concise Abelian subgroup C1      NOp   1
                         Standard orientation:                         
 ---------------------------------------------------------------------
 Center     Atomic      Atomic             Coordinates (Angstroms)
 Number     Number       Type             X           Y           Z
 ---------------------------------------------------------------------
      1          6           0        1.269916   -0.681112   -0.084280
      2          6           0       -0.000003    0.043789    0.356894
      3          1           0       -0.000020    0.133922    1.453923
      4          1           0        2.161110   -0.138897    0.250349
      5          1           0        1.304439   -1.699038    0.323561
      6          1           0        1.300438   -0.743546   -1.178574
      7          6           0       -1.269796   -0.681328   -0.084305
      8          1           0       -2.161092   -0.139249    0.250277
      9          1           0       -1.300270   -0.743795   -1.178598
     10          1           0       -1.304179   -1.699249    0.323565
     11          8           0       -0.000065    1.363802   -0.230413
     12          1           0       -0.000608    2.031344    0.468944
 ---------------------------------------------------------------------
 Rotational constants (GHZ):           8.4310568           8.0324966           4.7262722
 Standard basis: 6-31+G(d) (6D, 7F)
 There are    92 symmetry adapted cartesian basis functions of A   symmetry.
 There are    92 symmetry adapted basis functions of A   symmetry.
    92 basis functions,   160 primitive gaussians,    92 cartesian basis functions
    17 alpha electrons       17 beta electrons
       nuclear repulsion energy       133.9576018353 Hartrees.
 NAtoms=   12 NActive=   12 NUniq=   12 SFac= 1.00D+00 NAtFMM=   60 NAOKFM=F Big=F
 Integral buffers will be    131072 words long.
 Raffenetti 2 integral format.
 Two-electron integral symmetry is turned on.
 Nuclear repulsion after empirical dispersion term =      133.9513505795 Hartrees.
 One-electron integrals computed using PRISM.
 NBasis=    92 RedAO= T EigKep=  1.17D-04  NBF=    92
 NBsUse=    92 1.00D-06 EigRej= -1.00D+00 NBFU=    92
 Initial guess from the checkpoint file:  "MOLECULE_5-vol.chk"
 B after Tr=     0.000000    0.000000    0.000000
         Rot=    1.000000    0.000000    0.000000    0.000000 Ang=   0.00 deg.
 Keep R1 ints in memory in canonical form, NReq=38538661.
 Requested convergence on RMS density matrix=1.00D-08 within1000 cycles.
 Requested convergence on MAX density matrix=1.00D-06.
 Requested convergence on             energy=1.00D-06.
 No special actions if energy rises.
 SCF Done:  E(RB3LYP) =  -194.369627851     A.U. after    1 cycles
            NFock=  1  Conv=0.43D-09     -V/T= 2.0099
 DoSCS=F DFT=T ScalE2(SS,OS)=  1.000000  1.000000
 Range of M.O.s used for correlation:     1    92
 NBasis=    92 NAE=    17 NBE=    17 NFC=     0 NFV=     0
 NROrb=     92 NOA=    17 NOB=    17 NVA=    75 NVB=    75

 **** Warning!!: The largest alpha MO coefficient is  0.36250638D+02

 Symmetrizing basis deriv contribution to polar:
 IMax=3 JMax=2 DiffMx= 0.00D+00
 G2DrvN: will do    13 centers at a time, making    1 passes.
 Calling FoFCou, ICntrl=  3107 FMM=F I1Cent=   0 AccDes= 0.00D+00.
 End of G2Drv F.D. properties file   721 does not exist.
 End of G2Drv F.D. properties file   722 does not exist.
 End of G2Drv F.D. properties file   788 does not exist.
          IDoAtm=111111111111
          Differentiating once with respect to electric field.
                with respect to dipole field.
          Differentiating once with respect to nuclear coordinates.
 Keep R1 ints in memory in canonical form, NReq=38438368.
          There are    39 degrees of freedom in the 1st order CPHF.  IDoFFX=6 NUNeed=     3.
     36 vectors produced by pass  0 Test12= 3.27D-15 2.56D-09 XBig12= 2.53D+01 1.64D+00.
 AX will form    36 AO Fock derivatives at one time.
     36 vectors produced by pass  1 Test12= 3.27D-15 2.56D-09 XBig12= 1.23D+00 3.32D-01.
     36 vectors produced by pass  2 Test12= 3.27D-15 2.56D-09 XBig12= 6.96D-03 1.50D-02.
     36 vectors produced by pass  3 Test12= 3.27D-15 2.56D-09 XBig12= 1.79D-05 9.66D-04.
     36 vectors produced by pass  4 Test12= 3.27D-15 2.56D-09 XBig12= 1.30D-08 2.31D-05.
     14 vectors produced by pass  5 Test12= 3.27D-15 2.56D-09 XBig12= 6.67D-12 4.50D-07.
      3 vectors produced by pass  6 Test12= 3.27D-15 2.56D-09 XBig12= 3.53D-15 1.32D-08.
 InvSVY:  IOpt=1 It=  1 EMax= 6.22D-15
 Solved reduced A of dimension   197 with    39 vectors.
 Isotropic polarizability for W=    0.000000       42.12 Bohr**3.
 End of Minotr F.D. properties file   721 does not exist.
 End of Minotr F.D. properties file   722 does not exist.
 End of Minotr F.D. properties file   788 does not exist.

 **********************************************************************

            Population analysis using the SCF Density.

 **********************************************************************

 Orbital symmetries:
       Occupied  (A) (A) (A) (A) (A) (A) (A) (A) (A) (A) (A) (A)
                 (A) (A) (A) (A) (A)
       Virtual   (A) (A) (A) (A) (A) (A) (A) (A) (A) (A) (A) (A)
                 (A) (A) (A) (A) (A) (A) (A) (A) (A) (A) (A) (A)
                 (A) (A) (A) (A) (A) (A) (A) (A) (A) (A) (A) (A)
                 (A) (A) (A) (A) (A) (A) (A) (A) (A) (A) (A) (A)
                 (A) (A) (A) (A) (A) (A) (A) (A) (A) (A) (A) (A)
                 (A) (A) (A) (A) (A) (A) (A) (A) (A) (A) (A) (A)
                 (A) (A) (A)
 The electronic state is 1-A.
 Alpha  occ. eigenvalues --  -19.15331 -10.24423 -10.17708 -10.17707  -1.01960
 Alpha  occ. eigenvalues --   -0.77495  -0.68961  -0.58819  -0.52831  -0.44660
 Alpha  occ. eigenvalues --   -0.42679  -0.39770  -0.38849  -0.37137  -0.35743
 Alpha  occ. eigenvalues --   -0.32495  -0.27554
 Alpha virt. eigenvalues --   -0.00362   0.02898   0.03241   0.04252   0.06401
 Alpha virt. eigenvalues --    0.07080   0.07261   0.08412   0.09131   0.11152
 Alpha virt. eigenvalues --    0.11600   0.14433   0.18334   0.18734   0.19519
 Alpha virt. eigenvalues --    0.20146   0.20780   0.23431   0.24964   0.25301
 Alpha virt. eigenvalues --    0.26771   0.29918   0.29967   0.31826   0.32929
 Alpha virt. eigenvalues --    0.36222   0.37999   0.61109   0.63194   0.63595
 Alpha virt. eigenvalues --    0.68221   0.69825   0.73604   0.74314   0.77656
 Alpha virt. eigenvalues --    0.81950   0.95445   0.96332   0.97280   0.98778
 Alpha virt. eigenvalues --    1.03080   1.05160   1.08940   1.12196   1.12603
 Alpha virt. eigenvalues --    1.22125   1.24975   1.28760   1.37741   1.43834
 Alpha virt. eigenvalues --    1.48540   1.57633   1.68167   1.74904   1.78699
 Alpha virt. eigenvalues --    1.83847   1.86648   1.98322   1.99061   2.05552
 Alpha virt. eigenvalues --    2.15387   2.21617   2.23800   2.25717   2.26752
 Alpha virt. eigenvalues --    2.48158   2.51229   2.53704   2.62925   2.72286
 Alpha virt. eigenvalues --    2.90439   4.11040   4.24394   4.31827   4.54588
          Condensed to atoms (all electrons):
               1          2          3          4          5          6
     1  C    6.061948   0.099051  -0.041919   0.376578   0.355742   0.403077
     2  C    0.099051   5.409522   0.374375  -0.044220  -0.038307  -0.055061
     3  H   -0.041919   0.374375   0.607188  -0.004480  -0.001762   0.004782
     4  H    0.376578  -0.044220  -0.004480   0.506836  -0.027405  -0.025981
     5  H    0.355742  -0.038307  -0.001762  -0.027405   0.526708  -0.029199
     6  H    0.403077  -0.055061   0.004782  -0.025981  -0.029199   0.494856
     7  C   -0.532949   0.099510  -0.041928   0.017947   0.010985  -0.005486
     8  H    0.017957  -0.044232  -0.004480  -0.000142   0.000011  -0.000030
     9  H   -0.005498  -0.055068   0.004782  -0.000030   0.000024   0.003171
    10  H    0.011007  -0.038333  -0.001760   0.000011  -0.000136   0.000024
    11  O   -0.170489   0.343303  -0.046111   0.000097   0.009801  -0.002341
    12  H   -0.011171   0.039879  -0.012113   0.000320  -0.000233   0.000004
               7          8          9         10         11         12
     1  C   -0.532949   0.017957  -0.005498   0.011007  -0.170489  -0.011171
     2  C    0.099510  -0.044232  -0.055068  -0.038333   0.343303   0.039879
     3  H   -0.041928  -0.004480   0.004782  -0.001760  -0.046111  -0.012113
     4  H    0.017947  -0.000142  -0.000030   0.000011   0.000097   0.000320
     5  H    0.010985   0.000011   0.000024  -0.000136   0.009801  -0.000233
     6  H   -0.005486  -0.000030   0.003171   0.000024  -0.002341   0.000004
     7  C    6.061555   0.376581   0.403100   0.355741  -0.170520  -0.011237
     8  H    0.376581   0.506860  -0.025982  -0.027407   0.000093   0.000322
     9  H    0.403100  -0.025982   0.494850  -0.029198  -0.002342   0.000004
    10  H    0.355741  -0.027407  -0.029198   0.526712   0.009803  -0.000233
    11  O   -0.170520   0.000093  -0.002342   0.009803   8.457157   0.182227
    12  H   -0.011237   0.000322   0.000004  -0.000233   0.182227   0.360761
 Mulliken charges:
               1
     1  C   -0.563336
     2  C   -0.090417
     3  H    0.163425
     4  H    0.200469
     5  H    0.193770
     6  H    0.212185
     7  C   -0.563299
     8  H    0.200451
     9  H    0.212188
    10  H    0.193769
    11  O   -0.610676
    12  H    0.451471
 Sum of Mulliken charges =   0.00000
 Mulliken charges with hydrogens summed into heavy atoms:
               1
     1  C    0.043089
     2  C    0.073008
     7  C    0.043109
    11  O   -0.159205
 APT charges:
               1
     1  C    0.014644
     2  C    0.588754
     3  H   -0.105414
     4  H   -0.024924
     5  H   -0.018663
     6  H   -0.007085
     7  C    0.014633
     8  H   -0.024939
     9  H   -0.007087
    10  H   -0.018675
    11  O   -0.647242
    12  H    0.235998
 Sum of APT charges =   0.00000
 APT charges with hydrogens summed into heavy atoms:
               1
     1  C   -0.036029
     2  C    0.483340
     7  C   -0.036068
    11  O   -0.411244
 Electronic spatial extent (au):  <R**2>=            322.8911
 Charge=              0.0000 electrons
 Dipole moment (field-independent basis, Debye):
    X=             -0.0008    Y=             -0.3668    Z=              1.8042  Tot=              1.8411
 Quadrupole moment (field-independent basis, Debye-Ang):
   XX=            -27.7354   YY=            -25.7862   ZZ=            -26.6886
   XY=             -0.0024   XZ=             -0.0008   YZ=              3.2973
 Traceless Quadrupole moment (field-independent basis, Debye-Ang):
   XX=             -0.9987   YY=              0.9506   ZZ=              0.0481
   XY=             -0.0024   XZ=             -0.0008   YZ=              3.2973
 Octapole moment (field-independent basis, Debye-Ang**2):
  XXX=             -0.0001  YYY=             12.4795  ZZZ=             -0.1505  XYY=             -0.0052
  XXY=              2.4156  XXZ=              0.7026  XZZ=             -0.0002  YZZ=              2.0607
  YYZ=              6.8997  XYZ=             -0.0016
 Hexadecapole moment (field-independent basis, Debye-Ang**3):
[...]
   D11       -1.06448   0.00000   0.00000  -0.00028  -0.00028  -1.06476
   D12        1.02955   0.00000   0.00000  -0.00027  -0.00027   1.02928
   D13        1.02320   0.00000   0.00000  -0.00034  -0.00034   1.02286
   D14        3.10421   0.00000   0.00000  -0.00039  -0.00039   3.10382
   D15       -1.08494   0.00000   0.00000  -0.00039  -0.00039  -1.08533
   D16       -1.05247   0.00000   0.00000  -0.00029  -0.00029  -1.05276
   D17        1.02854   0.00000   0.00000  -0.00034  -0.00034   1.02820
   D18        3.12258   0.00000   0.00000  -0.00034  -0.00034   3.12224
   D19       -2.07380   0.00000   0.00000  -0.00053  -0.00053  -2.07433
   D20       -0.00055   0.00000   0.00000  -0.00055  -0.00055  -0.00110
   D21        2.07274   0.00000   0.00000  -0.00054  -0.00054   2.07220
         Item               Value     Threshold  Converged?
 Maximum Force            0.000007     0.000450     YES
 RMS     Force            0.000003     0.000300     YES
 Maximum Displacement     0.000605     0.001800     YES
 RMS     Displacement     0.000207     0.001200     YES
 Predicted change in Energy=-9.823566D-09
 Optimization completed.
    -- Stationary point found.
                           ----------------------------
                           !   Optimized Parameters   !
                           ! (Angstroms and Degrees)  !
 --------------------------                            --------------------------
 ! Name  Definition              Value          Derivative Info.                !
 --------------------------------------------------------------------------------
 ! R1    R(1,2)                  1.5274         -DE/DX =    0.0                 !
 ! R2    R(1,4)                  1.0955         -DE/DX =    0.0                 !
 ! R3    R(1,5)                  1.0971         -DE/DX =    0.0                 !
 ! R4    R(1,6)                  1.0965         -DE/DX =    0.0                 !
 ! R5    R(2,3)                  1.1007         -DE/DX =    0.0                 !
 ! R6    R(2,7)                  1.5274         -DE/DX =    0.0                 !
 ! R7    R(2,11)                 1.4448         -DE/DX =    0.0                 !
 ! R8    R(7,8)                  1.0955         -DE/DX =    0.0                 !
 ! R9    R(7,9)                  1.0965         -DE/DX =    0.0                 !
 ! R10   R(7,10)                 1.0971         -DE/DX =    0.0                 !
 ! R11   R(11,12)                0.9668         -DE/DX =    0.0                 !
 ! A1    A(2,1,4)              110.6855         -DE/DX =    0.0                 !
 ! A2    A(2,1,5)              111.0471         -DE/DX =    0.0                 !
 ! A3    A(2,1,6)              109.7816         -DE/DX =    0.0                 !
 ! A4    A(4,1,5)              108.6664         -DE/DX =    0.0                 !
 ! A5    A(4,1,6)              108.0816         -DE/DX =    0.0                 !
 ! A6    A(5,1,6)              108.4986         -DE/DX =    0.0                 !
 ! A7    A(1,2,3)              109.0719         -DE/DX =    0.0                 !
 ! A8    A(1,2,7)              112.4873         -DE/DX =    0.0                 !
 ! A9    A(1,2,11)             108.4361         -DE/DX =    0.0                 !
 ! A10   A(3,2,7)              109.072          -DE/DX =    0.0                 !
 ! A11   A(3,2,11)             109.2885         -DE/DX =    0.0                 !
 ! A12   A(7,2,11)             108.4391         -DE/DX =    0.0                 !
 ! A13   A(2,7,8)              110.6858         -DE/DX =    0.0                 !
 ! A14   A(2,7,9)              109.7815         -DE/DX =    0.0                 !
 ! A15   A(2,7,10)             111.0475         -DE/DX =    0.0                 !
 ! A16   A(8,7,9)              108.0814         -DE/DX =    0.0                 !
 ! A17   A(8,7,10)             108.6658         -DE/DX =    0.0                 !
 ! A18   A(9,7,10)             108.4988         -DE/DX =    0.0                 !
 ! A19   A(2,11,12)            109.6812         -DE/DX =    0.0                 !
 ! D1    D(4,1,2,3)            -58.6234         -DE/DX =    0.0                 !
 ! D2    D(4,1,2,7)           -179.7748         -DE/DX =    0.0                 !
 ! D3    D(4,1,2,11)            60.302          -DE/DX =    0.0                 !
 ! D4    D(5,1,2,3)             62.1647         -DE/DX =    0.0                 !
 ! D5    D(5,1,2,7)            -58.9868         -DE/DX =    0.0                 !
 ! D6    D(5,1,2,11)          -178.9099         -DE/DX =    0.0                 !
 ! D7    D(6,1,2,3)           -177.8564         -DE/DX =    0.0                 !
 ! D8    D(6,1,2,7)             60.9921         -DE/DX =    0.0                 !
 ! D9    D(6,1,2,11)           -58.931          -DE/DX =    0.0                 !
 ! D10   D(1,2,7,8)            179.7767         -DE/DX =    0.0                 !
 ! D11   D(1,2,7,9)            -60.9903         -DE/DX =    0.0                 !
 ! D12   D(1,2,7,10)            58.989          -DE/DX =    0.0                 !
 ! D13   D(3,2,7,8)             58.6253         -DE/DX =    0.0                 !
 ! D14   D(3,2,7,9)            177.8582         -DE/DX =    0.0                 !
 ! D15   D(3,2,7,10)           -62.1624         -DE/DX =    0.0                 !
 ! D16   D(11,2,7,8)           -60.3019         -DE/DX =    0.0                 !
 ! D17   D(11,2,7,9)            58.9311         -DE/DX =    0.0                 !
 ! D18   D(11,2,7,10)          178.9104         -DE/DX =    0.0                 !
 ! D19   D(1,2,11,12)         -118.8202         -DE/DX =    0.0                 !
 ! D20   D(3,2,11,12)           -0.0315         -DE/DX =    0.0                 !
 ! D21   D(7,2,11,12)          118.759          -DE/DX =    0.0                 !
 --------------------------------------------------------------------------------
 GradGradGradGradGradGradGradGradGradGradGradGradGradGradGradGradGradGrad


 ----------------------------------------------------------------------

 Electric dipole moment (input orientation):
 (Debye = 10**-18 statcoulomb cm , SI units = C m)
                  (au)            (Debye)         (10**-30 SI)
   Tot        0.724344D+00      0.184110D+01      0.614124D+01
   x         -0.297735D-03     -0.756766D-03     -0.252430D-02
   y         -0.144021D+00     -0.366064D+00     -0.122106D+01
   z          0.709882D+00      0.180434D+01      0.601863D+01

 Dipole polarizability, Alpha (input orientation).
 (esu units = cm**3 , SI units = C**2 m**2 J**-1)
 Alpha(0;0):
               (au)            (10**-24 esu)      (10**-40 SI)
   iso        0.421168D+02      0.624107D+01      0.694412D+01
   aniso      0.503008D+01      0.745381D+00      0.829348D+00
   xx         0.438669D+02      0.650041D+01      0.723268D+01
   yx        -0.264158D-03     -0.391442D-04     -0.435538D-04
   yy         0.436612D+02      0.646993D+01      0.719877D+01
   zx        -0.282907D-03     -0.419225D-04     -0.466450D-04
   zy         0.531653D+00      0.787828D-01      0.876577D-01
   zz         0.388222D+02      0.575286D+01      0.640092D+01

 ----------------------------------------------------------------------

 Dipole orientation:
     6          2.39976085         -1.29333021          0.09925069
     6          0.00028861          0.21534265          0.64427185
     1          0.00111456          0.79531344          2.64185103
     1          4.08412181         -0.16335739          0.51408064
     1          2.46534725         -3.02480365          1.23775240
     1          2.45658269         -1.82098147         -1.90371672
     6         -2.39959834         -1.29341274          0.10125208
     1         -4.08365627         -0.16347752          0.51742670
     1         -2.45804191         -1.82111498         -1.90165430
     1         -2.46422558         -3.02485634          1.23985765
     8         -0.00032657          2.43865482         -0.94034124
     1         -0.00082299          3.93815811          0.10340579

 Electric dipole moment (dipole orientation):
 (Debye = 10**-18 statcoulomb cm , SI units = C m)
                  (au)            (Debye)         (10**-30 SI)
   Tot        0.724344D+00      0.184110D+01      0.614124D+01
   x          0.000000D+00      0.000000D+00      0.000000D+00
   y          0.000000D+00      0.000000D+00      0.000000D+00
   z          0.724344D+00      0.184110D+01      0.614124D+01

 Dipole polarizability, Alpha (dipole orientation).
 (esu units = cm**3 , SI units = C**2 m**2 J**-1)
 Alpha(0;0):
               (au)            (10**-24 esu)      (10**-40 SI)
   iso        0.421168D+02      0.624107D+01      0.694412D+01
   aniso      0.503008D+01      0.745381D+00      0.829348D+00
   xx         0.438669D+02      0.650041D+01      0.723268D+01
   yx        -0.509297D-03     -0.754701D-04     -0.839718D-04
   yy         0.436771D+02      0.647228D+01      0.720139D+01
   zx        -0.232356D-02     -0.344316D-03     -0.383103D-03
   zy        -0.453311D+00     -0.671738D-01     -0.747409D-01
   zz         0.388063D+02      0.575050D+01      0.639830D+01

 ----------------------------------------------------------------------
 1\1\GINC-IP-172-31-1-231\Freq\RB3LYP\6-31+G(d)\C3H8O1\UBUNTU\15-Sep-20
 23\0\\#N Geom=AllCheck Guess=TCheck SCRF=Check GenChk RB3LYP/6-31+G(d)
  Freq\\Title Card Required\\0,1\C,1.2699053067,-0.681231408,-0.0840842
 239\C,0.0000078855,0.0438916469,0.3567844392\H,-0.0000022118,0.1344944
 001,1.4537746699\H,2.1611157543,-0.1388976739,0.2503088118\H,1.3044023
 125,-1.6989836967,0.3241919949\H,1.3004213254,-0.7441349734,-1.1783514
 756\C,-1.269806421,-0.6813799617,-0.0840988907\H,-2.1610866287,-0.1391
 336335,0.2502548782\H,-1.3002862411,-0.7443138668,-1.1783649236\H,-1.3
 04215525,-1.699124855,0.3242060107\O,-0.0000215401,1.3636538285,-0.231
 087028\H,-0.0005440168,2.0314951935,0.4679837373\\Version=EM64L-G16Rev
 B.01\State=1-A\HF=-194.3696279\RMSD=4.307e-10\RMSF=5.771e-06\ZeroPoint
 =0.1075682\Thermal=0.1125665\Dipole=-0.0002977,-0.1440206,0.7098817\Di
 poleDeriv=-0.0708689,0.1139239,0.0405537,0.0386706,0.0272165,-0.028873
 ,0.0340701,-0.0365123,0.0875832,0.5046317,0.0000019,0.0000481,0.000036
 7,0.9322118,-0.0692101,0.0000293,-0.0962348,0.3294194,-0.0228489,-0.00
 00058,0.0000078,0.0000088,-0.0637757,-0.0451714,-0.0000039,0.0014153,-
 0.2296172,-0.1248268,-0.055398,-0.0379997,-0.0983379,0.0056143,-0.0456
 205,-0.0572393,-0.0465734,0.0444411,0.0497752,-0.0089575,0.0206136,0.0
 396825,-0.1396355,0.0691704,0.0025503,0.0869096,0.0338699,0.0450231,0.
 011388,-0.0337155,0.0144415,0.0689814,0.0007253,0.0311016,-0.0307362,-
 0.1352594,-0.0708715,-0.113962,-0.0405602,-0.0387084,0.0271946,-0.0288
 769,-0.0340921,-0.0365201,0.0875754,-0.1248595,0.0553966,0.0380041,0.0
 983424,0.0056063,-0.04562,0.0572453,-0.0465731,0.0444363,0.0450251,-0.
 0113912,0.0337206,-0.0144444,0.0689715,0.0007266,-0.031093,-0.0307462,
 -0.135258,0.0497746,0.0089672,-0.0206182,-0.0396766,-0.1396569,0.06917
 45,-0.0025545,0.086916,0.0338588,-0.5878561,-0.0000454,-0.0001764,-0.0
 000699,-1.0458143,0.1426688,-0.00013,0.2119873,-0.3080563,0.307902,0.0
 000824,0.0001221,0.0000549,0.2530859,-0.0190938,0.0001164,-0.0633321,0
 .1470068\Polar=43.8669291,-0.0002642,43.6612421,-0.0002829,0.5316525,3
 8.8222204\Quadrupole=-0.7424875,0.7088144,0.033673,-0.0017076,-0.00053
 82,2.451153\PG=C01 [X(C3H8O1)]\NImag=1\\0.51410666,0.04496185,0.558912
 58,0.02675436,-0.01615959,0.56666268,-0.16211398,0.03550582,0.03480908
 ,0.48243933,0.04259833,-0.09025007,-0.02291534,-0.00001282,0.44676220,
 0.03169886,-0.01751056,-0.09756516,-0.00001851,0.04204614,0.61003942,-
 0.00123153,0.00425432,0.02910702,-0.05161481,-0.00000038,0.00000242,0.
 05716925,0.00040309,-0.00006343,-0.01695284,0.00000169,-0.05482722,-0.
 03370349,-0.00000038,0.06712552,0.00033579,-0.00233905,-0.00928481,0.0
 0000195,-0.02624463,-0.29137544,-0.00000198,0.02426733,0.31774726,-0.2
 1987882,-0.10624192,-0.06669861,-0.02352707,-0.01674260,-0.00995450,0.
 00094509,0.00004637,0.00055905,0.24043159,-0.10908903,-0.11575343,-0.0
 4160020,0.01493118,0.00671283,0.00591342,-0.00081418,0.00055706,0.0004
 6246,0.11689455,0.12194967,-0.06717701,-0.04181029,-0.07496689,0.00975
 958,0.00598508,0.00270897,-0.00012122,0.00085163,0.00047747,0.07149057
 ,0.04679707,0.07657201,-0.05083994,0.00532574,-0.00163581,0.00295580,0
 .02150618,-0.01312825,0.00076453,-0.00051631,0.00040263,0.00223641,-0.
 02423455,0.01143274,0.05093002,0.00765672,-0.27170810,0.09011845,-0.00
 439624,-0.01262518,0.00746637,0.00005802,0.00018642,-0.00082992,0.0010
 8352,-0.01377593,0.00582203,-0.00784149,0.29650579,-0.00255267,0.09056
 177,-0.08572080,-0.00081310,-0.00906307,0.00243319,-0.00062139,0.00021
 335,0.00008929,0.00144981,-0.01052000,0.00364800,0.00175175,-0.1003025
 6,0.08799251,-0.04844513,-0.00011807,0.00314600,-0.00193823,0.00172258
 ,0.03141370,-0.00449750,0.00322608,0.00169695,0.00133024,-0.00035855,-
 0.02704903,-0.00110774,-0.00033471,-0.00094148,0.05229247,-0.00081128,
 -0.04901010,-0.01285750,0.00146591,-0.00196097,-0.01772519,0.00303942,
 -0.00121221,-0.00099567,0.00108104,-0.00112984,-0.01706557,-0.00070889
 ,0.00339657,0.03123355,-0.00172015,0.04810386,0.00469858,-0.01405111,-
 0.31046073,0.00048469,-0.00016810,-0.01277077,0.00198902,-0.00100183,0
 .00098527,0.00024219,-0.00004728,-0.00885964,-0.00007781,-0.00091379,-
 0.01016674,-0.00682989,0.01602328,0.33761811,-0.03162819,-0.01064867,-
 0.00863256,-0.16209897,-0.04259834,-0.03169664,-0.00123070,-0.00040310
 ,-0.00033516,-0.00368482,0.00219013,0.00132637,0.00014692,-0.00086504,
 -0.00023182,0.00142817,-0.00098377,-0.00070311,0.51410785,0.01064373,0
 .01185188,0.00419291,-0.03550944,-0.09025560,-0.01751805,-0.00425561,-
 0.00006312,-0.00233977,0.00467215,-0.00154636,-0.00117728,-0.00028763,
 -0.00020087,0.00035265,-0.00002521,-0.00006538,0.00003017,-0.04496846,
 0.55889085,0.00863109,0.00419329,0.00458569,-0.03480518,-0.02291977,-0
 .09756469,-0.02910529,-0.01695584,-0.00928622,0.00296492,-0.00066501,-
 0.00005868,-0.00026829,0.00026510,-0.00001409,0.00130986,0.00044843,0.
 00068059,-0.02675319,-0.01616483,0.56666499,-0.00368397,-0.00467243,-0
 .00296508,-0.02352688,0.01674024,0.00995299,0.00094513,-0.00004658,-0.
 00055907,-0.00168239,0.00083934,0.00058256,0.00040462,0.00005805,-0.00
 015191,0.00032577,-0.00011784,0.00000263,-0.21990271,0.10623233,0.0666
 9516,0.24045765,-0.00219040,-0.00154713,-0.00066541,-0.01493521,0.0067
 1300,0.00591397,0.00081443,0.00055712,0.00046252,-0.00083959,0.0006249
 8,0.00006706,-0.00016549,0.00026827,-0.00019083,-0.00000717,-0.0001413
 8,0.00000770,0.10907815,-0.11573096,-0.04158797,-0.11688322,0.12192603
 ,-0.00132617,-0.00117740,-0.00005859,-0.00976028,0.00598427,0.00270884
 ,0.00012131,0.00085158,0.00047746,-0.00058254,0.00006697,0.00063116,0.
 00018009,-0.00026570,-0.00010730,-0.00045657,0.00000763,0.00037357,0.0
 6717271,-0.04179836,-0.07495982,-0.07148697,0.04678418,0.07656409,0.00
 142806,0.00002535,-0.00130989,-0.00193724,-0.00172365,-0.03141123,-0.0
 0449678,-0.00322645,-0.00169705,0.00032576,0.00000720,0.00045650,-0.00
 006962,0.00002811,0.00001959,-0.00059696,0.00002296,0.00068619,-0.0484
 4426,0.00011859,-0.00313735,0.00132926,0.00035972,0.02705117,0.0522916
 9,0.00098389,-0.00006510,0.00044823,-0.00146587,-0.00196171,-0.0177282
 4,-0.00303975,-0.00121285,-0.00099590,0.00011791,-0.00014138,0.0000077
 0,0.00002312,0.00001517,0.00014509,-0.00002311,0.00038581,0.00032437,0
 .00081186,-0.04901069,-0.01286392,-0.00108010,-0.00113061,-0.01706297,
 0.00172002,0.04810496,0.00070317,0.00003025,0.00068059,-0.00048429,-0.
 00016779,-0.01277138,-0.00198902,-0.00100216,0.00098519,-0.00000261,0.
 00000770,0.00037358,-0.00001900,-0.00008651,0.00000488,-0.00068621,0.0
 0032426,0.00058160,-0.00468985,-0.01405834,-0.31046216,-0.00024188,-0.
 00004760,-0.00885839,0.00681981,0.01603095,0.33761882,0.00014694,0.000
 28779,0.00026830,0.00295782,-0.02150303,0.01312749,0.00076442,0.000516
 49,-0.00040269,0.00040458,0.00016551,-0.00018007,-0.00117224,0.0001480
 3,-0.00003622,-0.00006963,-0.00002317,0.00001898,-0.05083823,-0.005307
 04,0.00162782,0.00223408,0.02423667,-0.01143372,-0.00110785,0.00070747
 ,0.00007808,0.05092776,0.00086513,-0.00020074,0.00026507,0.00439781,-0
 .01262663,0.00746824,-0.00005810,0.00018655,-0.00083005,-0.00005802,0.
 00026822,-0.00026571,-0.00014830,0.00092929,-0.00018201,-0.00002809,0.
 00001517,-0.00008651,-0.00763700,-0.27170167,0.09012252,-0.00108192,-0
 .01377403,0.00582125,0.00033429,0.00339743,-0.00091419,0.00781980,0.29
 649903,0.00023180,0.00035268,-0.00001409,0.00081405,-0.00906279,0.0024
 3367,0.00062135,0.00021354,0.00008914,0.00015194,-0.00019079,-0.000107
 28,0.00003630,-0.00018203,0.00038549,-0.00001961,0.00014507,0.00000494
 ,0.00254446,0.09056543,-0.08572621,-0.00144854,-0.01051908,0.00364768,
 0.00093859,0.03123301,-0.01016715,-0.00174356,-0.10030770,0.08799760,0
 .00223347,0.02729045,-0.01190798,-0.05650916,0.00001782,0.00001254,0.0
 0097801,0.00000079,-0.00000083,0.00370656,-0.00070497,-0.00037060,-0.0
 0303950,0.00367936,0.00241215,0.00109368,-0.00094050,-0.00025066,0.002
 23674,-0.02728593,0.01190817,0.00370766,0.00070579,0.00036999,0.001093
 45,0.00094124,0.00025134,-0.00303838,-0.00368076,-0.00241231,0.0380732
 6,0.00482920,-0.03853206,0.01362154,-0.00000456,-0.17394421,0.06661293
 ,0.00000207,-0.01469856,0.00843462,-0.00021894,0.00215440,0.00089567,0
 .00611423,-0.00277099,-0.00208033,-0.00190333,0.00133472,-0.00036771,-
 0.00482559,-0.03853778,0.01362700,0.00021875,0.00215539,0.00089608,0.0
 0190400,0.00133528,-0.00036763,-0.00611605,-0.00277265,-0.00208065,-0.
 00019219,0.51699011,-0.00238094,-0.00369997,0.00722832,0.00002473,0.01
 264506,-0.11675680,-0.00000100,0.04028820,-0.01242146,0.00049207,-0.00
 005045,-0.00051537,0.00188627,-0.00159679,0.00120835,-0.00150366,0.000
 34539,0.00181400,0.00238244,-0.00369006,0.00722631,-0.00049197,-0.0000
 5033,-0.00051577,0.00150355,0.00034553,0.00181500,-0.00188366,-0.00159
 532,0.00120933,-0.00023240,0.16457903,0.40859481,-0.00009358,0.0040297
 6,-0.00093482,-0.00508660,-0.00000433,0.00000114,0.00150488,-0.0000016
 7,0.00000041,-0.00060712,0.00017335,-0.00015040,-0.00120927,0.00072569
 ,-0.00028472,0.00018487,-0.00030372,-0.00026080,-0.00009179,-0.0040274
 8,0.00093227,-0.00060824,-0.00017368,0.00015097,0.00018449,0.00030331,
 0.00026046,-0.00120927,-0.00072482,0.00028553,0.00946422,0.00019241,0.
 00020457,-0.00243260,-0.00085121,-0.00363429,0.00250470,0.00002171,-0.
 02173644,-0.03123553,0.00000014,0.00346472,0.00094805,0.00020554,0.000
 07977,-0.00010738,0.00093341,-0.00022043,-0.00016762,-0.00043026,0.000
 28374,0.00025081,0.00084983,-0.00363030,0.00250101,-0.00020663,0.00007
 931,-0.00010753,0.00042985,0.00028369,0.00025104,-0.00093247,-0.000219
 96,-0.00016668,0.00016889,-0.25271366,-0.20752029,-0.00018881,0.277963
 84,0.00038315,0.00160998,-0.00108620,-0.00001273,0.02388094,0.00848015
 ,-0.00000122,0.00293054,0.00151685,-0.00011227,-0.00017388,0.00009669,
 -0.00056063,0.00050535,0.00024722,-0.00008005,0.00011631,0.00019979,-0
 .00038367,0.00160553,-0.00108571,0.00011207,-0.00017420,0.00009708,0.0
 0008011,0.00011613,0.00019941,0.00055926,0.00050441,0.00024689,0.00022
 059,-0.26377054,-0.29888672,-0.00020461,0.23284943,0.28997457\\0.00000
 644,-0.00000384,-0.00000950,0.00000184,0.00001629,0.00001634,-0.000000
 91,-0.00000962,0.00000103,-0.00000543,0.00000229,0.00000020,-0.0000038
 8,0.00000055,0.00000277,0.00000135,-0.00000361,0.00000054,-0.00000615,
 -0.00000285,-0.00001053,0.00000576,0.00000236,0.00000011,-0.00000139,-
 0.00000367,0.00000043,0.00000423,0.00000068,0.00000253,-0.00000473,0.0
 0000549,-0.00000576,0.00000286,-0.00000405,0.00000184\\\@


 PICNIC:  A SNACK IN THE GRASS.
 Job cpu time:       0 days  0 hours  7 minutes  9.0 seconds.
 Elapsed time:       0 days  0 hours  0 minutes 13.5 seconds.
 File lengths (MBytes):  RWF=     15 Int=      0 D2E=      0 Chk=      2 Scr=      1
 Normal termination of Gaussian 16 at Fri Sep 15 07:31:45 2023.
