 Entering Gaussian System, Link 0=/home/ubuntu/g16/g16
 Input=/home/ubuntu/Downloads/MOLECULE_8-vol.gjf
 Output=/home/ubuntu/Downloads/MOLECULE_8-vol.log
 Initial command:
 /home/ubuntu/g16/l1.exe "/home/ubuntu/Scratch/Gau-16247.inp" -scrdir="/home/ubuntu/Scratch/"
 Entering Link 1 = /home/ubuntu/g16/l1.exe PID=     16249.
  
 Copyright (c) 1988-2017, Gaussian, Inc.  All Rights Reserved.
  
 This is part of the Gaussian(R) 16 program.  It is based on
 the Gaussian(R) 09 system (copyright 2009, Gaussian, Inc.),
 the Gaussian(R) 03 system (copyright 2003, Gaussian, Inc.),
 the Gaussian(R) 98 system (copyright 1998, Gaussian, Inc.),
 the Gaussian(R) 94 system (copyright 1995, Gaussian, Inc.),
 the Gaussian 92(TM) system (copyright 1992, Gaussian, Inc.),
 the Gaussian 90(TM) system (copyright 1990, Gaussian, Inc.),
 the Gaussian 88(TM) system (copyright 1988, Gaussian, Inc.),
 the Gaussian 86(TM) system (copyright 1986, Carnegie Mellon
 University), and the Gaussian 82(TM) system (copyright 1983,
 Carnegie Mellon University). Gaussian is a federally registered
 trademark of Gaussian, Inc.
  
 This software contains proprietary and confidential information,
 including trade secrets, belonging to Gaussian, Inc.
  
 This software is provided under written license and may be
 used, copied, transmitted, or stored only in accord with that
 written license.
  
 The following legend is applicable only to US Government
 contracts under FAR:
  
                    RESTRICTED RIGHTS LEGEND
  
 Use, reproduction and disclosure by the US Government is
 subject to restrictions as set forth in subparagraphs (a)
 and (c) of the Commercial Computer Software - Restricted
 Rights clause in FAR 52.227-19.
  
 Gaussian, Inc.
 340 Quinnipiac St., Bldg. 40, Wallingford CT 06492
  
  
 ---------------------------------------------------------------
 Warning -- This program may not be used in any manner that
 competes with the business of Gaussian, Inc. or will provide
 assistance to any competitor of Gaussian, Inc.  The licensee
 of this program is prohibited from giving any competitor of
 Gaussian, Inc. access to this program.  By using this program,
 the user acknowledges that Gaussian, Inc. is engaged in the
 business of creating and licensing software in the field of
 computational chemistry and represents and warrants to the
 licensee that it is not a competitor of Gaussian, Inc. and that
 it will not use this program in any manner prohibited above.
 ---------------------------------------------------------------
  

 Cite this work as:
 Gaussian 16, Revision B.01,
 M. J. Frisch, G. W. Trucks, H. B. Schlegel, G. E. Scuseria, 
 M. A. Robb, J. R. Cheeseman, G. Scalmani, V. Barone, 
 G. A. Petersson, H. Nakatsuji, X. Li, M. Caricato, A. V. Marenich, 
 J. Bloino, B. G. Janesko, R. Gomperts, B. Mennucci, H. P. Hratchian, 
 J. V. Ortiz, A. F. Izmaylov, J. L. Sonnenberg, D. Williams-Young, 
 F. Ding, F. Lipparini, F. Egidi, J. Goings, B. Peng, A. Petrone, 
 T. Henderson, D. Ranasinghe, V. G. Zakrzewski, J. Gao, N. Rega, 
 G. Zheng, W. Liang, M. Hada, M. Ehara, K. Toyota, R. Fukuda, 
 J. Hasegawa, M. Ishida, T. Nakajima, Y. Honda, O. Kitao, H. Nakai, 
 T. Vreven, K. Throssell, J. A. Montgomery, Jr., J. E. Peralta, 
 F. Ogliaro, M. J. Bearpark, J. J. Heyd, E. N. Brothers, K. N. Kudin, 
 V. N. Staroverov, T. A. Keith, R. Kobayashi, J. Normand, 
 K. Raghavachari, A. P. Rendell, J. C. Burant, S. S. Iyengar, 
 J. Tomasi, M. Cossi, J. M. Millam, M. Klene, C. Adamo, R. Cammi, 
 J. W. Ochterski, R. L. Martin, K. Morokuma, O. Farkas, 
 J. B. Foresman, and D. J. Fox, Gaussian, Inc., Wallingford CT, 2016.
 
 ******************************************
 Gaussian 16:  EM64L-G16RevB.01 20-Dec-2017
                15-Sep-2023 
 ******************************************
 %nprocshared=32
 Will use up to   32 processors via shared memory.
 %mem=62GB
 %chk=MOLECULE_8-vol.chk
 ----------------------------------------------------------------------
 # opt freq b3lyp/6-31+g(d) empiricaldispersion=gd3 scf=maxcycle=1000 v
 olume
 ----------------------------------------------------------------------
 1/18=20,19=15,26=3,38=1/1,3;
 2/9=110,12=2,17=6,18=5,40=1/2;
 3/5=1,6=6,7=11,11=2,25=1,30=1,71=1,74=-5,124=31/1,2,3;
 4//1;
 5/5=2,7=1000,38=5/2;
 6/7=2,8=2,9=2,10=2,28=1,44=1/1,4;
 7//1,2,3,16;
 1/18=20,19=15,26=3/3(2);
 2/9=110/2;
 99//99;
 2/9=110/2;
 3/5=1,6=6,7=11,11=2,25=1,30=1,71=1,74=-5,124=31/1,2,3;
 4/5=5,16=3,69=1/1;
 5/5=2,7=1000,38=5/2;
 7//1,2,3,16;
 1/18=20,19=15,26=3/3(-5);
 2/9=110/2;
 6/7=2,8=2,9=2,10=2,19=2,28=1,44=1/1,4;
 99/9=1/99;
 -------------------
 Title Card Required
 -------------------
 Symbolic Z-matrix:
 Charge =  0 Multiplicity = 1
 C                    -0.48829   0.58209   0.00001 
 C                     0.48829  -0.5821   -0.00001 
 H                    -0.3735    1.19952   0.89223 
 H                    -0.37353   1.19952  -0.89222 
 H                     0.37354  -1.19953   0.89222 
 H                     0.37351  -1.19953  -0.89223 
 Cl                   -2.18445  -0.07005   0.00004 
 Cl                    2.18445   0.07006  -0.00004 
 

 GradGradGradGradGradGradGradGradGradGradGradGradGradGradGradGradGradGrad
 Berny optimization.
 Initialization pass.
                           ----------------------------
                           !    Initial Parameters    !
                           ! (Angstroms and Degrees)  !
 --------------------------                            --------------------------
 ! Name  Definition              Value          Derivative Info.                !
 --------------------------------------------------------------------------------
 ! R1    R(1,2)                  1.5196         estimate D2E/DX2                !
 ! R2    R(1,3)                  1.0911         estimate D2E/DX2                !
 ! R3    R(1,4)                  1.0911         estimate D2E/DX2                !
 ! R4    R(1,7)                  1.8172         estimate D2E/DX2                !
 ! R5    R(2,5)                  1.0911         estimate D2E/DX2                !
 ! R6    R(2,6)                  1.0911         estimate D2E/DX2                !
 ! R7    R(2,8)                  1.8172         estimate D2E/DX2                !
 ! A1    A(2,1,3)              111.4658         estimate D2E/DX2                !
 ! A2    A(2,1,4)              111.4658         estimate D2E/DX2                !
 ! A3    A(2,1,7)              108.9605         estimate D2E/DX2                !
 ! A4    A(3,1,4)              109.7194         estimate D2E/DX2                !
 ! A5    A(3,1,7)              107.5335         estimate D2E/DX2                !
 ! A6    A(4,1,7)              107.5336         estimate D2E/DX2                !
 ! A7    A(1,2,5)              111.466          estimate D2E/DX2                !
 ! A8    A(1,2,6)              111.466          estimate D2E/DX2                !
 ! A9    A(1,2,8)              108.9602         estimate D2E/DX2                !
 ! A10   A(5,2,6)              109.7192         estimate D2E/DX2                !
 ! A11   A(5,2,8)              107.5336         estimate D2E/DX2                !
 ! A12   A(6,2,8)              107.5336         estimate D2E/DX2                !
 ! D1    D(3,1,2,5)             57.0293         estimate D2E/DX2                !
 ! D2    D(3,1,2,6)           -179.9999         estimate D2E/DX2                !
 ! D3    D(3,1,2,8)            -61.4853         estimate D2E/DX2                !
 ! D4    D(4,1,2,5)            180.0            estimate D2E/DX2                !
 ! D5    D(4,1,2,6)            -57.0293         estimate D2E/DX2                !
 ! D6    D(4,1,2,8)             61.4853         estimate D2E/DX2                !
 ! D7    D(7,1,2,5)            -61.4853         estimate D2E/DX2                !
 ! D8    D(7,1,2,6)             61.4854         estimate D2E/DX2                !
 ! D9    D(7,1,2,8)            180.0            estimate D2E/DX2                !
 --------------------------------------------------------------------------------
 Trust Radius=3.00D-01 FncErr=1.00D-07 GrdErr=1.00D-06 EigMax=2.50D+02 EigMin=1.00D-04
 Number of steps in this run=     38 maximum allowed number of steps=    100.
 GradGradGradGradGradGradGradGradGradGradGradGradGradGradGradGradGradGrad

                          Input orientation:                          
 ---------------------------------------------------------------------
 Center     Atomic      Atomic             Coordinates (Angstroms)
 Number     Number       Type             X           Y           Z
 ---------------------------------------------------------------------
      1          6           0       -0.488288    0.582094    0.000007
      2          6           0        0.488290   -0.582100   -0.000007
      3          1           0       -0.373500    1.199524    0.892225
      4          1           0       -0.373534    1.199516   -0.892221
      5          1           0        0.373540   -1.199525    0.892220
      6          1           0        0.373505   -1.199532   -0.892225
      7         17           0       -2.184447   -0.070052    0.000043
      8         17           0        2.184446    0.070055   -0.000043
 ---------------------------------------------------------------------
                    Distance matrix (angstroms):
                    1          2          3          4          5
     1  C    0.000000
     2  C    1.519557   0.000000
     3  H    1.091077   2.170932   0.000000
     4  H    1.091077   2.170931   1.784446   0.000000
     5  H    2.170935   1.091078   2.512669   3.081841   0.000000
     6  H    2.170934   1.091078   3.081842   2.512668   1.784445
     7  Cl   1.817209   2.721345   2.384815   2.384815   2.935130
     8  Cl   2.721340   1.817210   2.935120   2.935119   2.384816
                    6          7          8
     6  H    0.000000
     7  Cl   2.935130   0.000000
     8  Cl   2.384816   4.371139   0.000000
 Stoichiometry    C2H4Cl2
 Framework group  C1[X(C2H4Cl2)]
 Deg. of freedom    18
 Full point group                 C1      NOp   1
 Largest Abelian subgroup         C1      NOp   1
 Largest concise Abelian subgroup C1      NOp   1
                         Standard orientation:                         
 ---------------------------------------------------------------------
 Center     Atomic      Atomic             Coordinates (Angstroms)
 Number     Number       Type             X           Y           Z
 ---------------------------------------------------------------------
      1          6           0       -0.488288   -0.582094   -0.000007
      2          6           0        0.488290    0.582100    0.000007
      3          1           0       -0.373500   -1.199524   -0.892225
      4          1           0       -0.373534   -1.199516    0.892221
      5          1           0        0.373540    1.199525   -0.892220
      6          1           0        0.373505    1.199532    0.892225
      7         17           0       -2.184447    0.070052   -0.000043
      8         17           0        2.184446   -0.070055    0.000043
 ---------------------------------------------------------------------
 Rotational constants (GHZ):          28.9255372           1.4723941           1.4264572
 Standard basis: 6-31+G(d) (6D, 7F)
 There are    92 symmetry adapted cartesian basis functions of A   symmetry.
 There are    92 symmetry adapted basis functions of A   symmetry.
    92 basis functions,   192 primitive gaussians,    92 cartesian basis functions
    25 alpha electrons       25 beta electrons
       nuclear repulsion energy       192.7943632656 Hartrees.
 NAtoms=    8 NActive=    8 NUniq=    8 SFac= 1.00D+00 NAtFMM=   60 NAOKFM=F Big=F
 Integral buffers will be    131072 words long.
 Raffenetti 2 integral format.
 Two-electron integral symmetry is turned on.
 Nuclear repulsion after empirical dispersion term =      192.7889924091 Hartrees.
 One-electron integrals computed using PRISM.
 NBasis=    92 RedAO= T EigKep=  1.11D-04  NBF=    92
 NBsUse=    92 1.00D-06 EigRej= -1.00D+00 NBFU=    92
 ExpMin= 4.38D-02 ExpMax= 2.52D+04 ExpMxC= 3.78D+03 IAcc=3 IRadAn=         5 AccDes= 0.00D+00
 Harris functional with IExCor=  402 and IRadAn=       5 diagonalized for initial guess.
 HarFok:  IExCor=  402 AccDes= 0.00D+00 IRadAn=         5 IDoV= 1 UseB2=F ITyADJ=14
 ICtDFT=  3500011 ScaDFX=  1.000000  1.000000  1.000000  1.000000
 FoFCou: FMM=F IPFlag=           0 FMFlag=      100000 FMFlg1=           0
         NFxFlg=           0 DoJE=T BraDBF=F KetDBF=T FulRan=T
         wScrn=  0.000000 ICntrl=       500 IOpCl=  0 I1Cent=   200000004 NGrid=           0
         NMat0=    1 NMatS0=      1 NMatT0=    0 NMatD0=    1 NMtDS0=    0 NMtDT0=    0
 Petite list used in FoFCou.
 Keep R1 ints in memory in canonical form, NReq=38535287.
 Requested convergence on RMS density matrix=1.00D-08 within1000 cycles.
 Requested convergence on MAX density matrix=1.00D-06.
 Requested convergence on             energy=1.00D-06.
 No special actions if energy rises.
 SCF Done:  E(RB3LYP) =  -999.029483104     A.U. after   10 cycles
            NFock= 10  Conv=0.76D-08     -V/T= 2.0037

 **********************************************************************

            Population analysis using the SCF Density.

 **********************************************************************

 Orbital symmetries:
       Occupied  (A) (A) (A) (A) (A) (A) (A) (A) (A) (A) (A) (A)
                 (A) (A) (A) (A) (A) (A) (A) (A) (A) (A) (A) (A)
                 (A)
       Virtual   (A) (A) (A) (A) (A) (A) (A) (A) (A) (A) (A) (A)
                 (A) (A) (A) (A) (A) (A) (A) (A) (A) (A) (A) (A)
                 (A) (A) (A) (A) (A) (A) (A) (A) (A) (A) (A) (A)
                 (A) (A) (A) (A) (A) (A) (A) (A) (A) (A) (A) (A)
                 (A) (A) (A) (A) (A) (A) (A) (A) (A) (A) (A) (A)
                 (A) (A) (A) (A) (A) (A) (A)
 The electronic state is 1-A.
 Alpha  occ. eigenvalues -- -101.55622-101.55622 -10.27309 -10.27285  -9.47186
 Alpha  occ. eigenvalues --   -9.47185  -7.23590  -7.23590  -7.22610  -7.22610
 Alpha  occ. eigenvalues --   -7.22584  -7.22584  -0.89357  -0.85266  -0.73624
 Alpha  occ. eigenvalues --   -0.64180  -0.51619  -0.46596  -0.45511  -0.42515
 Alpha  occ. eigenvalues --   -0.40245  -0.32698  -0.31804  -0.31422  -0.31291
 Alpha virt. eigenvalues --   -0.02363  -0.00148   0.02338   0.02381   0.03580
 Alpha virt. eigenvalues --    0.04535   0.06381   0.07144   0.08625   0.09025
 Alpha virt. eigenvalues --    0.09657   0.09717   0.11741   0.12063   0.12719
 Alpha virt. eigenvalues --    0.15923   0.17472   0.18043   0.20994   0.21884
 Alpha virt. eigenvalues --    0.21947   0.28072   0.28446   0.53942   0.54790
 Alpha virt. eigenvalues --    0.56098   0.57269   0.58331   0.60481   0.60942
 Alpha virt. eigenvalues --    0.61532   0.63677   0.64335   0.65617   0.67713
 Alpha virt. eigenvalues --    0.72802   0.79654   0.84665   0.85991   0.87353
 Alpha virt. eigenvalues --    0.89145   0.89395   0.91862   0.92517   0.94754
 Alpha virt. eigenvalues --    0.95360   1.01095   1.01361   1.08661   1.11961
 Alpha virt. eigenvalues --    1.17242   1.26290   1.50339   1.54440   1.57410
 Alpha virt. eigenvalues --    1.89116   1.92346   1.96950   2.19729   2.23060
 Alpha virt. eigenvalues --    2.24190   2.28939   2.56936   4.07633   4.27751
 Alpha virt. eigenvalues --    4.35307   4.39824
          Condensed to atoms (all electrons):
               1          2          3          4          5          6
     1  C    5.806107  -0.041639   0.383162   0.383162  -0.051455  -0.051455
     2  C   -0.041639   5.806107  -0.051456  -0.051456   0.383161   0.383161
     3  H    0.383162  -0.051456   0.485248  -0.032355  -0.005611   0.004067
     4  H    0.383162  -0.051456  -0.032355   0.485248   0.004067  -0.005611
     5  H   -0.051455   0.383161  -0.005611   0.004067   0.485248  -0.032355
     6  H   -0.051455   0.383161   0.004067  -0.005611  -0.032355   0.485249
     7  Cl   0.096204   0.003560  -0.046848  -0.046848   0.002094   0.002094
     8  Cl   0.003561   0.096203   0.002094   0.002094  -0.046848  -0.046848
               7          8
     1  C    0.096204   0.003561
     2  C    0.003560   0.096203
     3  H   -0.046848   0.002094
     4  H   -0.046848   0.002094
     5  H    0.002094  -0.046848
     6  H    0.002094  -0.046848
     7  Cl  16.984774   0.000721
     8  Cl   0.000721  16.984774
 Mulliken charges:
               1
     1  C   -0.527648
     2  C   -0.527644
     3  H    0.261698
     4  H    0.261698
     5  H    0.261698
     6  H    0.261698
     7  Cl   0.004250
     8  Cl   0.004249
 Sum of Mulliken charges =   0.00000
 Mulliken charges with hydrogens summed into heavy atoms:
               1
     1  C   -0.004251
     2  C   -0.004248
     7  Cl   0.004250
     8  Cl   0.004249
 Electronic spatial extent (au):  <R**2>=            729.5439
 Charge=              0.0000 electrons
 Dipole moment (field-independent basis, Debye):
    X=              0.0000    Y=              0.0000    Z=              0.0000  Tot=              0.0000
 Quadrupole moment (field-independent basis, Debye-Ang):
   XX=            -46.8728   YY=            -37.3060   ZZ=            -38.1104
   XY=              0.5389   XZ=             -0.0002   YZ=              0.0000
 Traceless Quadrupole moment (field-independent basis, Debye-Ang):
   XX=             -6.1097   YY=              3.4570   ZZ=              2.6527
   XY=              0.5389   XZ=             -0.0002   YZ=              0.0000
 Octapole moment (field-independent basis, Debye-Ang**2):
  XXX=              0.0000  YYY=              0.0000  ZZZ=              0.0000  XYY=              0.0000
  XXY=              0.0000  XXZ=              0.0000  XZZ=              0.0000  YZZ=              0.0000
  YYZ=              0.0000  XYZ=              0.0000
 Hexadecapole moment (field-independent basis, Debye-Ang**3):
 XXXX=           -797.6488 YYYY=            -90.0837 ZZZZ=            -57.2054 XXXY=            -16.2263
 XXXZ=             -0.0068 YYYX=              1.0901 YYYZ=              0.0001 ZZZX=             -0.0077
 ZZZY=              0.0001 XXYY=           -150.8942 XXZZ=           -149.4962 YYZZ=            -21.8655
 XXYZ=             -0.0004 YYXZ=             -0.0025 ZZXY=              1.2135
 N-N= 1.927889924091D+02 E-N=-2.754226772612D+03  KE= 9.953526729478D+02
 Evaluate density.
 Using the total density.
 Monte-Carlo method of calculating molar volume:
 based on  0.001 e/bohr**3 density envelope.
 Number of points per bohr**3 =   20 CutOff= 1.00D-04
 Using the SCF density.
 There are       375 points.  Will hold       375 in memory.
 LenV=  8321454580 MDV=  8321499136.
 Box volume = 6610.831 fraction occupied=0.115
 Integrated density= 1.8839369834704144D+01 error=-3.1160630165295856D+01
 Molar volume =  758.042 bohr**3/mol ( 67.647 cm**3/mol)
 Recommended a0 for SCRF calculation =  3.79 angstrom (  7.17 bohr)
 Calling FoFJK, ICntrl=      2127 FMM=F ISym2X=0 I1Cent= 0 IOpClX= 0 NMat=1 NMatS=1 NMatT=0.
 ***** Axes restored to original set *****
 -------------------------------------------------------------------
 Center     Atomic                   Forces (Hartrees/Bohr)
 Number     Number              X              Y              Z
 -------------------------------------------------------------------
      1        6           0.000197325   -0.000405095   -0.000000007
      2        6          -0.000197218    0.000404345   -0.000000182
      3        1          -0.000009137    0.000064730   -0.000021314
      4        1          -0.000009219    0.000064721    0.000021351
      5        1           0.000009065   -0.000064245   -0.000021384
      6        1           0.000009096   -0.000064181    0.000021552
      7       17          -0.000022051    0.000023736   -0.000000028
      8       17           0.000022139   -0.000024010    0.000000013
 -------------------------------------------------------------------
 Cartesian Forces:  Max     0.000405095 RMS     0.000133282

 GradGradGradGradGradGradGradGradGradGradGradGradGradGradGradGradGradGrad
 Berny optimization.
 FormGI is forming the generalized inverse of G from B-inverse, IUseBI=4.
 Internal  Forces:  Max     0.000293595 RMS     0.000067083
 Search for a local minimum.
 Step number   1 out of a maximum of   38
 All quantities printed in internal units (Hartrees-Bohrs-Radians)
 Mixed Optimization -- En-DIIS/RFO-DIIS
 Second derivative matrix not updated -- first step.
 ITU=  0
     Eigenvalues ---    0.00507   0.05755   0.05755   0.05876   0.05876
     Eigenvalues ---    0.16000   0.16000   0.16000   0.16000   0.22326
     Eigenvalues ---    0.22326   0.24807   0.24807   0.30409   0.34688
     Eigenvalues ---    0.34688   0.34688   0.34688
 RFO step:  Lambda=-5.55802107D-07 EMin= 5.07251203D-03
 Linear search not attempted -- first point.
 Iteration  1 RMS(Cart)=  0.00021505 RMS(Int)=  0.00000009
 Iteration  2 RMS(Cart)=  0.00000009 RMS(Int)=  0.00000005
 Variable       Old X    -DE/DX   Delta X   Delta X   Delta X     New X
                                 (Linear)    (Quad)   (Total)
    R1        2.87155  -0.00029   0.00000  -0.00097  -0.00097   2.87058
    R2        2.06184   0.00002   0.00000   0.00005   0.00005   2.06189
    R3        2.06184   0.00002   0.00000   0.00005   0.00005   2.06189
    R4        3.43403   0.00001   0.00000   0.00005   0.00005   3.43408
    R5        2.06184   0.00002   0.00000   0.00005   0.00005   2.06189
    R6        2.06184   0.00002   0.00000   0.00005   0.00005   2.06189
    R7        3.43403   0.00001   0.00000   0.00005   0.00005   3.43408
    A1        1.94545   0.00004   0.00000   0.00024   0.00024   1.94569
    A2        1.94544   0.00004   0.00000   0.00024   0.00024   1.94569
    A3        1.90172   0.00006   0.00000   0.00037   0.00037   1.90208
    A4        1.91497  -0.00008   0.00000  -0.00069  -0.00069   1.91427
    A5        1.87681  -0.00004   0.00000  -0.00009  -0.00009   1.87673
    A6        1.87682  -0.00004   0.00000  -0.00009  -0.00009   1.87673
    A7        1.94545   0.00004   0.00000   0.00024   0.00024   1.94569
    A8        1.94545   0.00004   0.00000   0.00024   0.00024   1.94569
    A9        1.90171   0.00006   0.00000   0.00037   0.00037   1.90208
   A10        1.91496  -0.00008   0.00000  -0.00069  -0.00069   1.91427
   A11        1.87682  -0.00004   0.00000  -0.00009  -0.00009   1.87673
   A12        1.87681  -0.00004   0.00000  -0.00009  -0.00009   1.87673
    D1        0.99535   0.00003   0.00000   0.00055   0.00055   0.99590
    D2       -3.14159   0.00000   0.00000   0.00000   0.00000  -3.14159
    D3       -1.07312   0.00002   0.00000   0.00027   0.00027  -1.07285
    D4        3.14159   0.00000   0.00000   0.00000   0.00000   3.14159
    D5       -0.99535  -0.00003   0.00000  -0.00055  -0.00055  -0.99590
    D6        1.07312  -0.00002   0.00000  -0.00027  -0.00027   1.07285
    D7       -1.07312   0.00002   0.00000   0.00027   0.00027  -1.07285
    D8        1.07312  -0.00002   0.00000  -0.00027  -0.00027   1.07285
    D9        3.14159   0.00000   0.00000   0.00000   0.00000   3.14159
         Item               Value     Threshold  Converged?
 Maximum Force            0.000294     0.000450     YES
 RMS     Force            0.000067     0.000300     YES
 Maximum Displacement     0.000523     0.001800     YES
 RMS     Displacement     0.000215     0.001200     YES
 Predicted change in Energy=-2.779209D-07
 Optimization completed.
    -- Stationary point found.
                           ----------------------------
                           !   Optimized Parameters   !
                           ! (Angstroms and Degrees)  !
 --------------------------                            --------------------------
 ! Name  Definition              Value          Derivative Info.                !
 --------------------------------------------------------------------------------
 ! R1    R(1,2)                  1.5196         -DE/DX =   -0.0003              !
 ! R2    R(1,3)                  1.0911         -DE/DX =    0.0                 !
 ! R3    R(1,4)                  1.0911         -DE/DX =    0.0                 !
 ! R4    R(1,7)                  1.8172         -DE/DX =    0.0                 !
 ! R5    R(2,5)                  1.0911         -DE/DX =    0.0                 !
 ! R6    R(2,6)                  1.0911         -DE/DX =    0.0                 !
 ! R7    R(2,8)                  1.8172         -DE/DX =    0.0                 !
 ! A1    A(2,1,3)              111.4658         -DE/DX =    0.0                 !
 ! A2    A(2,1,4)              111.4658         -DE/DX =    0.0                 !
 ! A3    A(2,1,7)              108.9605         -DE/DX =    0.0001              !
 ! A4    A(3,1,4)              109.7194         -DE/DX =   -0.0001              !
 ! A5    A(3,1,7)              107.5335         -DE/DX =    0.0                 !
 ! A6    A(4,1,7)              107.5336         -DE/DX =    0.0                 !
 ! A7    A(1,2,5)              111.466          -DE/DX =    0.0                 !
 ! A8    A(1,2,6)              111.466          -DE/DX =    0.0                 !
 ! A9    A(1,2,8)              108.9602         -DE/DX =    0.0001              !
 ! A10   A(5,2,6)              109.7192         -DE/DX =   -0.0001              !
 ! A11   A(5,2,8)              107.5336         -DE/DX =    0.0                 !
 ! A12   A(6,2,8)              107.5336         -DE/DX =    0.0                 !
 ! D1    D(3,1,2,5)             57.0293         -DE/DX =    0.0                 !
 ! D2    D(3,1,2,6)           -179.9999         -DE/DX =    0.0                 !
 ! D3    D(3,1,2,8)            -61.4853         -DE/DX =    0.0                 !
 ! D4    D(4,1,2,5)            180.0            -DE/DX =    0.0                 !
 ! D5    D(4,1,2,6)            -57.0293         -DE/DX =    0.0                 !
 ! D6    D(4,1,2,8)             61.4853         -DE/DX =    0.0                 !
 ! D7    D(7,1,2,5)            -61.4853         -DE/DX =    0.0                 !
 ! D8    D(7,1,2,6)             61.4854         -DE/DX =    0.0                 !
 ! D9    D(7,1,2,8)            180.0            -DE/DX =    0.0                 !
 --------------------------------------------------------------------------------
 GradGradGradGradGradGradGradGradGradGradGradGradGradGradGradGradGradGrad

                          Input orientation:                          
 ---------------------------------------------------------------------
 Center     Atomic      Atomic             Coordinates (Angstroms)
 Number     Number       Type             X           Y           Z
 ---------------------------------------------------------------------
      1          6           0       -0.488288    0.582094    0.000007
      2          6           0        0.488290   -0.582100   -0.000007
      3          1           0       -0.373500    1.199524    0.892225
      4          1           0       -0.373534    1.199516   -0.892221
      5          1           0        0.373540   -1.199525    0.892220
      6          1           0        0.373505   -1.199532   -0.892225
      7         17           0       -2.184447   -0.070052    0.000043
      8         17           0        2.184446    0.070055   -0.000043
 ---------------------------------------------------------------------
                    Distance matrix (angstroms):
                    1          2          3          4          5
     1  C    0.000000
     2  C    1.519557   0.000000
     3  H    1.091077   2.170932   0.000000
     4  H    1.091077   2.170931   1.784446   0.000000
     5  H    2.170935   1.091078   2.512669   3.081841   0.000000
     6  H    2.170934   1.091078   3.081842   2.512668   1.784445
     7  Cl   1.817209   2.721345   2.384815   2.384815   2.935130
     8  Cl   2.721340   1.817210   2.935120   2.935119   2.384816
                    6          7          8
     6  H    0.000000
     7  Cl   2.935130   0.000000
     8  Cl   2.384816   4.371139   0.000000
 Stoichiometry    C2H4Cl2
 Framework group  C1[X(C2H4Cl2)]
 Deg. of freedom    18
 Full point group                 C1      NOp   1
 Largest Abelian subgroup         C1      NOp   1
 Largest concise Abelian subgroup C1      NOp   1
                         Standard orientation:                         
 ---------------------------------------------------------------------
 Center     Atomic      Atomic             Coordinates (Angstroms)
 Number     Number       Type             X           Y           Z
 ---------------------------------------------------------------------
      1          6           0       -0.488288   -0.582094   -0.000007
      2          6           0        0.488290    0.582100    0.000007
      3          1           0       -0.373500   -1.199524   -0.892225
      4          1           0       -0.373534   -1.199516    0.892221
      5          1           0        0.373540    1.199525   -0.892220
      6          1           0        0.373505    1.199532    0.892225
      7         17           0       -2.184447    0.070052   -0.000043
      8         17           0        2.184446   -0.070055    0.000043
 ---------------------------------------------------------------------
 Rotational constants (GHZ):          28.9255372           1.4723941           1.4264572
 1\1\GINC-IP-172-31-1-231\FOpt\RB3LYP\6-31+G(d)\C2H4Cl2\UBUNTU\15-Sep-2
 023\0\\# opt freq b3lyp/6-31+g(d) empiricaldispersion=gd3 scf=maxcycle
 =1000 volume\\Title Card Required\\0,1\C,-0.488288,0.582094,0.000007\C
 ,0.48829,-0.5821,-0.000007\H,-0.3735,1.199524,0.892225\H,-0.373534,1.1
 99516,-0.892221\H,0.37354,-1.199525,0.89222\H,0.373505,-1.199532,-0.89
 2225\Cl,-2.184447,-0.070052,0.000043\Cl,2.184446,0.070055,-0.000043\\V
 ersion=EM64L-G16RevB.01\State=1-A\HF=-999.0294831\RMSD=7.626e-09\RMSF=
 1.333e-04\Dipole=0.0000022,-0.0000041,0.\Quadrupole=-4.5424133,2.57022
 82,1.9721851,-0.4006736,0.0001282,0.000005\PG=C01 [X(C2H4Cl2)]\\@


 In the race for quality, there is no finish line.
                               -- David T. Kearns
 Job cpu time:       0 days  0 hours  1 minutes 31.5 seconds.
 Elapsed time:       0 days  0 hours  0 minutes  2.9 seconds.
 File lengths (MBytes):  RWF=     10 Int=      0 D2E=      0 Chk=      2 Scr=      1
 Normal termination of Gaussian 16 at Fri Sep 15 07:32:45 2023.
 Link1:  Proceeding to internal job step number  2.
 ---------------------------------------------------------------------
 #N Geom=AllCheck Guess=TCheck SCRF=Check GenChk RB3LYP/6-31+G(d) Freq
 ---------------------------------------------------------------------
 1/10=4,29=7,30=1,38=1,40=1/1,3;
 2/12=2,40=1/2;
 3/5=1,6=6,7=11,11=2,14=-4,25=1,30=1,70=2,71=2,74=-5,116=1,124=31,140=1/1,2,3;
 4/5=101/1;
 5/5=2,7=1000,38=6,98=1/2;
 8/6=4,10=90,11=11/1;
 11/6=1,8=1,9=11,15=111,16=1/1,2,10;
 10/6=1/2;
 6/7=2,8=2,9=2,10=2,28=1/1;
 7/8=1,10=1,25=1/1,2,3,16;
 1/10=4,30=1/3;
 99//99;
 Structure from the checkpoint file:  "MOLECULE_8-vol.chk"
 -------------------
 Title Card Required
 -------------------
 Charge =  0 Multiplicity = 1
 Redundant internal coordinates found in file.  (old form).
 C,0,-0.488288,0.582094,0.000007
 C,0,0.48829,-0.5821,-0.000007
 H,0,-0.3735,1.199524,0.892225
 H,0,-0.373534,1.199516,-0.892221
 H,0,0.37354,-1.199525,0.89222
 H,0,0.373505,-1.199532,-0.892225
 Cl,0,-2.184447,-0.070052,0.000043
 Cl,0,2.184446,0.070055,-0.000043
 Recover connectivity data from disk.

 GradGradGradGradGradGradGradGradGradGradGradGradGradGradGradGradGradGrad
 Berny optimization.
 Initialization pass.
                           ----------------------------
                           !    Initial Parameters    !
                           ! (Angstroms and Degrees)  !
 --------------------------                            --------------------------
 ! Name  Definition              Value          Derivative Info.                !
 --------------------------------------------------------------------------------
 ! R1    R(1,2)                  1.5196         calculate D2E/DX2 analytically  !
 ! R2    R(1,3)                  1.0911         calculate D2E/DX2 analytically  !
 ! R3    R(1,4)                  1.0911         calculate D2E/DX2 analytically  !
 ! R4    R(1,7)                  1.8172         calculate D2E/DX2 analytically  !
 ! R5    R(2,5)                  1.0911         calculate D2E/DX2 analytically  !
 ! R6    R(2,6)                  1.0911         calculate D2E/DX2 analytically  !
 ! R7    R(2,8)                  1.8172         calculate D2E/DX2 analytically  !
 ! A1    A(2,1,3)              111.4658         calculate D2E/DX2 analytically  !
 ! A2    A(2,1,4)              111.4658         calculate D2E/DX2 analytically  !
 ! A3    A(2,1,7)              108.9605         calculate D2E/DX2 analytically  !
 ! A4    A(3,1,4)              109.7194         calculate D2E/DX2 analytically  !
 ! A5    A(3,1,7)              107.5335         calculate D2E/DX2 analytically  !
 ! A6    A(4,1,7)              107.5336         calculate D2E/DX2 analytically  !
 ! A7    A(1,2,5)              111.466          calculate D2E/DX2 analytically  !
 ! A8    A(1,2,6)              111.466          calculate D2E/DX2 analytically  !
 ! A9    A(1,2,8)              108.9602         calculate D2E/DX2 analytically  !
 ! A10   A(5,2,6)              109.7192         calculate D2E/DX2 analytically  !
 ! A11   A(5,2,8)              107.5336         calculate D2E/DX2 analytically  !
 ! A12   A(6,2,8)              107.5336         calculate D2E/DX2 analytically  !
 ! D1    D(3,1,2,5)             57.0293         calculate D2E/DX2 analytically  !
 ! D2    D(3,1,2,6)           -179.9999         calculate D2E/DX2 analytically  !
 ! D3    D(3,1,2,8)            -61.4853         calculate D2E/DX2 analytically  !
 ! D4    D(4,1,2,5)            180.0            calculate D2E/DX2 analytically  !
 ! D5    D(4,1,2,6)            -57.0293         calculate D2E/DX2 analytically  !
 ! D6    D(4,1,2,8)             61.4853         calculate D2E/DX2 analytically  !
 ! D7    D(7,1,2,5)            -61.4853         calculate D2E/DX2 analytically  !
 ! D8    D(7,1,2,6)             61.4854         calculate D2E/DX2 analytically  !
 ! D9    D(7,1,2,8)            180.0            calculate D2E/DX2 analytically  !
 --------------------------------------------------------------------------------
 Trust Radius=3.00D-01 FncErr=1.00D-07 GrdErr=1.00D-07 EigMax=2.50D+02 EigMin=1.00D-04
 Number of steps in this run=      2 maximum allowed number of steps=      2.
 GradGradGradGradGradGradGradGradGradGradGradGradGradGradGradGradGradGrad

                          Input orientation:                          
 ---------------------------------------------------------------------
 Center     Atomic      Atomic             Coordinates (Angstroms)
 Number     Number       Type             X           Y           Z
 ---------------------------------------------------------------------
      1          6           0       -0.488288    0.582094    0.000007
      2          6           0        0.488290   -0.582100   -0.000007
      3          1           0       -0.373500    1.199524    0.892225
      4          1           0       -0.373534    1.199516   -0.892221
      5          1           0        0.373540   -1.199525    0.892220
      6          1           0        0.373505   -1.199532   -0.892225
      7         17           0       -2.184447   -0.070052    0.000043
      8         17           0        2.184446    0.070055   -0.000043
 ---------------------------------------------------------------------
                    Distance matrix (angstroms):
                    1          2          3          4          5
     1  C    0.000000
     2  C    1.519557   0.000000
     3  H    1.091077   2.170932   0.000000
     4  H    1.091077   2.170931   1.784446   0.000000
     5  H    2.170935   1.091078   2.512669   3.081841   0.000000
     6  H    2.170934   1.091078   3.081842   2.512668   1.784445
     7  Cl   1.817209   2.721345   2.384815   2.384815   2.935130
     8  Cl   2.721340   1.817210   2.935120   2.935119   2.384816
                    6          7          8
     6  H    0.000000
     7  Cl   2.935130   0.000000
     8  Cl   2.384816   4.371139   0.000000
 Stoichiometry    C2H4Cl2
 Framework group  C1[X(C2H4Cl2)]
 Deg. of freedom    18
 Full point group                 C1      NOp   1
 Largest Abelian subgroup         C1      NOp   1
 Largest concise Abelian subgroup C1      NOp   1
                         Standard orientation:                         
 ---------------------------------------------------------------------
 Center     Atomic      Atomic             Coordinates (Angstroms)
 Number     Number       Type             X           Y           Z
 ---------------------------------------------------------------------
      1          6           0       -0.488288   -0.582094   -0.000007
      2          6           0        0.488290    0.582100    0.000007
      3          1           0       -0.373500   -1.199524   -0.892225
      4          1           0       -0.373534   -1.199516    0.892221
      5          1           0        0.373540    1.199525   -0.892220
      6          1           0        0.373505    1.199532    0.892225
      7         17           0       -2.184447    0.070052   -0.000043
      8         17           0        2.184446   -0.070055    0.000043
 ---------------------------------------------------------------------
 Rotational constants (GHZ):          28.9255372           1.4723941           1.4264572
 Standard basis: 6-31+G(d) (6D, 7F)
 There are    92 symmetry adapted cartesian basis functions of A   symmetry.
 There are    92 symmetry adapted basis functions of A   symmetry.
    92 basis functions,   192 primitive gaussians,    92 cartesian basis functions
    25 alpha electrons       25 beta electrons
       nuclear repulsion energy       192.7943632656 Hartrees.
 NAtoms=    8 NActive=    8 NUniq=    8 SFac= 1.00D+00 NAtFMM=   60 NAOKFM=F Big=F
 Integral buffers will be    131072 words long.
 Raffenetti 2 integral format.
 Two-electron integral symmetry is turned on.
 Nuclear repulsion after empirical dispersion term =      192.7889924091 Hartrees.
 One-electron integrals computed using PRISM.
 NBasis=    92 RedAO= T EigKep=  1.11D-04  NBF=    92
 NBsUse=    92 1.00D-06 EigRej= -1.00D+00 NBFU=    92
 Initial guess from the checkpoint file:  "MOLECULE_8-vol.chk"
 B after Tr=     0.000000    0.000000    0.000000
         Rot=    1.000000    0.000000    0.000000    0.000000 Ang=   0.00 deg.
 Keep R1 ints in memory in canonical form, NReq=38535287.
 Requested convergence on RMS density matrix=1.00D-08 within1000 cycles.
 Requested convergence on MAX density matrix=1.00D-06.
 Requested convergence on             energy=1.00D-06.
 No special actions if energy rises.
 SCF Done:  E(RB3LYP) =  -999.029483104     A.U. after    1 cycles
            NFock=  1  Conv=0.61D-09     -V/T= 2.0037
 DoSCS=F DFT=T ScalE2(SS,OS)=  1.000000  1.000000
 Range of M.O.s used for correlation:     1    92
 NBasis=    92 NAE=    25 NBE=    25 NFC=     0 NFV=     0
 NROrb=     92 NOA=    25 NOB=    25 NVA=    67 NVB=    67

 **** Warning!!: The largest alpha MO coefficient is  0.33931498D+02

 Symmetrizing basis deriv contribution to polar:
 IMax=3 JMax=2 DiffMx= 0.00D+00
 G2DrvN: will do     9 centers at a time, making    1 passes.
 Calling FoFCou, ICntrl=  3107 FMM=F I1Cent=   0 AccDes= 0.00D+00.
 End of G2Drv F.D. properties file   721 does not exist.
 End of G2Drv F.D. properties file   722 does not exist.
 End of G2Drv F.D. properties file   788 does not exist.
          IDoAtm=11111111
          Differentiating once with respect to electric field.
                with respect to dipole field.
          Differentiating once with respect to nuclear coordinates.
 Keep R1 ints in memory in canonical form, NReq=38430626.
          There are    27 degrees of freedom in the 1st order CPHF.  IDoFFX=6 NUNeed=     3.
     24 vectors produced by pass  0 Test12= 6.20D-15 3.70D-09 XBig12= 5.28D+01 4.74D+00.
 AX will form    24 AO Fock derivatives at one time.
     24 vectors produced by pass  1 Test12= 6.20D-15 3.70D-09 XBig12= 7.70D+00 9.45D-01.
     24 vectors produced by pass  2 Test12= 6.20D-15 3.70D-09 XBig12= 1.17D-01 7.73D-02.
     24 vectors produced by pass  3 Test12= 6.20D-15 3.70D-09 XBig12= 3.25D-04 6.87D-03.
     24 vectors produced by pass  4 Test12= 6.20D-15 3.70D-09 XBig12= 6.13D-07 2.30D-04.
     17 vectors produced by pass  5 Test12= 6.20D-15 3.70D-09 XBig12= 5.94D-10 4.53D-06.
      4 vectors produced by pass  6 Test12= 6.20D-15 3.70D-09 XBig12= 4.95D-13 1.83D-07.
      1 vectors produced by pass  7 Test12= 6.20D-15 3.70D-09 XBig12= 4.67D-16 4.69D-09.
 InvSVY:  IOpt=1 It=  1 EMax= 2.66D-15
 Solved reduced A of dimension   142 with    27 vectors.
 Isotropic polarizability for W=    0.000000       48.47 Bohr**3.
 End of Minotr F.D. properties file   721 does not exist.
 End of Minotr F.D. properties file   722 does not exist.
 End of Minotr F.D. properties file   788 does not exist.

 **********************************************************************

            Population analysis using the SCF Density.

 **********************************************************************

 Orbital symmetries:
       Occupied  (A) (A) (A) (A) (A) (A) (A) (A) (A) (A) (A) (A)
                 (A) (A) (A) (A) (A) (A) (A) (A) (A) (A) (A) (A)
                 (A)
       Virtual   (A) (A) (A) (A) (A) (A) (A) (A) (A) (A) (A) (A)
                 (A) (A) (A) (A) (A) (A) (A) (A) (A) (A) (A) (A)
                 (A) (A) (A) (A) (A) (A) (A) (A) (A) (A) (A) (A)
                 (A) (A) (A) (A) (A) (A) (A) (A) (A) (A) (A) (A)
                 (A) (A) (A) (A) (A) (A) (A) (A) (A) (A) (A) (A)
                 (A) (A) (A) (A) (A) (A) (A)
 The electronic state is 1-A.
 Alpha  occ. eigenvalues -- -101.55622-101.55622 -10.27309 -10.27285  -9.47186
 Alpha  occ. eigenvalues --   -9.47185  -7.23590  -7.23590  -7.22610  -7.22610
 Alpha  occ. eigenvalues --   -7.22584  -7.22584  -0.89357  -0.85266  -0.73624
 Alpha  occ. eigenvalues --   -0.64180  -0.51619  -0.46596  -0.45511  -0.42515
 Alpha  occ. eigenvalues --   -0.40245  -0.32698  -0.31804  -0.31422  -0.31291
 Alpha virt. eigenvalues --   -0.02363  -0.00148   0.02338   0.02381   0.03580
 Alpha virt. eigenvalues --    0.04535   0.06381   0.07144   0.08625   0.09025
 Alpha virt. eigenvalues --    0.09657   0.09717   0.11741   0.12063   0.12719
 Alpha virt. eigenvalues --    0.15923   0.17472   0.18043   0.20994   0.21884
 Alpha virt. eigenvalues --    0.21947   0.28072   0.28446   0.53942   0.54790
 Alpha virt. eigenvalues --    0.56098   0.57269   0.58331   0.60481   0.60942
 Alpha virt. eigenvalues --    0.61532   0.63677   0.64335   0.65617   0.67713
 Alpha virt. eigenvalues --    0.72802   0.79654   0.84665   0.85991   0.87353
 Alpha virt. eigenvalues --    0.89145   0.89395   0.91862   0.92517   0.94754
 Alpha virt. eigenvalues --    0.95360   1.01095   1.01361   1.08661   1.11961
 Alpha virt. eigenvalues --    1.17242   1.26290   1.50339   1.54440   1.57410
 Alpha virt. eigenvalues --    1.89116   1.92346   1.96950   2.19729   2.23060
 Alpha virt. eigenvalues --    2.24190   2.28939   2.56936   4.07633   4.27751
 Alpha virt. eigenvalues --    4.35307   4.39824
          Condensed to atoms (all electrons):
               1          2          3          4          5          6
     1  C    5.806107  -0.041639   0.383162   0.383162  -0.051455  -0.051455
     2  C   -0.041639   5.806107  -0.051456  -0.051456   0.383161   0.383161
     3  H    0.383162  -0.051456   0.485248  -0.032355  -0.005611   0.004067
     4  H    0.383162  -0.051456  -0.032355   0.485248   0.004067  -0.005611
     5  H   -0.051455   0.383161  -0.005611   0.004067   0.485248  -0.032355
     6  H   -0.051455   0.383161   0.004067  -0.005611  -0.032355   0.485249
     7  Cl   0.096204   0.003560  -0.046848  -0.046848   0.002094   0.002094
     8  Cl   0.003561   0.096203   0.002094   0.002094  -0.046848  -0.046848
               7          8
     1  C    0.096204   0.003561
     2  C    0.003560   0.096203
     3  H   -0.046848   0.002094
     4  H   -0.046848   0.002094
     5  H    0.002094  -0.046848
     6  H    0.002094  -0.046848
     7  Cl  16.984774   0.000721
     8  Cl   0.000721  16.984774
 Mulliken charges:
               1
     1  C   -0.527648
     2  C   -0.527643
     3  H    0.261698
     4  H    0.261698
     5  H    0.261698
     6  H    0.261698
     7  Cl   0.004250
     8  Cl   0.004249
 Sum of Mulliken charges =   0.00000
 Mulliken charges with hydrogens summed into heavy atoms:
               1
     1  C   -0.004251
     2  C   -0.004248
     7  Cl   0.004250
     8  Cl   0.004249
 APT charges:
               1
     1  C    0.377026
     2  C    0.377026
     3  H   -0.009954
     4  H   -0.009954
     5  H   -0.009954
     6  H   -0.009954
     7  Cl  -0.357118
     8  Cl  -0.357118
 Sum of APT charges =   0.00000
 APT charges with hydrogens summed into heavy atoms:
               1
     1  C    0.357119
     2  C    0.357118
     7  Cl  -0.357118
     8  Cl  -0.357118
 Electronic spatial extent (au):  <R**2>=            729.5439
 Charge=              0.0000 electrons
 Dipole moment (field-independent basis, Debye):
    X=              0.0000    Y=              0.0000    Z=              0.0000  Tot=              0.0000
 Quadrupole moment (field-independent basis, Debye-Ang):
   XX=            -46.8728   YY=            -37.3060   ZZ=            -38.1104
   XY=              0.5389   XZ=             -0.0002   YZ=              0.0000
 Traceless Quadrupole moment (field-independent basis, Debye-Ang):
   XX=             -6.1097   YY=              3.4570   ZZ=              2.6527
   XY=              0.5389   XZ=             -0.0002   YZ=              0.0000
 Octapole moment (field-independent basis, Debye-Ang**2):
  XXX=              0.0000  YYY=              0.0000  ZZZ=              0.0000  XYY=              0.0000
  XXY=              0.0000  XXZ=              0.0000  XZZ=              0.0000  YZZ=              0.0000
  YYZ=              0.0000  XYZ=              0.0000
 Hexadecapole moment (field-independent basis, Debye-Ang**3):
 XXXX=           -797.6488 YYYY=            -90.0837 ZZZZ=            -57.2054 XXXY=            -16.2263
 XXXZ=             -0.0068 YYYX=              1.0901 YYYZ=              0.0001 ZZZX=             -0.0077
 ZZZY=              0.0001 XXYY=           -150.8942 XXZZ=           -149.4962 YYZZ=            -21.8655
 XXYZ=             -0.0004 YYXZ=             -0.0025 ZZXY=              1.2135
 N-N= 1.927889924091D+02 E-N=-2.754226771824D+03  KE= 9.953526726363D+02
  Exact polarizability:  68.967  -4.443  39.895   0.001   0.000  36.556
 Approx polarizability:  89.942 -10.550  53.865   0.001   0.000  49.506
 Calling FoFJK, ICntrl=    100127 FMM=F ISym2X=0 I1Cent= 0 IOpClX= 0 NMat=1 NMatS=1 NMatT=0.
 Full mass-weighted force constant matrix:
 Low frequencies ---   -0.0067   -0.0063   -0.0062    3.4541    3.7484   17.7839
 Low frequencies ---  123.8156  218.9591  298.3341
 Diagonal vibrational polarizability:
        8.7125851       4.4244008      13.1601469
 Harmonic frequencies (cm**-1), IR intensities (KM/Mole), Raman scattering
 activities (A**4/AMU), depolarization ratios for plane and unpolarized
 incident light, reduced masses (AMU), force constants (mDyne/A),
 and normal coordinates:
                      1                      2                      3
                      A                      A                      A
 Frequencies --    123.8156               218.9591               298.3341
 Red. masses --      4.0703                 5.3157                17.3990
 Frc consts  --      0.0368                 0.1502                 0.9124
 IR Inten    --      7.4054                10.7564                 0.0000
  Atom  AN      X      Y      Z        X      Y      Z        X      Y      Z
     1   6     0.00   0.00   0.30     0.12   0.34   0.00     0.20  -0.10   0.00
     2   6     0.00   0.00   0.30     0.12   0.34   0.00    -0.20   0.10   0.00
     3   1     0.16  -0.11   0.40     0.23   0.35   0.01     0.33  -0.08   0.00
     4   1    -0.16   0.11   0.40     0.23   0.35  -0.01     0.33  -0.08   0.00
     5   1    -0.16   0.11   0.40     0.23   0.35  -0.01    -0.33   0.08   0.00
     6   1     0.16  -0.11   0.40     0.23   0.35   0.01    -0.33   0.08   0.00
     7  17     0.00   0.00  -0.13    -0.05  -0.14   0.00     0.47   0.02   0.00
     8  17     0.00   0.00  -0.13    -0.05  -0.14   0.00    -0.47  -0.02   0.00
                      4                      5                      6
                      A                      A                      A
 Frequencies --    701.2507               747.0378               794.8214
 Red. masses --      8.8653                 5.2788                 1.1072
 Frc consts  --      2.5686                 1.7357                 0.4121
 IR Inten    --    113.4201                 0.0000                 2.5184
  Atom  AN      X      Y      Z        X      Y      Z        X      Y      Z
     1   6     0.47  -0.17   0.00     0.33  -0.22   0.00     0.00   0.00  -0.07
     2   6     0.47  -0.17   0.00    -0.33   0.22   0.00     0.00   0.00  -0.07
     3   1     0.29  -0.15  -0.03     0.38  -0.13  -0.05    -0.04  -0.44   0.23
     4   1     0.29  -0.15   0.03     0.38  -0.13   0.05     0.04   0.44   0.23
     5   1     0.29  -0.15   0.03    -0.38   0.13  -0.05     0.04   0.44   0.23
     6   1     0.29  -0.15  -0.03    -0.38   0.13   0.05    -0.04  -0.44   0.23
     7  17    -0.18   0.07   0.00    -0.08   0.06   0.00     0.00   0.00   0.01
     8  17    -0.18   0.07   0.00     0.08  -0.06   0.00     0.00   0.00   0.01
                      7                      8                      9
                      A                      A                      A
 Frequencies --   1024.8298              1063.3250              1161.4039
 Red. masses --      1.3684                 4.2656                 1.0421
 Frc consts  --      0.8467                 2.8416                 0.8281
 IR Inten    --      0.0000                 0.0000                 2.2056
  Atom  AN      X      Y      Z        X      Y      Z        X      Y      Z
     1   6     0.00   0.00  -0.12     0.20   0.33   0.00     0.00   0.00   0.03
     2   6     0.00   0.00   0.12    -0.20  -0.33   0.00     0.00   0.00   0.03
     3   1     0.34  -0.32   0.14     0.22   0.35   0.00    -0.50   0.00  -0.02
     4   1    -0.34   0.32   0.14     0.22   0.35   0.00     0.50   0.00  -0.02
     5   1     0.34  -0.32  -0.14    -0.22  -0.35   0.00     0.50   0.00  -0.02
     6   1    -0.34   0.32  -0.14    -0.22  -0.35   0.00    -0.50   0.00  -0.02
     7  17     0.00   0.00   0.02    -0.01   0.00   0.00     0.00   0.00  -0.01
     8  17     0.00   0.00  -0.02     0.01   0.00   0.00     0.00   0.00  -0.01
                     10                     11                     12
                      A                      A                      A
 Frequencies --   1284.0548              1310.6840              1364.3546
 Red. masses --      1.1445                 1.1548                 1.2307
 Frc consts  --      1.1118                 1.1688                 1.3497
 IR Inten    --     46.8550                 0.0000                 0.0000
  Atom  AN      X      Y      Z        X      Y      Z        X      Y      Z
     1   6    -0.07  -0.03   0.00     0.00   0.00  -0.08    -0.10   0.00   0.00
     2   6    -0.07  -0.03   0.00     0.00   0.00   0.08     0.10   0.00   0.00
     3   1     0.49   0.04   0.01    -0.43  -0.25   0.04     0.49   0.02   0.05
     4   1     0.49   0.04  -0.01     0.43   0.25   0.04     0.49   0.02  -0.05
     5   1     0.49   0.04  -0.01    -0.43  -0.25  -0.04    -0.49  -0.02   0.05
     6   1     0.49   0.04   0.01     0.43   0.25  -0.04    -0.49  -0.02  -0.05
     7  17     0.00   0.01   0.00     0.00   0.00   0.00    -0.01   0.01   0.00
     8  17     0.00   0.01   0.00     0.00   0.00   0.00     0.01  -0.01   0.00
                     13                     14                     15
                      A                      A                      A
 Frequencies --   1511.0265              1513.7684              3112.5799
 Red. masses --      1.0921                 1.0953                 1.0575
 Frc consts  --      1.4691                 1.4788                 6.0364
 IR Inten    --      7.1986                 0.0000                 0.0000
  Atom  AN      X      Y      Z        X      Y      Z        X      Y      Z
     1   6     0.00  -0.06   0.00     0.02   0.06   0.00    -0.01   0.05   0.00
     2   6     0.00  -0.06   0.00    -0.02  -0.06   0.00     0.01  -0.05   0.00
     3   1    -0.05   0.39  -0.30     0.01  -0.40   0.30     0.04  -0.27  -0.42
     4   1    -0.05   0.39   0.30     0.01  -0.40  -0.30     0.04  -0.27   0.42
     5   1    -0.05   0.39   0.30    -0.01   0.40   0.30    -0.04   0.27  -0.42
     6   1    -0.05   0.39  -0.30    -0.01   0.40  -0.30    -0.04   0.27   0.42
     7  17     0.00   0.00   0.00     0.00   0.00   0.00     0.00   0.00   0.00
     8  17     0.00   0.00   0.00     0.00   0.00   0.00     0.00   0.00   0.00
                     16                     17                     18
                      A                      A                      A
 Frequencies --   3119.6606              3168.2457              3191.1053
 Red. masses --      1.0560                 1.1120                 1.1130
 Frc consts  --      6.0553                 6.5762                 6.6775
 IR Inten    --     15.4581                 0.0000                 3.4787
  Atom  AN      X      Y      Z        X      Y      Z        X      Y      Z
     1   6    -0.01   0.05   0.00     0.00   0.00   0.07     0.00   0.00  -0.07
     2   6    -0.01   0.05   0.00     0.00   0.00  -0.07     0.00   0.00  -0.07
     3   1     0.04  -0.27  -0.42     0.05  -0.28  -0.41    -0.04   0.28   0.41
     4   1     0.04  -0.27   0.42    -0.05   0.28  -0.41     0.04  -0.28   0.41
     5   1     0.04  -0.27   0.42     0.05  -0.28   0.41     0.04  -0.28   0.41
     6   1     0.04  -0.27  -0.42    -0.05   0.28   0.41    -0.04   0.28   0.41
     7  17     0.00   0.00   0.00     0.00   0.00   0.00     0.00   0.00   0.00
     8  17     0.00   0.00   0.00     0.00   0.00   0.00     0.00   0.00   0.00

 -------------------
 - Thermochemistry -
 -------------------
 Temperature   298.150 Kelvin.  Pressure   1.00000 Atm.
 Atom     1 has atomic number  6 and mass  12.00000
 Atom     2 has atomic number  6 and mass  12.00000
 Atom     3 has atomic number  1 and mass   1.00783
 Atom     4 has atomic number  1 and mass   1.00783
 Atom     5 has atomic number  1 and mass   1.00783
 Atom     6 has atomic number  1 and mass   1.00783
 Atom     7 has atomic number 17 and mass  34.96885
 Atom     8 has atomic number 17 and mass  34.96885
 Molecular mass:    97.96901 amu.
 Principal axes and moments of inertia in atomic units:
                           1         2         3
     Eigenvalues --    62.392661225.718851265.19126
           X            0.99998   0.00637  -0.00002
           Y           -0.00637   0.99998   0.00000
           Z            0.00002   0.00000   1.00000
 This molecule is an asymmetric top.
 Rotational symmetry number  1.
 Rotational temperatures (Kelvin)      1.38821     0.07066     0.06846
 Rotational constants (GHZ):          28.92554     1.47239     1.42646
 Zero-point vibrational energy     153775.5 (Joules/Mol)
                                   36.75323 (Kcal/Mol)
 Warning -- explicit consideration of   3 degrees of freedom as
           vibrations may cause significant error
 Vibrational temperatures:    178.14   315.03   429.24  1008.94  1074.82
          (Kelvin)           1143.57  1474.50  1529.89  1671.00  1847.47
                             1885.78  1963.00  2174.03  2177.98  4478.31
                             4488.50  4558.40  4591.29
 
 Zero-point correction=                           0.058570 (Hartree/Particle)
 Thermal correction to Energy=                    0.063456
 Thermal correction to Enthalpy=                  0.064400
 Thermal correction to Gibbs Free Energy=         0.029602
 Sum of electronic and zero-point Energies=           -998.970913
 Sum of electronic and thermal Energies=              -998.966027
 Sum of electronic and thermal Enthalpies=            -998.965083
 Sum of electronic and thermal Free Energies=         -998.999881
 
                     E (Thermal)             CV                S
                      KCal/Mol        Cal/Mol-Kelvin    Cal/Mol-Kelvin
 Total                   39.819             15.065             73.239
 Electronic               0.000              0.000              0.000
 Translational            0.889              2.981             39.657
 Rotational               0.889              2.981             26.073
 Vibrational             38.042              9.104              7.509
 Vibration     1          0.610              1.929              3.040
 Vibration     2          0.647              1.812              1.968
 Vibration     3          0.691              1.677              1.426
                       Q            Log10(Q)             Ln(Q)
 Total Bot       0.242094D-13        -13.616017        -31.352037
 Total V=0       0.211003D+14         13.324288         30.680307
 Vib (Bot)       0.570441D-26        -26.243789        -60.428558
 Vib (Bot)    1  0.164902D+01          0.217225          0.500179
 Vib (Bot)    2  0.903775D+00         -0.043940         -0.101175
 Vib (Bot)    3  0.638058D+00         -0.195140         -0.449326
 Vib (V=0)       0.497182D+01          0.696515          1.603785
 Vib (V=0)    1  0.222315D+01          0.346969          0.798926
 Vib (V=0)    2  0.153286D+01          0.185504          0.427138
 Vib (V=0)    3  0.131063D+01          0.117479          0.270506
 Electronic      0.100000D+01          0.000000          0.000000
 Translational   0.381142D+08          7.581087         17.456098
 Rotational      0.111349D+06          5.046686         11.620424
 ***** Axes restored to original set *****
 -------------------------------------------------------------------
 Center     Atomic                   Forces (Hartrees/Bohr)
 Number     Number              X              Y              Z
 -------------------------------------------------------------------
      1        6           0.000197317   -0.000405095   -0.000000007
      2        6          -0.000197211    0.000404342   -0.000000182
      3        1          -0.000009136    0.000064730   -0.000021314
      4        1          -0.000009218    0.000064721    0.000021351
      5        1           0.000009064   -0.000064244   -0.000021385
      6        1           0.000009095   -0.000064180    0.000021552
      7       17          -0.000022049    0.000023737   -0.000000028
      8       17           0.000022138   -0.000024010    0.000000013
 -------------------------------------------------------------------
 Cartesian Forces:  Max     0.000405095 RMS     0.000133280
 FormGI is forming the generalized inverse of G from B-inverse, IUseBI=4.

 GradGradGradGradGradGradGradGradGradGradGradGradGradGradGradGradGradGrad
 Berny optimization.
 Internal  Forces:  Max     0.000293591 RMS     0.000067083
 Search for a local minimum.
 Step number   1 out of a maximum of    2
 All quantities printed in internal units (Hartrees-Bohrs-Radians)
 Second derivative matrix not updated -- analytic derivatives used.
 ITU=  0
     Eigenvalues ---    0.00406   0.04380   0.04540   0.06314   0.06399
     Eigenvalues ---    0.12812   0.12919   0.12943   0.17701   0.17764
     Eigenvalues ---    0.19530   0.21032   0.25195   0.31353   0.34779
     Eigenvalues ---    0.34912   0.35350   0.35448
 Angle between quadratic step and forces=  29.12 degrees.
 Linear search not attempted -- first point.
 Iteration  1 RMS(Cart)=  0.00029610 RMS(Int)=  0.00000016
 Iteration  2 RMS(Cart)=  0.00000016 RMS(Int)=  0.00000008
 Variable       Old X    -DE/DX   Delta X   Delta X   Delta X     New X
                                 (Linear)    (Quad)   (Total)
    R1        2.87155  -0.00029   0.00000  -0.00129  -0.00129   2.87026
    R2        2.06184   0.00002   0.00000   0.00010   0.00010   2.06193
    R3        2.06184   0.00002   0.00000   0.00010   0.00010   2.06193
    R4        3.43403   0.00001   0.00000   0.00007   0.00007   3.43410
    R5        2.06184   0.00002   0.00000   0.00010   0.00010   2.06193
    R6        2.06184   0.00002   0.00000   0.00010   0.00010   2.06193
    R7        3.43403   0.00001   0.00000   0.00007   0.00007   3.43410
    A1        1.94545   0.00004   0.00000   0.00042   0.00042   1.94586
    A2        1.94544   0.00004   0.00000   0.00042   0.00042   1.94586
    A3        1.90172   0.00006   0.00000   0.00041   0.00041   1.90213
    A4        1.91497  -0.00008   0.00000  -0.00096  -0.00096   1.91401
    A5        1.87681  -0.00004   0.00000  -0.00016  -0.00016   1.87666
    A6        1.87682  -0.00004   0.00000  -0.00016  -0.00016   1.87666
    A7        1.94545   0.00004   0.00000   0.00041   0.00041   1.94586
    A8        1.94545   0.00004   0.00000   0.00041   0.00041   1.94586
    A9        1.90171   0.00006   0.00000   0.00042   0.00042   1.90213
   A10        1.91496  -0.00008   0.00000  -0.00096  -0.00096   1.91401
   A11        1.87682  -0.00004   0.00000  -0.00016  -0.00016   1.87666
   A12        1.87681  -0.00004   0.00000  -0.00016  -0.00016   1.87666
    D1        0.99535   0.00003   0.00000   0.00064   0.00064   0.99599
    D2       -3.14159   0.00000   0.00000   0.00000   0.00000   3.14159
    D3       -1.07312   0.00002   0.00000   0.00032   0.00032  -1.07280
    D4        3.14159   0.00000   0.00000   0.00000   0.00000   3.14159
    D5       -0.99535  -0.00003   0.00000  -0.00064  -0.00064  -0.99599
    D6        1.07312  -0.00002   0.00000  -0.00032  -0.00032   1.07280
    D7       -1.07312   0.00002   0.00000   0.00032   0.00032  -1.07280
    D8        1.07312  -0.00002   0.00000  -0.00032  -0.00032   1.07280
    D9        3.14159   0.00000   0.00000   0.00000   0.00000   3.14159
         Item               Value     Threshold  Converged?
 Maximum Force            0.000294     0.000450     YES
 RMS     Force            0.000067     0.000300     YES
 Maximum Displacement     0.000644     0.001800     YES
 RMS     Displacement     0.000296     0.001200     YES
 Predicted change in Energy=-3.768514D-07
 Optimization completed.
    -- Stationary point found.
                           ----------------------------
                           !   Optimized Parameters   !
                           ! (Angstroms and Degrees)  !
 --------------------------                            --------------------------
 ! Name  Definition              Value          Derivative Info.                !
 --------------------------------------------------------------------------------
 ! R1    R(1,2)                  1.5196         -DE/DX =   -0.0003              !
 ! R2    R(1,3)                  1.0911         -DE/DX =    0.0                 !
 ! R3    R(1,4)                  1.0911         -DE/DX =    0.0                 !
 ! R4    R(1,7)                  1.8172         -DE/DX =    0.0                 !
 ! R5    R(2,5)                  1.0911         -DE/DX =    0.0                 !
 ! R6    R(2,6)                  1.0911         -DE/DX =    0.0                 !
 ! R7    R(2,8)                  1.8172         -DE/DX =    0.0                 !
 ! A1    A(2,1,3)              111.4658         -DE/DX =    0.0                 !
 ! A2    A(2,1,4)              111.4658         -DE/DX =    0.0                 !
 ! A3    A(2,1,7)              108.9605         -DE/DX =    0.0001              !
 ! A4    A(3,1,4)              109.7194         -DE/DX =   -0.0001              !
 ! A5    A(3,1,7)              107.5335         -DE/DX =    0.0                 !
 ! A6    A(4,1,7)              107.5336         -DE/DX =    0.0                 !
 ! A7    A(1,2,5)              111.466          -DE/DX =    0.0                 !
 ! A8    A(1,2,6)              111.466          -DE/DX =    0.0                 !
 ! A9    A(1,2,8)              108.9602         -DE/DX =    0.0001              !
 ! A10   A(5,2,6)              109.7192         -DE/DX =   -0.0001              !
 ! A11   A(5,2,8)              107.5336         -DE/DX =    0.0                 !
 ! A12   A(6,2,8)              107.5336         -DE/DX =    0.0                 !
 ! D1    D(3,1,2,5)             57.0293         -DE/DX =    0.0                 !
 ! D2    D(3,1,2,6)            180.0001         -DE/DX =    0.0                 !
 ! D3    D(3,1,2,8)            -61.4853         -DE/DX =    0.0                 !
 ! D4    D(4,1,2,5)            180.0            -DE/DX =    0.0                 !
 ! D5    D(4,1,2,6)            -57.0293         -DE/DX =    0.0                 !
 ! D6    D(4,1,2,8)             61.4853         -DE/DX =    0.0                 !
 ! D7    D(7,1,2,5)            -61.4853         -DE/DX =    0.0                 !
 ! D8    D(7,1,2,6)             61.4854         -DE/DX =    0.0                 !
 ! D9    D(7,1,2,8)            180.0            -DE/DX =    0.0                 !
 --------------------------------------------------------------------------------
 GradGradGradGradGradGradGradGradGradGradGradGradGradGradGradGradGradGrad


 ----------------------------------------------------------------------

 Electric dipole moment (input orientation):
 (Debye = 10**-18 statcoulomb cm , SI units = C m)
                  (au)            (Debye)         (10**-30 SI)
   Tot        0.000000D+00      0.000000D+00      0.000000D+00
   x          0.000000D+00      0.000000D+00      0.000000D+00
   y          0.000000D+00      0.000000D+00      0.000000D+00
   z          0.000000D+00      0.000000D+00      0.000000D+00

 Dipole polarizability, Alpha (input orientation).
 (esu units = cm**3 , SI units = C**2 m**2 J**-1)
 Alpha(0;0):
               (au)            (10**-24 esu)      (10**-40 SI)
   iso        0.484728D+02      0.718293D+01      0.799209D+01
   aniso      0.318220D+02      0.471554D+01      0.524674D+01
   xx         0.689674D+02      0.102199D+02      0.113712D+02
   yx         0.444287D+01      0.658366D+00      0.732531D+00
   yy         0.398947D+02      0.591179D+01      0.657775D+01
   zx        -0.654391D-03     -0.969708D-04     -0.107895D-03
   zy        -0.998402D-04     -0.147948D-04     -0.164614D-04
   zz         0.365563D+02      0.541709D+01      0.602733D+01

 ----------------------------------------------------------------------

 Dipole orientation:
     6         -0.26935561         -0.15189030         -1.40207160
     6          0.26935389          0.15188950          1.40208340
     1         -0.39728247          1.67561749         -2.34812695
     1          1.16285123         -1.31378963         -2.32399613
     1         -1.16284849          1.31378909          2.32401646
     1          0.39728364         -1.67561673          2.34814472
    17         -3.29268717         -1.73287927         -1.79256884
    17          3.29268803          1.73287967          1.79256294

 Electric dipole moment (dipole orientation):
 (Debye = 10**-18 statcoulomb cm , SI units = C m)
                  (au)            (Debye)         (10**-30 SI)
   Tot        0.000000D+00      0.000000D+00      0.000000D+00
   x          0.000000D+00      0.000000D+00      0.000000D+00
   y          0.000000D+00      0.000000D+00      0.000000D+00
   z          0.000000D+00      0.000000D+00      0.000000D+00

 Dipole polarizability, Alpha (dipole orientation).
 (esu units = cm**3 , SI units = C**2 m**2 J**-1)
 Alpha(0;0):
               (au)            (10**-24 esu)      (10**-40 SI)
   iso        0.484728D+02      0.718293D+01      0.799209D+01
   aniso      0.318220D+02      0.471554D+01      0.524674D+01
   xx         0.599474D+02      0.888329D+01      0.988399D+01
   yx         0.122745D+02      0.181889D+01      0.202379D+01
   yy         0.429976D+02      0.637158D+01      0.708934D+01
   zx         0.829981D+01      0.122991D+01      0.136845D+01
   zy         0.437932D+01      0.648949D+00      0.722053D+00
   zz         0.424735D+02      0.629392D+01      0.700293D+01

 ----------------------------------------------------------------------
 1\1\GINC-IP-172-31-1-231\Freq\RB3LYP\6-31+G(d)\C2H4Cl2\UBUNTU\15-Sep-2
 023\0\\#N Geom=AllCheck Guess=TCheck SCRF=Check GenChk RB3LYP/6-31+G(d
 ) Freq\\Title Card Required\\0,1\C,-0.488288,0.582094,0.000007\C,0.488
 29,-0.5821,-0.000007\H,-0.3735,1.199524,0.892225\H,-0.373534,1.199516,
 -0.892221\H,0.37354,-1.199525,0.89222\H,0.373505,-1.199532,-0.892225\C
 l,-2.184447,-0.070052,0.000043\Cl,2.184446,0.070055,-0.000043\\Version
 =EM64L-G16RevB.01\State=1-A\HF=-999.0294831\RMSD=6.064e-10\RMSF=1.333e
 -04\ZeroPoint=0.05857\Thermal=0.0634561\Dipole=0.0000022,-0.0000041,0.
 \DipoleDeriv=0.8274059,0.147681,-0.0000141,0.1174262,0.1581563,-0.0000
 023,-0.0000137,-0.0000029,0.1455163,0.8273985,0.1476835,-0.0000139,0.1
 174273,0.1581599,-0.0000023,-0.0000138,-0.0000028,0.1455183,-0.0549793
 ,-0.0537374,-0.0309223,-0.0195795,0.018864,-0.0423017,-0.008435,-0.062
 9487,0.0062544,-0.0549777,-0.0537348,0.0309253,-0.0195778,0.0188649,0.
 0423023,0.0084375,0.0629506,0.0062519,-0.0549771,-0.0537349,0.030925,-
 0.0195778,0.0188639,0.0423031,0.0084373,0.062951,0.0062514,-0.0549785,
 -0.0537376,-0.0309222,-0.0195796,0.018863,-0.0423024,-0.0084348,-0.062
 9491,0.0062536,-0.7174464,-0.0402093,0.0000111,-0.078269,-0.1958856,0.
 0000017,0.0000113,0.0000009,-0.158023,-0.7174454,-0.0402106,0.0000111,
 -0.0782699,-0.1958864,0.0000017,0.0000113,0.000001,-0.158023\Polar=68.
 9674298,4.4428716,39.8947288,-0.0006544,-0.0000998,36.5563348\Quadrupo
 le=-4.5424131,2.5702281,1.972185,-0.4006736,0.0001282,0.000005\PG=C01 
 [X(C2H4Cl2)]\NImag=0\\0.31580699,-0.02704875,0.51226570,0.00000581,0.0
 0000111,0.61401606,-0.10046881,0.07378221,-0.00000012,0.31580633,0.073
 78213,-0.16553409,-0.00000110,-0.02704998,0.51226652,-0.00000011,-0.00
 000111,-0.09011027,0.00000593,0.00000050,0.61401364,-0.04383508,-0.013
 65917,-0.02420278,0.00250698,0.01397006,0.01911376,0.05816099,-0.01053
 455,-0.13722429,-0.12629105,-0.00153289,-0.01496151,-0.02273081,0.0132
 7843,0.14533532,-0.02148995,-0.12780583,-0.24646642,-0.00060864,0.0013
 7894,0.00238376,0.02177517,0.13701438,0.25501424,-0.04383336,-0.013654
 08,0.02419515,0.00250626,0.01396986,-0.01911389,0.00286159,0.00241220,
 -0.00216474,0.05815933,-0.01052953,-0.13722196,0.12629038,-0.00153199,
 -0.01496135,0.02273104,0.00241163,0.01238349,-0.01524068,0.01327295,0.
 14533284,0.02148227,0.12780529,-0.24647036,0.00060865,-0.00137932,0.00
 238427,0.00216388,0.01524031,-0.01902327,-0.02176775,-0.13701383,0.255
 01827,0.00250631,0.01396980,-0.01911394,-0.04383337,-0.01365337,0.0241
 9420,0.00032838,-0.00073031,0.00045502,-0.00283502,0.00345408,0.000524
 39,0.05815901,-0.00153206,-0.01496115,0.02273084,-0.01052891,-0.137222
 41,0.12629029,-0.00073030,0.00055551,-0.00008495,0.00345406,-0.0030011
 2,-0.00071895,0.01327249,0.14533321,0.00060864,-0.00137939,0.00238433,
 0.02148141,0.12780514,-0.24646922,-0.00045499,0.00008498,0.00089972,0.
 00052438,-0.00071895,0.00138889,-0.02176684,-0.13701363,0.25501728,0.0
 0250702,0.01397002,0.01911382,-0.04383521,-0.01365853,-0.02420196,-0.0
 0283506,0.00345410,-0.00052425,0.00032838,-0.00073032,-0.00045499,0.00
 286163,0.00241158,0.00216381,0.05816078,-0.00153293,-0.01496135,-0.022
 73066,-0.01053399,-0.13722421,-0.12629038,0.00345408,-0.00300111,0.000
 71885,-0.00073030,0.00055551,0.00008498,0.00241216,0.01238348,0.015240
 32,0.01327798,0.14533520,-0.00060863,0.00137897,0.00238377,-0.02148919
 ,-0.12780512,-0.24646509,-0.00052425,0.00071885,0.00138892,0.00045502,
 -0.00008495,0.00089972,-0.00216468,-0.01524067,-0.01902342,0.02177438,
 0.13701364,0.25501308,-0.10147820,-0.03304680,0.00000138,-0.03120457,-
 0.01431322,0.00000068,-0.01811380,-0.00611498,0.00185367,-0.01811313,-
 0.00611480,-0.00185269,0.00092603,-0.00023201,-0.00070375,0.00092607,-
 0.00023198,0.00070372,0.17447613,-0.02960930,-0.04769736,0.00000062,0.
 00700507,0.00533464,-0.00000016,-0.01896042,-0.00403017,0.00348730,-0.
 01896037,-0.00403016,-0.00348649,0.00023560,0.00094275,-0.00053198,0.0
 0023562,0.00094276,0.00053197,0.05587153,0.04729624,0.00000137,0.00000
 069,-0.03629421,0.00000059,0.00000026,0.00055710,-0.01815756,-0.004759
 39,0.00564193,0.01815865,0.00475971,0.00564129,-0.00028676,-0.00072271
 ,0.00016118,0.00028673,0.00072271,0.00016113,-0.00000316,-0.00000119,0
 .02278251,-0.03120487,-0.01431323,0.00000068,-0.10147761,-0.03304694,0
 .00000139,0.00092599,-0.00023200,0.00070372,0.00092595,-0.00023203,-0.
 00070375,-0.01811295,-0.00611483,-0.00185266,-0.01811360,-0.00611501,0
 .00185363,-0.00741853,0.00418227,0.00000015,0.17447562,0.00700498,0.00
 533450,-0.00000015,-0.02960951,-0.04769758,0.00000064,0.00023569,0.000
 94276,0.00053198,0.00023567,0.00094275,-0.00053200,-0.01896044,-0.0040
 3027,-0.00348649,-0.01896045,-0.00403028,0.00348730,0.00418227,0.00124
 131,-0.00000008,0.05587178,0.04729682,0.00000059,0.00000026,0.00055711
 ,0.00000137,0.00000070,-0.03629418,0.00028677,0.00072271,0.00016114,-0
 .00028681,-0.00072271,0.00016119,0.01815862,0.00475977,0.00564125,-0.0
 1815753,-0.00475946,0.00564190,0.00000015,-0.00000008,0.00134908,-0.00
 000317,-0.00000120,0.02278252\\-0.00019732,0.00040510,0.,0.00019721,-0
 .00040434,0.00000018,0.00000914,-0.00006473,0.00002131,0.00000922,-0.0
 0006472,-0.00002135,-0.00000906,0.00006424,0.00002138,-0.00000910,0.00
 006418,-0.00002155,0.00002205,-0.00002374,0.00000003,-0.00002214,0.000
 02401,-0.00000001\\\@


 CHEMISTRY BEGAN BY SAYING IT WOULD CHANGE THE BASER
 METALS INTO GOLD.  BY NOT DOING THAT IT HAS DONE MUCH
 GREATER THINGS.  --  RALPH WALDO EMERSON
 Job cpu time:       0 days  0 hours  4 minutes 40.7 seconds.
 Elapsed time:       0 days  0 hours  0 minutes  8.8 seconds.
 File lengths (MBytes):  RWF=     14 Int=      0 D2E=      0 Chk=      2 Scr=      1
 Normal termination of Gaussian 16 at Fri Sep 15 07:32:54 2023.
