 Entering Gaussian System, Link 0=/home/ubuntu/g16/g16
 Input=/home/ubuntu/Downloads/MOLECULE_12-vol.gjf
 Output=/home/ubuntu/Downloads/MOLECULE_12-vol.log
 Initial command:
 /home/ubuntu/g16/l1.exe "/home/ubuntu/Scratch/Gau-21643.inp" -scrdir="/home/ubuntu/Scratch/"
 Entering Link 1 = /home/ubuntu/g16/l1.exe PID=     21645.
  
 Copyright (c) 1988-2017, Gaussian, Inc.  All Rights Reserved.
  
 This is part of the Gaussian(R) 16 program.  It is based on
 the Gaussian(R) 09 system (copyright 2009, Gaussian, Inc.),
 the Gaussian(R) 03 system (copyright 2003, Gaussian, Inc.),
 the Gaussian(R) 98 system (copyright 1998, Gaussian, Inc.),
 the Gaussian(R) 94 system (copyright 1995, Gaussian, Inc.),
 the Gaussian 92(TM) system (copyright 1992, Gaussian, Inc.),
 the Gaussian 90(TM) system (copyright 1990, Gaussian, Inc.),
 the Gaussian 88(TM) system (copyright 1988, Gaussian, Inc.),
 the Gaussian 86(TM) system (copyright 1986, Carnegie Mellon
 University), and the Gaussian 82(TM) system (copyright 1983,
 Carnegie Mellon University). Gaussian is a federally registered
 trademark of Gaussian, Inc.
  
 This software contains proprietary and confidential information,
 including trade secrets, belonging to Gaussian, Inc.
  
 This software is provided under written license and may be
 used, copied, transmitted, or stored only in accord with that
 written license.
  
 The following legend is applicable only to US Government
 contracts under FAR:
  
                    RESTRICTED RIGHTS LEGEND
  
 Use, reproduction and disclosure by the US Government is
 subject to restrictions as set forth in subparagraphs (a)
 and (c) of the Commercial Computer Software - Restricted
 Rights clause in FAR 52.227-19.
  
 Gaussian, Inc.
 340 Quinnipiac St., Bldg. 40, Wallingford CT 06492
  
  
 ---------------------------------------------------------------
 Warning -- This program may not be used in any manner that
 competes with the business of Gaussian, Inc. or will provide
 assistance to any competitor of Gaussian, Inc.  The licensee
 of this program is prohibited from giving any competitor of
 Gaussian, Inc. access to this program.  By using this program,
 the user acknowledges that Gaussian, Inc. is engaged in the
 business of creating and licensing software in the field of
 computational chemistry and represents and warrants to the
 licensee that it is not a competitor of Gaussian, Inc. and that
 it will not use this program in any manner prohibited above.
 ---------------------------------------------------------------
  

 Cite this work as:
 Gaussian 16, Revision B.01,
 M. J. Frisch, G. W. Trucks, H. B. Schlegel, G. E. Scuseria, 
 M. A. Robb, J. R. Cheeseman, G. Scalmani, V. Barone, 
 G. A. Petersson, H. Nakatsuji, X. Li, M. Caricato, A. V. Marenich, 
 J. Bloino, B. G. Janesko, R. Gomperts, B. Mennucci, H. P. Hratchian, 
 J. V. Ortiz, A. F. Izmaylov, J. L. Sonnenberg, D. Williams-Young, 
 F. Ding, F. Lipparini, F. Egidi, J. Goings, B. Peng, A. Petrone, 
 T. Henderson, D. Ranasinghe, V. G. Zakrzewski, J. Gao, N. Rega, 
 G. Zheng, W. Liang, M. Hada, M. Ehara, K. Toyota, R. Fukuda, 
 J. Hasegawa, M. Ishida, T. Nakajima, Y. Honda, O. Kitao, H. Nakai, 
 T. Vreven, K. Throssell, J. A. Montgomery, Jr., J. E. Peralta, 
 F. Ogliaro, M. J. Bearpark, J. J. Heyd, E. N. Brothers, K. N. Kudin, 
 V. N. Staroverov, T. A. Keith, R. Kobayashi, J. Normand, 
 K. Raghavachari, A. P. Rendell, J. C. Burant, S. S. Iyengar, 
 J. Tomasi, M. Cossi, J. M. Millam, M. Klene, C. Adamo, R. Cammi, 
 J. W. Ochterski, R. L. Martin, K. Morokuma, O. Farkas, 
 J. B. Foresman, and D. J. Fox, Gaussian, Inc., Wallingford CT, 2016.
 
 ******************************************
 Gaussian 16:  EM64L-G16RevB.01 20-Dec-2017
                15-Sep-2023 
 ******************************************
 %nprocshared=32
 Will use up to   32 processors via shared memory.
 %mem=62GB
 %chk=MOLECULE_12-vol.chk
 ----------------------------------------------------------------------
 # opt freq b3lyp/6-31+g(d) empiricaldispersion=gd3 scf=maxcycle=1000 v
 olume
 ----------------------------------------------------------------------
 1/18=20,19=15,26=3,38=1/1,3;
 2/9=110,12=2,17=6,18=5,40=1/2;
 3/5=1,6=6,7=11,11=2,25=1,30=1,71=1,74=-5,124=31/1,2,3;
 4//1;
 5/5=2,7=1000,38=5/2;
 6/7=2,8=2,9=2,10=2,28=1,44=1/1,4;
 7//1,2,3,16;
 1/18=20,19=15,26=3/3(2);
 2/9=110/2;
 99//99;
 2/9=110/2;
 3/5=1,6=6,7=11,11=2,25=1,30=1,71=1,74=-5,124=31/1,2,3;
 4/5=5,16=3,69=1/1;
 5/5=2,7=1000,38=5/2;
 7//1,2,3,16;
 1/18=20,19=15,26=3/3(-5);
 2/9=110/2;
 6/7=2,8=2,9=2,10=2,19=2,28=1,44=1/1,4;
 99/9=1/99;
 -------------------
 Title Card Required
 -------------------
 Symbolic Z-matrix:
 Charge =  0 Multiplicity = 1
 C                     1.178    -0.19581   0. 
 H                     2.02415   0.49665  -0.00022 
 H                     1.23569  -0.83716  -0.89562 
 H                     1.2359   -0.83684   0.89584 
 O                     0.        0.58805   0. 
 C                    -1.178    -0.19581  0. 
 H                    -1.23576  -0.83707   0.89569 
 H                    -2.02415   0.49665   0.00009 
 H                    -1.23583  -0.83693  -0.89578 
 

 GradGradGradGradGradGradGradGradGradGradGradGradGradGradGradGradGradGrad
 Berny optimization.
 Initialization pass.
                           ----------------------------
                           !    Initial Parameters    !
                           ! (Angstroms and Degrees)  !
 --------------------------                            --------------------------
 ! Name  Definition              Value          Derivative Info.                !
 --------------------------------------------------------------------------------
 ! R1    R(1,2)                  1.0934         estimate D2E/DX2                !
 ! R2    R(1,3)                  1.1031         estimate D2E/DX2                !
 ! R3    R(1,4)                  1.1031         estimate D2E/DX2                !
 ! R4    R(1,5)                  1.415          estimate D2E/DX2                !
 ! R5    R(5,6)                  1.415          estimate D2E/DX2                !
 ! R6    R(6,7)                  1.1031         estimate D2E/DX2                !
 ! R7    R(6,8)                  1.0934         estimate D2E/DX2                !
 ! R8    R(6,9)                  1.1031         estimate D2E/DX2                !
 ! A1    A(2,1,3)              109.122          estimate D2E/DX2                !
 ! A2    A(2,1,4)              109.1225         estimate D2E/DX2                !
 ! A3    A(2,1,5)              107.0641         estimate D2E/DX2                !
 ! A4    A(3,1,4)              108.5878         estimate D2E/DX2                !
 ! A5    A(3,1,5)              111.4465         estimate D2E/DX2                !
 ! A6    A(4,1,5)              111.4462         estimate D2E/DX2                !
 ! A7    A(1,5,6)              112.7194         estimate D2E/DX2                !
 ! A8    A(5,6,7)              111.4465         estimate D2E/DX2                !
 ! A9    A(5,6,8)              107.0641         estimate D2E/DX2                !
 ! A10   A(5,6,9)              111.4462         estimate D2E/DX2                !
 ! A11   A(7,6,8)              109.122          estimate D2E/DX2                !
 ! A12   A(7,6,9)              108.5878         estimate D2E/DX2                !
 ! A13   A(8,6,9)              109.1226         estimate D2E/DX2                !
 ! D1    D(2,1,5,6)            179.9877         estimate D2E/DX2                !
 ! D2    D(3,1,5,6)             60.73           estimate D2E/DX2                !
 ! D3    D(4,1,5,6)            -60.7541         estimate D2E/DX2                !
 ! D4    D(1,5,6,7)             60.7372         estimate D2E/DX2                !
 ! D5    D(1,5,6,8)            179.9949         estimate D2E/DX2                !
 ! D6    D(1,5,6,9)            -60.7469         estimate D2E/DX2                !
 --------------------------------------------------------------------------------
 Trust Radius=3.00D-01 FncErr=1.00D-07 GrdErr=1.00D-06 EigMax=2.50D+02 EigMin=1.00D-04
 Number of steps in this run=     37 maximum allowed number of steps=    100.
 GradGradGradGradGradGradGradGradGradGradGradGradGradGradGradGradGradGrad

                          Input orientation:                          
 ---------------------------------------------------------------------
 Center     Atomic      Atomic             Coordinates (Angstroms)
 Number     Number       Type             X           Y           Z
 ---------------------------------------------------------------------
      1          6           0        1.177999   -0.195807    0.000001
      2          1           0        2.024151    0.496653   -0.000222
      3          1           0        1.235693   -0.837157   -0.895624
      4          1           0        1.235895   -0.836843    0.895837
      5          8           0        0.000000    0.588048    0.000001
      6          6           0       -1.177999   -0.195807   -0.000001
      7          1           0       -1.235755   -0.837066    0.895685
      8          1           0       -2.024151    0.496653    0.000093
      9          1           0       -1.235832   -0.836933   -0.895776
 ---------------------------------------------------------------------
                    Distance matrix (angstroms):
                    1          2          3          4          5
     1  C    0.000000
     2  H    1.093377   0.000000
     3  H    1.103088   1.789542   0.000000
     4  H    1.103087   1.789548   1.791461   0.000000
     5  O    1.414959   2.026213   2.088131   2.088127   0.000000
     6  C    2.355998   3.276166   2.653183   2.653363   1.414959
     7  H    2.653238   3.634342   3.052350   2.471650   2.088131
     8  H    3.276166   4.048302   3.634273   3.634346   2.026213
     9  H    2.653307   3.634275   2.471525   3.052755   2.088125
                    6          7          8          9
     6  C    0.000000
     7  H    1.103088   0.000000
     8  H    1.093377   1.789542   0.000000
     9  H    1.103087   1.791461   1.789547   0.000000
 Stoichiometry    C2H6O
 Framework group  C1[X(C2H6O)]
 Deg. of freedom    21
 Full point group                 C1      NOp   1
 Largest Abelian subgroup         C1      NOp   1
 Largest concise Abelian subgroup C1      NOp   1
                         Standard orientation:                         
 ---------------------------------------------------------------------
 Center     Atomic      Atomic             Coordinates (Angstroms)
 Number     Number       Type             X           Y           Z
 ---------------------------------------------------------------------
      1          6           0        1.177999   -0.195807    0.000001
      2          1           0        2.024151    0.496653   -0.000222
      3          1           0        1.235693   -0.837157   -0.895624
      4          1           0        1.235895   -0.836843    0.895837
      5          8           0        0.000000    0.588048    0.000001
      6          6           0       -1.177999   -0.195807   -0.000001
      7          1           0       -1.235755   -0.837066    0.895685
      8          1           0       -2.024151    0.496653    0.000093
      9          1           0       -1.235832   -0.836933   -0.895776
 ---------------------------------------------------------------------
 Rotational constants (GHZ):          39.2106834           9.9183681           8.8085384
 Standard basis: 6-31+G(d) (6D, 7F)
 There are    69 symmetry adapted cartesian basis functions of A   symmetry.
 There are    69 symmetry adapted basis functions of A   symmetry.
    69 basis functions,   120 primitive gaussians,    69 cartesian basis functions
    13 alpha electrons       13 beta electrons
       nuclear repulsion energy        83.5846091011 Hartrees.
 NAtoms=    9 NActive=    9 NUniq=    9 SFac= 1.00D+00 NAtFMM=   60 NAOKFM=F Big=F
 Integral buffers will be    131072 words long.
 Raffenetti 2 integral format.
 Two-electron integral symmetry is turned on.
 Nuclear repulsion after empirical dispersion term =       83.5814000337 Hartrees.
 One-electron integrals computed using PRISM.
 NBasis=    69 RedAO= T EigKep=  1.71D-03  NBF=    69
 NBsUse=    69 1.00D-06 EigRej= -1.00D+00 NBFU=    69
 ExpMin= 4.38D-02 ExpMax= 5.48D+03 ExpMxC= 8.25D+02 IAcc=3 IRadAn=         5 AccDes= 0.00D+00
 Harris functional with IExCor=  402 and IRadAn=       5 diagonalized for initial guess.
 HarFok:  IExCor=  402 AccDes= 0.00D+00 IRadAn=         5 IDoV= 1 UseB2=F ITyADJ=14
 ICtDFT=  3500011 ScaDFX=  1.000000  1.000000  1.000000  1.000000
 FoFCou: FMM=F IPFlag=           0 FMFlag=      100000 FMFlg1=           0
         NFxFlg=           0 DoJE=T BraDBF=F KetDBF=T FulRan=T
         wScrn=  0.000000 ICntrl=       500 IOpCl=  0 I1Cent=   200000004 NGrid=           0
         NMat0=    1 NMatS0=      1 NMatT0=    0 NMatD0=    1 NMtDS0=    0 NMtDT0=    0
 Petite list used in FoFCou.
 Keep R1 ints in memory in canonical form, NReq=31507365.
 Requested convergence on RMS density matrix=1.00D-08 within1000 cycles.
 Requested convergence on MAX density matrix=1.00D-06.
 Requested convergence on             energy=1.00D-06.
 No special actions if energy rises.
 SCF Done:  E(RB3LYP) =  -155.036901738     A.U. after    9 cycles
            NFock=  9  Conv=0.35D-08     -V/T= 2.0097

 **********************************************************************

            Population analysis using the SCF Density.

 **********************************************************************

 Orbital symmetries:
       Occupied  (A) (A) (A) (A) (A) (A) (A) (A) (A) (A) (A) (A)
                 (A)
       Virtual   (A) (A) (A) (A) (A) (A) (A) (A) (A) (A) (A) (A)
                 (A) (A) (A) (A) (A) (A) (A) (A) (A) (A) (A) (A)
                 (A) (A) (A) (A) (A) (A) (A) (A) (A) (A) (A) (A)
                 (A) (A) (A) (A) (A) (A) (A) (A) (A) (A) (A) (A)
                 (A) (A) (A) (A) (A) (A) (A) (A)
 The electronic state is 1-A.
 Alpha  occ. eigenvalues --  -19.15996 -10.23214 -10.23213  -1.03744  -0.72614
 Alpha  occ. eigenvalues --   -0.64263  -0.48153  -0.47504  -0.47405  -0.40156
 Alpha  occ. eigenvalues --   -0.38333  -0.32505  -0.26381
 Alpha virt. eigenvalues --    0.01071   0.02962   0.03561   0.04639   0.05500
 Alpha virt. eigenvalues --    0.07217   0.08317   0.12041   0.15922   0.18648
 Alpha virt. eigenvalues --    0.18701   0.19332   0.21478   0.23799   0.25247
 Alpha virt. eigenvalues --    0.25931   0.29371   0.29841   0.33277   0.34466
 Alpha virt. eigenvalues --    0.61712   0.65228   0.65698   0.68008   0.71023
 Alpha virt. eigenvalues --    0.76327   0.86378   0.91182   0.92652   0.97806
 Alpha virt. eigenvalues --    1.03530   1.08465   1.21010   1.21913   1.24678
 Alpha virt. eigenvalues --    1.28100   1.43911   1.48460   1.48480   1.51465
 Alpha virt. eigenvalues --    1.66409   1.89370   2.05241   2.08654   2.10104
 Alpha virt. eigenvalues --    2.19116   2.19743   2.26186   2.29829   2.50085
 Alpha virt. eigenvalues --    2.55670   2.74745   2.91855   4.16122   4.29736
 Alpha virt. eigenvalues --    4.32322
          Condensed to atoms (all electrons):
               1          2          3          4          5          6
     1  C    5.186220   0.395296   0.390303   0.390307   0.159024  -0.134327
     2  H    0.395296   0.509608  -0.029775  -0.029778  -0.051104   0.008381
     3  H    0.390303  -0.029775   0.567408  -0.049005  -0.055121  -0.007600
     4  H    0.390307  -0.029778  -0.049005   0.567400  -0.055124  -0.007601
     5  O    0.159024  -0.051104  -0.055121  -0.055124   8.345729   0.159024
     6  C   -0.134327   0.008381  -0.007600  -0.007601   0.159024   5.186220
     7  H   -0.007597  -0.000162  -0.002171   0.009789  -0.055123   0.390303
     8  H    0.008381  -0.000169  -0.000162  -0.000162  -0.051104   0.395296
     9  H   -0.007604  -0.000162   0.009791  -0.002170  -0.055122   0.390307
               7          8          9
     1  C   -0.007597   0.008381  -0.007604
     2  H   -0.000162  -0.000169  -0.000162
     3  H   -0.002171  -0.000162   0.009791
     4  H    0.009789  -0.000162  -0.002170
     5  O   -0.055123  -0.051104  -0.055122
     6  C    0.390303   0.395296   0.390307
     7  H    0.567407  -0.029777  -0.049005
     8  H   -0.029777   0.509608  -0.029777
     9  H   -0.049005  -0.029777   0.567401
 Mulliken charges:
               1
     1  C   -0.380002
     2  H    0.197865
     3  H    0.176333
     4  H    0.176344
     5  O   -0.341079
     6  C   -0.380002
     7  H    0.176336
     8  H    0.197865
     9  H    0.176341
 Sum of Mulliken charges =   0.00000
 Mulliken charges with hydrogens summed into heavy atoms:
               1
     1  C    0.170539
     5  O   -0.341079
     6  C    0.170539
 Electronic spatial extent (au):  <R**2>=            189.6943
 Charge=              0.0000 electrons
 Dipole moment (field-independent basis, Debye):
    X=              0.0000    Y=             -1.4600    Z=              0.0000  Tot=              1.4600
 Quadrupole moment (field-independent basis, Debye-Ang):
   XX=            -17.4071   YY=            -21.7595   ZZ=            -20.5521
   XY=              0.0000   XZ=             -0.0001   YZ=              0.0000
 Traceless Quadrupole moment (field-independent basis, Debye-Ang):
   XX=              2.4992   YY=             -1.8533   ZZ=             -0.6459
   XY=              0.0000   XZ=             -0.0001   YZ=              0.0000
 Octapole moment (field-independent basis, Debye-Ang**2):
  XXX=              0.0000  YYY=              1.5092  ZZZ=              0.0001  XYY=              0.0000
  XXY=              2.5784  XXZ=             -0.0001  XZZ=              0.0000  YZZ=             -0.3356
  YYZ=             -0.0001  XYZ=             -0.0003
 Hexadecapole moment (field-independent basis, Debye-Ang**3):
 XXXX=           -165.5427 YYYY=            -54.4062 ZZZZ=            -36.6736 XXXY=              0.0000
 XXXZ=             -0.0011 YYYX=              0.0000 YYYZ=              0.0001 ZZZX=              0.0005
 ZZZY=             -0.0001 XXYY=            -35.6623 XXZZ=            -35.7782 YYZZ=            -14.6056
 XXYZ=             -0.0003 YYXZ=             -0.0004 ZZXY=              0.0000
 N-N= 8.358140003366D+01 E-N=-5.285343933095D+02  KE= 1.535524126649D+02
 Evaluate density.
 Using the total density.
 Monte-Carlo method of calculating molar volume:
 based on  0.001 e/bohr**3 density envelope.
 Number of points per bohr**3 =   20 CutOff= 1.00D-04
 Using the SCF density.
 There are       287 points.  Will hold       287 in memory.
 LenV=  8321473355 MDV=  8321499136.
 Box volume = 2965.332 fraction occupied=0.209
 Integrated density= 1.5836880677013024D+01 error=-1.0163119322986976D+01
 Molar volume =  619.930 bohr**3/mol ( 55.322 cm**3/mol)
 Recommended a0 for SCRF calculation =  3.58 angstrom (  6.77 bohr)
 Calling FoFJK, ICntrl=      2127 FMM=F ISym2X=0 I1Cent= 0 IOpClX= 0 NMat=1 NMatS=1 NMatT=0.
 ***** Axes restored to original set *****
 -------------------------------------------------------------------
 Center     Atomic                   Forces (Hartrees/Bohr)
 Number     Number              X              Y              Z
 -------------------------------------------------------------------
      1        6           0.000182108    0.000015973   -0.000000545
      2        1           0.000006018   -0.000138519    0.000001014
      3        1           0.000005659    0.000081352    0.000101268
      4        1           0.000005302    0.000080324   -0.000101708
      5        8           0.000000057   -0.000078170   -0.000001354
      6        6          -0.000182020    0.000016195    0.000001978
      7        1          -0.000005468    0.000080890   -0.000101380
      8        1          -0.000006032   -0.000138515   -0.000000632
      9        1          -0.000005623    0.000080470    0.000101358
 -------------------------------------------------------------------
 Cartesian Forces:  Max     0.000182108 RMS     0.000081363

 GradGradGradGradGradGradGradGradGradGradGradGradGradGradGradGradGradGrad
 Berny optimization.
 FormGI is forming the generalized inverse of G from B-inverse, IUseBI=4.
 Internal  Forces:  Max     0.000183580 RMS     0.000092170
 Search for a local minimum.
 Step number   1 out of a maximum of   37
 All quantities printed in internal units (Hartrees-Bohrs-Radians)
 Mixed Optimization -- En-DIIS/RFO-DIIS
 Second derivative matrix not updated -- first step.
 ITU=  0
     Eigenvalues ---    0.01494   0.01494   0.10086   0.10086   0.10544
     Eigenvalues ---    0.10544   0.16000   0.16000   0.16000   0.16000
     Eigenvalues ---    0.16000   0.16000   0.25000   0.33343   0.33343
     Eigenvalues ---    0.33343   0.33343   0.34425   0.34425   0.43229
     Eigenvalues ---    0.43229
 RFO step:  Lambda=-9.45475391D-07 EMin= 1.49389526D-02
 Linear search not attempted -- first point.
 Iteration  1 RMS(Cart)=  0.00068607 RMS(Int)=  0.00000017
 Iteration  2 RMS(Cart)=  0.00000019 RMS(Int)=  0.00000003
 Variable       Old X    -DE/DX   Delta X   Delta X   Delta X     New X
                                 (Linear)    (Quad)   (Total)
    R1        2.06618  -0.00008   0.00000  -0.00024  -0.00024   2.06594
    R2        2.08453  -0.00013   0.00000  -0.00039  -0.00039   2.08415
    R3        2.08453  -0.00013   0.00000  -0.00039  -0.00039   2.08415
    R4        2.67389   0.00014   0.00000   0.00033   0.00033   2.67422
    R5        2.67389   0.00014   0.00000   0.00033   0.00033   2.67422
    R6        2.08453  -0.00013   0.00000  -0.00039  -0.00039   2.08415
    R7        2.06618  -0.00008   0.00000  -0.00024  -0.00024   2.06594
    R8        2.08453  -0.00013   0.00000  -0.00039  -0.00039   2.08415
    A1        1.90454  -0.00006   0.00000  -0.00033  -0.00033   1.90421
    A2        1.90455  -0.00006   0.00000  -0.00034  -0.00034   1.90421
    A3        1.86862   0.00017   0.00000   0.00109   0.00109   1.86971
    A4        1.89521  -0.00001   0.00000  -0.00015  -0.00015   1.89507
    A5        1.94511  -0.00002   0.00000  -0.00014  -0.00014   1.94497
    A6        1.94510  -0.00002   0.00000  -0.00014  -0.00014   1.94496
    A7        1.96733   0.00018   0.00000   0.00073   0.00073   1.96806
    A8        1.94511  -0.00002   0.00000  -0.00014  -0.00014   1.94497
    A9        1.86862   0.00017   0.00000   0.00109   0.00109   1.86971
   A10        1.94510  -0.00002   0.00000  -0.00014  -0.00014   1.94496
   A11        1.90454  -0.00006   0.00000  -0.00033  -0.00033   1.90421
   A12        1.89522  -0.00001   0.00000  -0.00015  -0.00015   1.89507
   A13        1.90455  -0.00006   0.00000  -0.00034  -0.00034   1.90421
    D1        3.14138   0.00000   0.00000   0.00009   0.00009   3.14147
    D2        1.05994  -0.00002   0.00000  -0.00010  -0.00010   1.05984
    D3       -1.06036   0.00002   0.00000   0.00028   0.00028  -1.06008
    D4        1.06006  -0.00002   0.00000  -0.00016  -0.00016   1.05991
    D5        3.14150   0.00000   0.00000   0.00004   0.00004   3.14154
    D6       -1.06023   0.00002   0.00000   0.00023   0.00023  -1.06001
         Item               Value     Threshold  Converged?
 Maximum Force            0.000184     0.000450     YES
 RMS     Force            0.000092     0.000300     YES
 Maximum Displacement     0.001582     0.001800     YES
 RMS     Displacement     0.000686     0.001200     YES
 Predicted change in Energy=-4.727385D-07
 Optimization completed.
    -- Stationary point found.
                           ----------------------------
                           !   Optimized Parameters   !
                           ! (Angstroms and Degrees)  !
 --------------------------                            --------------------------
 ! Name  Definition              Value          Derivative Info.                !
 --------------------------------------------------------------------------------
 ! R1    R(1,2)                  1.0934         -DE/DX =   -0.0001              !
 ! R2    R(1,3)                  1.1031         -DE/DX =   -0.0001              !
 ! R3    R(1,4)                  1.1031         -DE/DX =   -0.0001              !
 ! R4    R(1,5)                  1.415          -DE/DX =    0.0001              !
 ! R5    R(5,6)                  1.415          -DE/DX =    0.0001              !
 ! R6    R(6,7)                  1.1031         -DE/DX =   -0.0001              !
 ! R7    R(6,8)                  1.0934         -DE/DX =   -0.0001              !
 ! R8    R(6,9)                  1.1031         -DE/DX =   -0.0001              !
 ! A1    A(2,1,3)              109.122          -DE/DX =   -0.0001              !
 ! A2    A(2,1,4)              109.1225         -DE/DX =   -0.0001              !
 ! A3    A(2,1,5)              107.0641         -DE/DX =    0.0002              !
 ! A4    A(3,1,4)              108.5878         -DE/DX =    0.0                 !
 ! A5    A(3,1,5)              111.4465         -DE/DX =    0.0                 !
 ! A6    A(4,1,5)              111.4462         -DE/DX =    0.0                 !
 ! A7    A(1,5,6)              112.7194         -DE/DX =    0.0002              !
 ! A8    A(5,6,7)              111.4465         -DE/DX =    0.0                 !
 ! A9    A(5,6,8)              107.0641         -DE/DX =    0.0002              !
 ! A10   A(5,6,9)              111.4462         -DE/DX =    0.0                 !
 ! A11   A(7,6,8)              109.122          -DE/DX =   -0.0001              !
 ! A12   A(7,6,9)              108.5878         -DE/DX =    0.0                 !
 ! A13   A(8,6,9)              109.1226         -DE/DX =   -0.0001              !
 ! D1    D(2,1,5,6)            179.9877         -DE/DX =    0.0                 !
 ! D2    D(3,1,5,6)             60.73           -DE/DX =    0.0                 !
 ! D3    D(4,1,5,6)            -60.7541         -DE/DX =    0.0                 !
 ! D4    D(1,5,6,7)             60.7372         -DE/DX =    0.0                 !
 ! D5    D(1,5,6,8)            179.9949         -DE/DX =    0.0                 !
 ! D6    D(1,5,6,9)            -60.7469         -DE/DX =    0.0                 !
 --------------------------------------------------------------------------------
 GradGradGradGradGradGradGradGradGradGradGradGradGradGradGradGradGradGrad

                          Input orientation:                          
 ---------------------------------------------------------------------
 Center     Atomic      Atomic             Coordinates (Angstroms)
 Number     Number       Type             X           Y           Z
 ---------------------------------------------------------------------
      1          6           0        1.177999   -0.195807    0.000001
      2          1           0        2.024151    0.496653   -0.000222
      3          1           0        1.235693   -0.837157   -0.895624
      4          1           0        1.235895   -0.836843    0.895837
      5          8           0        0.000000    0.588048    0.000001
      6          6           0       -1.177999   -0.195807   -0.000001
      7          1           0       -1.235755   -0.837066    0.895685
      8          1           0       -2.024151    0.496653    0.000093
      9          1           0       -1.235832   -0.836933   -0.895776
 ---------------------------------------------------------------------
                    Distance matrix (angstroms):
                    1          2          3          4          5
     1  C    0.000000
     2  H    1.093377   0.000000
     3  H    1.103088   1.789542   0.000000
     4  H    1.103087   1.789548   1.791461   0.000000
     5  O    1.414959   2.026213   2.088131   2.088127   0.000000
     6  C    2.355998   3.276166   2.653183   2.653363   1.414959
     7  H    2.653238   3.634342   3.052350   2.471650   2.088131
     8  H    3.276166   4.048302   3.634273   3.634346   2.026213
     9  H    2.653307   3.634275   2.471525   3.052755   2.088125
                    6          7          8          9
     6  C    0.000000
     7  H    1.103088   0.000000
     8  H    1.093377   1.789542   0.000000
     9  H    1.103087   1.791461   1.789547   0.000000
 Stoichiometry    C2H6O
 Framework group  C1[X(C2H6O)]
 Deg. of freedom    21
 Full point group                 C1      NOp   1
 Largest Abelian subgroup         C1      NOp   1
 Largest concise Abelian subgroup C1      NOp   1
                         Standard orientation:                         
 ---------------------------------------------------------------------
 Center     Atomic      Atomic             Coordinates (Angstroms)
 Number     Number       Type             X           Y           Z
 ---------------------------------------------------------------------
      1          6           0        1.177999   -0.195807    0.000001
      2          1           0        2.024151    0.496653   -0.000222
      3          1           0        1.235693   -0.837157   -0.895624
      4          1           0        1.235895   -0.836843    0.895837
      5          8           0        0.000000    0.588048    0.000001
      6          6           0       -1.177999   -0.195807   -0.000001
      7          1           0       -1.235755   -0.837066    0.895685
      8          1           0       -2.024151    0.496653    0.000093
      9          1           0       -1.235832   -0.836933   -0.895776
 ---------------------------------------------------------------------
 Rotational constants (GHZ):          39.2106834           9.9183681           8.8085384
 1\1\GINC-IP-172-31-1-231\FOpt\RB3LYP\6-31+G(d)\C2H6O1\UBUNTU\15-Sep-20
 23\0\\# opt freq b3lyp/6-31+g(d) empiricaldispersion=gd3 scf=maxcycle=
 1000 volume\\Title Card Required\\0,1\C,1.177999,-0.195807,0.000001\H,
 2.024151,0.496653,-0.000222\H,1.235693,-0.837157,-0.895624\H,1.235895,
 -0.836843,0.895837\O,0.,0.588048,0.000001\C,-1.177999,-0.195807,-0.000
 001\H,-1.235755,-0.837066,0.895685\H,-2.024151,0.496653,0.000093\H,-1.
 235832,-0.836933,-0.895776\\Version=EM64L-G16RevB.01\State=1-A\HF=-155
 .0369017\RMSD=3.516e-09\RMSF=8.136e-05\Dipole=-0.0000002,-0.574419,-0.
 0000074\Quadrupole=1.858062,-1.377849,-0.480213,-0.0000003,-0.0000764,
 -0.0000054\PG=C01 [X(C2H6O1)]\\@


 I take a simple view of life: keep your eyes open and get on with it.
 -- Laurence Olivier
 Job cpu time:       0 days  0 hours  2 minutes 11.9 seconds.
 Elapsed time:       0 days  0 hours  0 minutes  4.3 seconds.
 File lengths (MBytes):  RWF=      6 Int=      0 D2E=      0 Chk=      2 Scr=      1
 Normal termination of Gaussian 16 at Fri Sep 15 07:34:18 2023.
 Link1:  Proceeding to internal job step number  2.
 ---------------------------------------------------------------------
 #N Geom=AllCheck Guess=TCheck SCRF=Check GenChk RB3LYP/6-31+G(d) Freq
 ---------------------------------------------------------------------
 1/10=4,29=7,30=1,38=1,40=1/1,3;
 2/12=2,40=1/2;
 3/5=1,6=6,7=11,11=2,14=-4,25=1,30=1,70=2,71=2,74=-5,116=1,124=31,140=1/1,2,3;
 4/5=101/1;
 5/5=2,7=1000,38=6,98=1/2;
 8/6=4,10=90,11=11/1;
 11/6=1,8=1,9=11,15=111,16=1/1,2,10;
 10/6=1/2;
 6/7=2,8=2,9=2,10=2,28=1/1;
 7/8=1,10=1,25=1/1,2,3,16;
 1/10=4,30=1/3;
 99//99;
 Structure from the checkpoint file:  "MOLECULE_12-vol.chk"
 -------------------
 Title Card Required
 -------------------
 Charge =  0 Multiplicity = 1
 Redundant internal coordinates found in file.  (old form).
 C,0,1.177999,-0.195807,0.000001
 H,0,2.024151,0.496653,-0.000222
 H,0,1.235693,-0.837157,-0.895624
 H,0,1.235895,-0.836843,0.895837
 O,0,0.,0.588048,0.000001
 C,0,-1.177999,-0.195807,-0.000001
 H,0,-1.235755,-0.837066,0.895685
 H,0,-2.024151,0.496653,0.000093
 H,0,-1.235832,-0.836933,-0.895776
 Recover connectivity data from disk.

 GradGradGradGradGradGradGradGradGradGradGradGradGradGradGradGradGradGrad
 Berny optimization.
 Initialization pass.
                           ----------------------------
                           !    Initial Parameters    !
                           ! (Angstroms and Degrees)  !
 --------------------------                            --------------------------
 ! Name  Definition              Value          Derivative Info.                !
 --------------------------------------------------------------------------------
 ! R1    R(1,2)                  1.0934         calculate D2E/DX2 analytically  !
 ! R2    R(1,3)                  1.1031         calculate D2E/DX2 analytically  !
 ! R3    R(1,4)                  1.1031         calculate D2E/DX2 analytically  !
 ! R4    R(1,5)                  1.415          calculate D2E/DX2 analytically  !
 ! R5    R(5,6)                  1.415          calculate D2E/DX2 analytically  !
 ! R6    R(6,7)                  1.1031         calculate D2E/DX2 analytically  !
 ! R7    R(6,8)                  1.0934         calculate D2E/DX2 analytically  !
 ! R8    R(6,9)                  1.1031         calculate D2E/DX2 analytically  !
 ! A1    A(2,1,3)              109.122          calculate D2E/DX2 analytically  !
 ! A2    A(2,1,4)              109.1225         calculate D2E/DX2 analytically  !
 ! A3    A(2,1,5)              107.0641         calculate D2E/DX2 analytically  !
 ! A4    A(3,1,4)              108.5878         calculate D2E/DX2 analytically  !
 ! A5    A(3,1,5)              111.4465         calculate D2E/DX2 analytically  !
 ! A6    A(4,1,5)              111.4462         calculate D2E/DX2 analytically  !
 ! A7    A(1,5,6)              112.7194         calculate D2E/DX2 analytically  !
 ! A8    A(5,6,7)              111.4465         calculate D2E/DX2 analytically  !
 ! A9    A(5,6,8)              107.0641         calculate D2E/DX2 analytically  !
 ! A10   A(5,6,9)              111.4462         calculate D2E/DX2 analytically  !
 ! A11   A(7,6,8)              109.122          calculate D2E/DX2 analytically  !
 ! A12   A(7,6,9)              108.5878         calculate D2E/DX2 analytically  !
 ! A13   A(8,6,9)              109.1226         calculate D2E/DX2 analytically  !
 ! D1    D(2,1,5,6)            179.9877         calculate D2E/DX2 analytically  !
 ! D2    D(3,1,5,6)             60.73           calculate D2E/DX2 analytically  !
 ! D3    D(4,1,5,6)            -60.7541         calculate D2E/DX2 analytically  !
 ! D4    D(1,5,6,7)             60.7372         calculate D2E/DX2 analytically  !
 ! D5    D(1,5,6,8)            179.9949         calculate D2E/DX2 analytically  !
 ! D6    D(1,5,6,9)            -60.7469         calculate D2E/DX2 analytically  !
 --------------------------------------------------------------------------------
 Trust Radius=3.00D-01 FncErr=1.00D-07 GrdErr=1.00D-07 EigMax=2.50D+02 EigMin=1.00D-04
 Number of steps in this run=      2 maximum allowed number of steps=      2.
 GradGradGradGradGradGradGradGradGradGradGradGradGradGradGradGradGradGrad

                          Input orientation:                          
 ---------------------------------------------------------------------
 Center     Atomic      Atomic             Coordinates (Angstroms)
 Number     Number       Type             X           Y           Z
 ---------------------------------------------------------------------
      1          6           0        1.177999   -0.195807    0.000001
      2          1           0        2.024151    0.496653   -0.000222
      3          1           0        1.235693   -0.837157   -0.895624
      4          1           0        1.235895   -0.836843    0.895837
      5          8           0        0.000000    0.588048    0.000001
      6          6           0       -1.177999   -0.195807   -0.000001
      7          1           0       -1.235755   -0.837066    0.895685
      8          1           0       -2.024151    0.496653    0.000093
      9          1           0       -1.235832   -0.836933   -0.895776
 ---------------------------------------------------------------------
                    Distance matrix (angstroms):
                    1          2          3          4          5
     1  C    0.000000
     2  H    1.093377   0.000000
     3  H    1.103088   1.789542   0.000000
     4  H    1.103087   1.789548   1.791461   0.000000
     5  O    1.414959   2.026213   2.088131   2.088127   0.000000
     6  C    2.355998   3.276166   2.653183   2.653363   1.414959
     7  H    2.653238   3.634342   3.052350   2.471650   2.088131
     8  H    3.276166   4.048302   3.634273   3.634346   2.026213
     9  H    2.653307   3.634275   2.471525   3.052755   2.088125
                    6          7          8          9
     6  C    0.000000
     7  H    1.103088   0.000000
     8  H    1.093377   1.789542   0.000000
     9  H    1.103087   1.791461   1.789547   0.000000
 Stoichiometry    C2H6O
 Framework group  C1[X(C2H6O)]
 Deg. of freedom    21
 Full point group                 C1      NOp   1
 Largest Abelian subgroup         C1      NOp   1
 Largest concise Abelian subgroup C1      NOp   1
                         Standard orientation:                         
 ---------------------------------------------------------------------
 Center     Atomic      Atomic             Coordinates (Angstroms)
 Number     Number       Type             X           Y           Z
 ---------------------------------------------------------------------
      1          6           0        1.177999   -0.195807    0.000001
      2          1           0        2.024151    0.496653   -0.000222
      3          1           0        1.235693   -0.837157   -0.895624
      4          1           0        1.235895   -0.836843    0.895837
      5          8           0        0.000000    0.588048    0.000001
      6          6           0       -1.177999   -0.195807   -0.000001
      7          1           0       -1.235755   -0.837066    0.895685
      8          1           0       -2.024151    0.496653    0.000093
      9          1           0       -1.235832   -0.836933   -0.895776
 ---------------------------------------------------------------------
 Rotational constants (GHZ):          39.2106834           9.9183681           8.8085384
 Standard basis: 6-31+G(d) (6D, 7F)
 There are    69 symmetry adapted cartesian basis functions of A   symmetry.
 There are    69 symmetry adapted basis functions of A   symmetry.
    69 basis functions,   120 primitive gaussians,    69 cartesian basis functions
    13 alpha electrons       13 beta electrons
       nuclear repulsion energy        83.5846091011 Hartrees.
 NAtoms=    9 NActive=    9 NUniq=    9 SFac= 1.00D+00 NAtFMM=   60 NAOKFM=F Big=F
 Integral buffers will be    131072 words long.
 Raffenetti 2 integral format.
 Two-electron integral symmetry is turned on.
 Nuclear repulsion after empirical dispersion term =       83.5814000337 Hartrees.
 One-electron integrals computed using PRISM.
 NBasis=    69 RedAO= T EigKep=  1.71D-03  NBF=    69
 NBsUse=    69 1.00D-06 EigRej= -1.00D+00 NBFU=    69
 Initial guess from the checkpoint file:  "MOLECULE_12-vol.chk"
 B after Tr=     0.000000    0.000000    0.000000
         Rot=    1.000000    0.000000    0.000000    0.000000 Ang=   0.00 deg.
 Keep R1 ints in memory in canonical form, NReq=31507365.
 Requested convergence on RMS density matrix=1.00D-08 within1000 cycles.
 Requested convergence on MAX density matrix=1.00D-06.
 Requested convergence on             energy=1.00D-06.
 No special actions if energy rises.
 SCF Done:  E(RB3LYP) =  -155.036901738     A.U. after    1 cycles
            NFock=  1  Conv=0.80D-09     -V/T= 2.0097
 DoSCS=F DFT=T ScalE2(SS,OS)=  1.000000  1.000000
 Range of M.O.s used for correlation:     1    69
 NBasis=    69 NAE=    13 NBE=    13 NFC=     0 NFV=     0
 NROrb=     69 NOA=    13 NOB=    13 NVA=    56 NVB=    56
 Symmetrizing basis deriv contribution to polar:
 IMax=3 JMax=2 DiffMx= 0.00D+00
 G2DrvN: will do    10 centers at a time, making    1 passes.
 Calling FoFCou, ICntrl=  3107 FMM=F I1Cent=   0 AccDes= 0.00D+00.
 End of G2Drv F.D. properties file   721 does not exist.
 End of G2Drv F.D. properties file   722 does not exist.
 End of G2Drv F.D. properties file   788 does not exist.
          IDoAtm=111111111
          Differentiating once with respect to electric field.
                with respect to dipole field.
          Differentiating once with respect to nuclear coordinates.
 Keep R1 ints in memory in canonical form, NReq=31403694.
          There are    30 degrees of freedom in the 1st order CPHF.  IDoFFX=6 NUNeed=     3.
     27 vectors produced by pass  0 Test12= 2.43D-15 3.33D-09 XBig12= 1.71D+01 1.42D+00.
 AX will form    27 AO Fock derivatives at one time.
     27 vectors produced by pass  1 Test12= 2.43D-15 3.33D-09 XBig12= 2.48D+00 6.16D-01.
     27 vectors produced by pass  2 Test12= 2.43D-15 3.33D-09 XBig12= 5.55D-02 6.16D-02.
     27 vectors produced by pass  3 Test12= 2.43D-15 3.33D-09 XBig12= 1.17D-04 2.70D-03.
     27 vectors produced by pass  4 Test12= 2.43D-15 3.33D-09 XBig12= 1.29D-07 1.15D-04.
     10 vectors produced by pass  5 Test12= 2.43D-15 3.33D-09 XBig12= 9.19D-11 2.12D-06.
      2 vectors produced by pass  6 Test12= 2.43D-15 3.33D-09 XBig12= 2.79D-14 3.55D-08.
 InvSVY:  IOpt=1 It=  1 EMax= 4.44D-15
 Solved reduced A of dimension   147 with    30 vectors.
 Isotropic polarizability for W=    0.000000       29.97 Bohr**3.
 End of Minotr F.D. properties file   721 does not exist.
 End of Minotr F.D. properties file   722 does not exist.
 End of Minotr F.D. properties file   788 does not exist.

 **********************************************************************

            Population analysis using the SCF Density.

 **********************************************************************

 Orbital symmetries:
       Occupied  (A) (A) (A) (A) (A) (A) (A) (A) (A) (A) (A) (A)
                 (A)
       Virtual   (A) (A) (A) (A) (A) (A) (A) (A) (A) (A) (A) (A)
                 (A) (A) (A) (A) (A) (A) (A) (A) (A) (A) (A) (A)
                 (A) (A) (A) (A) (A) (A) (A) (A) (A) (A) (A) (A)
                 (A) (A) (A) (A) (A) (A) (A) (A) (A) (A) (A) (A)
                 (A) (A) (A) (A) (A) (A) (A) (A)
 The electronic state is 1-A.
 Alpha  occ. eigenvalues --  -19.15996 -10.23214 -10.23213  -1.03744  -0.72614
 Alpha  occ. eigenvalues --   -0.64263  -0.48153  -0.47504  -0.47405  -0.40156
 Alpha  occ. eigenvalues --   -0.38333  -0.32504  -0.26381
 Alpha virt. eigenvalues --    0.01071   0.02962   0.03561   0.04639   0.05500
 Alpha virt. eigenvalues --    0.07217   0.08317   0.12041   0.15922   0.18648
 Alpha virt. eigenvalues --    0.18701   0.19332   0.21478   0.23799   0.25247
 Alpha virt. eigenvalues --    0.25931   0.29371   0.29841   0.33277   0.34466
 Alpha virt. eigenvalues --    0.61712   0.65228   0.65698   0.68008   0.71023
 Alpha virt. eigenvalues --    0.76327   0.86378   0.91182   0.92652   0.97806
 Alpha virt. eigenvalues --    1.03530   1.08465   1.21010   1.21913   1.24678
 Alpha virt. eigenvalues --    1.28100   1.43911   1.48460   1.48480   1.51465
 Alpha virt. eigenvalues --    1.66409   1.89370   2.05241   2.08654   2.10104
 Alpha virt. eigenvalues --    2.19116   2.19743   2.26186   2.29829   2.50085
 Alpha virt. eigenvalues --    2.55670   2.74745   2.91855   4.16122   4.29736
 Alpha virt. eigenvalues --    4.32322
          Condensed to atoms (all electrons):
               1          2          3          4          5          6
     1  C    5.186220   0.395296   0.390303   0.390307   0.159024  -0.134327
     2  H    0.395296   0.509608  -0.029775  -0.029778  -0.051104   0.008381
     3  H    0.390303  -0.029775   0.567408  -0.049005  -0.055121  -0.007600
     4  H    0.390307  -0.029778  -0.049005   0.567400  -0.055124  -0.007601
     5  O    0.159024  -0.051104  -0.055121  -0.055124   8.345729   0.159024
     6  C   -0.134327   0.008381  -0.007600  -0.007601   0.159024   5.186220
     7  H   -0.007597  -0.000162  -0.002171   0.009789  -0.055123   0.390303
     8  H    0.008381  -0.000169  -0.000162  -0.000162  -0.051104   0.395296
     9  H   -0.007604  -0.000162   0.009791  -0.002170  -0.055122   0.390307
               7          8          9
     1  C   -0.007597   0.008381  -0.007604
     2  H   -0.000162  -0.000169  -0.000162
     3  H   -0.002171  -0.000162   0.009791
     4  H    0.009789  -0.000162  -0.002170
     5  O   -0.055123  -0.051104  -0.055122
     6  C    0.390303   0.395296   0.390307
     7  H    0.567407  -0.029777  -0.049005
     8  H   -0.029777   0.509608  -0.029777
     9  H   -0.049005  -0.029777   0.567401
 Mulliken charges:
               1
     1  C   -0.380002
     2  H    0.197865
     3  H    0.176333
     4  H    0.176344
     5  O   -0.341079
     6  C   -0.380002
     7  H    0.176336
     8  H    0.197865
     9  H    0.176341
 Sum of Mulliken charges =   0.00000
 Mulliken charges with hydrogens summed into heavy atoms:
               1
     1  C    0.170539
     5  O   -0.341079
     6  C    0.170539
 APT charges:
               1
     1  C    0.533523
     2  H   -0.016046
     3  H   -0.067400
     4  H   -0.067407
     5  O   -0.765340
     6  C    0.533523
     7  H   -0.067403
     8  H   -0.016046
     9  H   -0.067403
 Sum of APT charges =   0.00000
 APT charges with hydrogens summed into heavy atoms:
               1
     1  C    0.382670
     5  O   -0.765340
     6  C    0.382670
 Electronic spatial extent (au):  <R**2>=            189.6943
 Charge=              0.0000 electrons
 Dipole moment (field-independent basis, Debye):
    X=              0.0000    Y=             -1.4600    Z=              0.0000  Tot=              1.4600
 Quadrupole moment (field-independent basis, Debye-Ang):
   XX=            -17.4071   YY=            -21.7595   ZZ=            -20.5521
   XY=              0.0000   XZ=             -0.0001   YZ=              0.0000
 Traceless Quadrupole moment (field-independent basis, Debye-Ang):
   XX=              2.4992   YY=             -1.8533   ZZ=             -0.6459
   XY=              0.0000   XZ=             -0.0001   YZ=              0.0000
 Octapole moment (field-independent basis, Debye-Ang**2):
  XXX=              0.0000  YYY=              1.5092  ZZZ=              0.0001  XYY=              0.0000
  XXY=              2.5784  XXZ=             -0.0001  XZZ=              0.0000  YZZ=             -0.3356
  YYZ=             -0.0001  XYZ=             -0.0003
 Hexadecapole moment (field-independent basis, Debye-Ang**3):
 XXXX=           -165.5427 YYYY=            -54.4062 ZZZZ=            -36.6736 XXXY=              0.0000
 XXXZ=             -0.0011 YYYX=              0.0000 YYYZ=              0.0001 ZZZX=              0.0005
 ZZZY=             -0.0001 XXYY=            -35.6623 XXZZ=            -35.7782 YYZZ=            -14.6056
 XXYZ=             -0.0003 YYXZ=             -0.0004 ZZXY=              0.0000
 N-N= 8.358140003366D+01 E-N=-5.285343924334D+02  KE= 1.535524123541D+02
  Exact polarizability:  33.904   0.000  28.141   0.000   0.000  27.856
 Approx polarizability:  38.397   0.000  37.115   0.000   0.000  35.523
 Calling FoFJK, ICntrl=    100127 FMM=F ISym2X=0 I1Cent= 0 IOpClX= 0 NMat=1 NMatS=1 NMatT=0.
 Full mass-weighted force constant matrix:
 Low frequencies ---   -6.3787   -4.9636   -0.0011   -0.0008    0.0006   29.3520
 Low frequencies ---  216.7683  264.2915  423.8136
 Diagonal vibrational polarizability:
        3.4396242       2.0719793       3.7224337
 Harmonic frequencies (cm**-1), IR intensities (KM/Mole), Raman scattering
 activities (A**4/AMU), depolarization ratios for plane and unpolarized
 incident light, reduced masses (AMU), force constants (mDyne/A),
 and normal coordinates:
                      1                      2                      3
                      A                      A                      A
 Frequencies --    216.7674               264.2765               423.8136
 Red. masses --      1.0310                 1.3138                 2.3246
 Frc consts  --      0.0285                 0.0541                 0.2460
 IR Inten    --      0.0000                 7.7054                 2.6775
  Atom  AN      X      Y      Z        X      Y      Z        X      Y      Z
     1   6     0.00   0.00   0.03     0.00   0.00  -0.06    -0.17  -0.08   0.00
     2   1     0.00   0.00  -0.37     0.00   0.00  -0.49     0.05  -0.35   0.00
     3   1    -0.17  -0.31   0.24    -0.28  -0.20   0.07    -0.39  -0.11   0.01
     4   1     0.17   0.31   0.24     0.28   0.20   0.07    -0.39  -0.11  -0.01
     5   8     0.00   0.00   0.00     0.00   0.00   0.13     0.00   0.19   0.00
     6   6     0.00   0.00  -0.03     0.00   0.00  -0.06     0.17  -0.08   0.00
     7   1     0.17  -0.31  -0.24    -0.28   0.20   0.07     0.39  -0.11  -0.01
     8   1     0.00   0.00   0.37     0.00   0.00  -0.49    -0.05  -0.35   0.00
     9   1    -0.17   0.31  -0.24     0.28  -0.20   0.07     0.39  -0.11   0.01
                      4                      5                      6
                      A                      A                      A
 Frequencies --    939.6427              1123.3831              1170.1936
 Red. masses --      4.2259                 1.8839                 1.2145
 Frc consts  --      2.1983                 1.4007                 0.9799
 IR Inten    --     41.2911                50.9110                 0.0000
  Atom  AN      X      Y      Z        X      Y      Z        X      Y      Z
     1   6     0.29  -0.13   0.00    -0.06   0.15   0.00     0.00   0.00   0.10
     2   1     0.46  -0.33   0.00     0.34  -0.33   0.00     0.00   0.00  -0.20
     3   1     0.09  -0.12   0.01    -0.34   0.04   0.05    -0.36   0.28  -0.12
     4   1     0.09  -0.12  -0.01    -0.34   0.04  -0.05     0.36  -0.28  -0.12
     5   8     0.00   0.26   0.00     0.14   0.00   0.00     0.00   0.00   0.00
     6   6    -0.29  -0.13   0.00    -0.06  -0.15   0.00     0.00   0.00  -0.10
     7   1    -0.09  -0.12  -0.01    -0.34  -0.04   0.05     0.36   0.28   0.12
     8   1    -0.46  -0.33   0.00     0.34   0.33   0.00     0.00   0.00   0.20
     9   1    -0.09  -0.12   0.01    -0.34  -0.04  -0.05    -0.36  -0.28   0.12
                      7                      8                      9
                      A                      A                      A
 Frequencies --   1201.5383              1204.0900              1272.2039
 Red. masses --      1.3486                 2.6503                 1.5550
 Frc consts  --      1.1471                 2.2640                 1.4828
 IR Inten    --      7.8849                98.4089                 5.5286
  Atom  AN      X      Y      Z        X      Y      Z        X      Y      Z
     1   6     0.00   0.00  -0.10    -0.18   0.01   0.00    -0.05  -0.11   0.00
     2   1     0.00   0.00   0.19    -0.42   0.32   0.00    -0.41   0.33   0.00
     3   1     0.35  -0.29   0.14     0.27   0.07  -0.04     0.31   0.04  -0.08
     4   1    -0.35   0.29   0.14     0.26   0.07   0.04     0.31   0.05   0.08
     5   8     0.00   0.00   0.09     0.25   0.00   0.00     0.00   0.12   0.00
     6   6     0.00   0.00  -0.10    -0.18  -0.01   0.00     0.05  -0.11   0.00
     7   1     0.35   0.29   0.14     0.27  -0.07  -0.04    -0.31   0.04   0.08
     8   1     0.00   0.00   0.19    -0.42  -0.32   0.00     0.41   0.33   0.00
     9   1    -0.35  -0.29   0.14     0.26  -0.07   0.04    -0.31   0.04  -0.08
                     10                     11                     12
                      A                      A                      A
 Frequencies --   1476.3516              1501.6379              1505.6806
 Red. masses --      1.1220                 1.0451                 1.1420
 Frc consts  --      1.4408                 1.3884                 1.5254
 IR Inten    --      5.1075                 0.0000                 0.5459
  Atom  AN      X      Y      Z        X      Y      Z        X      Y      Z
     1   6    -0.06   0.03   0.00     0.00   0.00   0.04     0.08  -0.02   0.00
     2   1     0.26  -0.34   0.00     0.00   0.00  -0.51    -0.28   0.39   0.00
     3   1     0.37  -0.10   0.10     0.32   0.12  -0.05    -0.34  -0.11   0.04
     4   1     0.37  -0.10  -0.10    -0.32  -0.12  -0.05    -0.34  -0.11  -0.04
     5   8    -0.04   0.00   0.00     0.00   0.00   0.00     0.00   0.00   0.00
     6   6    -0.06  -0.03   0.00     0.00   0.00  -0.04    -0.08  -0.02   0.00
     7   1     0.37   0.10   0.10    -0.32   0.12   0.05     0.34  -0.11  -0.04
     8   1     0.26   0.34   0.00     0.00   0.00   0.51     0.28   0.39   0.00
     9   1     0.37   0.10  -0.10     0.32  -0.12   0.05     0.34  -0.11   0.04
                     13                     14                     15
                      A                      A                      A
 Frequencies --   1514.5369              1515.2290              1532.1632
 Red. masses --      1.0480                 1.0518                 1.0713
 Frc consts  --      1.4163                 1.4228                 1.4817
 IR Inten    --     14.1285                14.4683                 1.8887
  Atom  AN      X      Y      Z        X      Y      Z        X      Y      Z
     1   6     0.00   0.00  -0.04    -0.01  -0.04   0.00     0.02  -0.05   0.00
     2   1     0.00   0.00   0.51     0.12  -0.19   0.00     0.03  -0.04   0.00
     3   1    -0.32  -0.12   0.04     0.06   0.38  -0.28    -0.14   0.38  -0.29
     4   1     0.32   0.12   0.04     0.06   0.38   0.28    -0.14   0.38   0.29
     5   8     0.00   0.00  -0.01    -0.01   0.00   0.00     0.00  -0.02   0.00
     6   6     0.00   0.00  -0.04    -0.01   0.04   0.00    -0.02  -0.05   0.00
     7   1    -0.32   0.12   0.04     0.06  -0.38  -0.28     0.14   0.38   0.29
     8   1     0.00   0.00   0.51     0.12   0.19   0.00    -0.03  -0.04   0.00
     9   1     0.32  -0.12   0.04     0.06  -0.38   0.28     0.14   0.38  -0.29
                     16                     17                     18
                      A                      A                      A
 Frequencies --   2971.0027              2983.6644              3018.3246
 Red. masses --      1.0359                 1.0376                 1.1035
 Frc consts  --      5.3873                 5.4424                 5.9231
 IR Inten    --     65.1392                76.1018               149.1986
  Atom  AN      X      Y      Z        X      Y      Z        X      Y      Z
     1   6    -0.01   0.03   0.00    -0.01   0.03   0.00     0.00   0.00  -0.07
     2   1     0.13   0.11   0.00     0.13   0.11   0.00     0.00   0.00  -0.02
     3   1     0.02  -0.27  -0.40     0.02  -0.27  -0.40    -0.02   0.29   0.40
     4   1     0.02  -0.27   0.40     0.02  -0.27   0.40     0.02  -0.29   0.40
     5   8     0.00   0.00   0.00     0.00   0.00   0.00     0.00   0.00   0.00
     6   6    -0.01  -0.03   0.00     0.01   0.03   0.00     0.00   0.00  -0.07
     7   1     0.02   0.27  -0.40    -0.02  -0.27   0.40    -0.02  -0.29   0.40
     8   1     0.13  -0.11   0.00    -0.13   0.11   0.00     0.00   0.00  -0.02
     9   1     0.02   0.27   0.40    -0.02  -0.27  -0.40     0.02   0.29   0.40
                     19                     20                     21
                      A                      A                      A
 Frequencies --   3022.9277              3131.4565              3132.5648
 Red. masses --      1.1062                 1.0957                 1.0963
 Frc consts  --      5.9560                 6.3302                 6.3387
 IR Inten    --      0.0000                35.0093                22.6746
  Atom  AN      X      Y      Z        X      Y      Z        X      Y      Z
     1   6     0.00   0.00   0.07    -0.04  -0.05   0.00     0.04   0.05   0.00
     2   1     0.00   0.00   0.02     0.53   0.44   0.00    -0.53  -0.44   0.00
     3   1     0.01  -0.29  -0.40    -0.01   0.05   0.09     0.01  -0.05  -0.09
     4   1    -0.01   0.29  -0.40    -0.01   0.05  -0.09     0.01  -0.05   0.09
     5   8     0.00   0.00   0.00     0.00   0.00   0.00     0.00   0.00   0.00
     6   6     0.00   0.00  -0.07    -0.04   0.05   0.00    -0.04   0.05   0.00
     7   1    -0.01  -0.29   0.40    -0.01  -0.05   0.09    -0.01  -0.05   0.09
     8   1     0.00   0.00  -0.02     0.53  -0.44   0.00     0.53  -0.44   0.00
     9   1     0.01   0.29   0.40    -0.01  -0.05  -0.09    -0.01  -0.05  -0.09

 -------------------
 - Thermochemistry -
 -------------------
 Temperature   298.150 Kelvin.  Pressure   1.00000 Atm.
 Atom     1 has atomic number  6 and mass  12.00000
 Atom     2 has atomic number  1 and mass   1.00783
 Atom     3 has atomic number  1 and mass   1.00783
 Atom     4 has atomic number  1 and mass   1.00783
 Atom     5 has atomic number  8 and mass  15.99491
 Atom     6 has atomic number  6 and mass  12.00000
 Atom     7 has atomic number  1 and mass   1.00783
 Atom     8 has atomic number  1 and mass   1.00783
 Atom     9 has atomic number  1 and mass   1.00783
 Molecular mass:    46.04186 amu.
 Principal axes and moments of inertia in atomic units:
                           1         2         3
     Eigenvalues --    46.02677 181.95949 204.88543
           X            1.00000   0.00000   0.00000
           Y            0.00000   1.00000   0.00000
           Z            0.00000   0.00000   1.00000
 This molecule is an asymmetric top.
 Rotational symmetry number  1.
 Rotational temperatures (Kelvin)      1.88182     0.47601     0.42274
 Rotational constants (GHZ):          39.21068     9.91837     8.80854
 Zero-point vibrational energy     210072.9 (Joules/Mol)
                                   50.20863 (Kcal/Mol)
 Warning -- explicit consideration of   3 degrees of freedom as
           vibrations may cause significant error
 Vibrational temperatures:    311.88   380.24   609.77  1351.94  1616.30
          (Kelvin)           1683.65  1728.75  1732.42  1830.42  2124.14
                             2160.52  2166.34  2179.08  2180.08  2204.44
                             4274.61  4292.83  4342.70  4349.32  4505.47
                             4507.06
 
 Zero-point correction=                           0.080013 (Hartree/Particle)
 Thermal correction to Energy=                    0.084296
 Thermal correction to Enthalpy=                  0.085240
 Thermal correction to Gibbs Free Energy=         0.054654
 Sum of electronic and zero-point Energies=           -154.956889
 Sum of electronic and thermal Energies=              -154.952606
 Sum of electronic and thermal Enthalpies=            -154.951661
 Sum of electronic and thermal Free Energies=         -154.982248
 
                     E (Thermal)             CV                S
                      KCal/Mol        Cal/Mol-Kelvin    Cal/Mol-Kelvin
 Total                   52.897             12.876             64.375
 Electronic               0.000              0.000              0.000
 Translational            0.889              2.981             37.406
 Rotational               0.889              2.981             22.067
 Vibrational             51.119              6.914              4.902
 Vibration     1          0.646              1.815              1.986
 Vibration     2          0.671              1.738              1.633
 Vibration     3          0.786              1.418              0.879
                       Q            Log10(Q)             Ln(Q)
 Total Bot       0.726127D-25        -25.138987        -57.884658
 Total V=0       0.461527D+12         11.664197         26.857807
 Vib (Bot)       0.398782D-36        -36.399264        -83.812404
 Vib (Bot)    1  0.913743D+00         -0.039176         -0.090205
 Vib (Bot)    2  0.733399D+00         -0.134660         -0.310065
 Vib (Bot)    3  0.413097D+00         -0.383948         -0.884073
 Vib (V=0)       0.253466D+01          0.403920          0.930061
 Vib (V=0)    1  0.154160D+01          0.187971          0.432820
 Vib (V=0)    2  0.138762D+01          0.142271          0.327592
 Vib (V=0)    3  0.114857D+01          0.060159          0.138522
 Electronic      0.100000D+01          0.000000          0.000000
 Translational   0.122796D+08          7.089183         16.323448
 Rotational      0.148284D+05          4.171094          9.604298
 ***** Axes restored to original set *****
 -------------------------------------------------------------------
 Center     Atomic                   Forces (Hartrees/Bohr)
 Number     Number              X              Y              Z
 -------------------------------------------------------------------
      1        6           0.000182097    0.000015970   -0.000000545
      2        1           0.000006022   -0.000138517    0.000001014
      3        1           0.000005661    0.000081353    0.000101270
      4        1           0.000005304    0.000080325   -0.000101710
      5        8           0.000000058   -0.000078170   -0.000001354
      6        6          -0.000182009    0.000016191    0.000001978
      7        1          -0.000005471    0.000080891   -0.000101382
      8        1          -0.000006037   -0.000138512   -0.000000632
      9        1          -0.000005626    0.000080471    0.000101360
 -------------------------------------------------------------------
 Cartesian Forces:  Max     0.000182097 RMS     0.000081361
 FormGI is forming the generalized inverse of G from B-inverse, IUseBI=4.

 GradGradGradGradGradGradGradGradGradGradGradGradGradGradGradGradGradGrad
 Berny optimization.
 Internal  Forces:  Max     0.000183580 RMS     0.000092169
 Search for a local minimum.
 Step number   1 out of a maximum of    2
 All quantities printed in internal units (Hartrees-Bohrs-Radians)
 Second derivative matrix not updated -- analytic derivatives used.
 ITU=  0
     Eigenvalues ---    0.00635   0.00653   0.08906   0.09008   0.09014
     Eigenvalues ---    0.09075   0.12975   0.14146   0.18215   0.18349
     Eigenvalues ---    0.18412   0.19402   0.24084   0.31665   0.31710
     Eigenvalues ---    0.31882   0.32687   0.34376   0.34552   0.38484
     Eigenvalues ---    0.41511
 Angle between quadratic step and forces=  22.49 degrees.
 Linear search not attempted -- first point.
 Iteration  1 RMS(Cart)=  0.00052893 RMS(Int)=  0.00000011
 Iteration  2 RMS(Cart)=  0.00000012 RMS(Int)=  0.00000001
 Variable       Old X    -DE/DX   Delta X   Delta X   Delta X     New X
                                 (Linear)    (Quad)   (Total)
    R1        2.06618  -0.00008   0.00000  -0.00025  -0.00025   2.06594
    R2        2.08453  -0.00013   0.00000  -0.00039  -0.00039   2.08414
    R3        2.08453  -0.00013   0.00000  -0.00039  -0.00039   2.08414
    R4        2.67389   0.00014   0.00000   0.00028   0.00028   2.67417
    R5        2.67389   0.00014   0.00000   0.00028   0.00028   2.67417
    R6        2.08453  -0.00013   0.00000  -0.00039  -0.00039   2.08414
    R7        2.06618  -0.00008   0.00000  -0.00025  -0.00025   2.06594
    R8        2.08453  -0.00013   0.00000  -0.00039  -0.00039   2.08414
    A1        1.90454  -0.00006   0.00000  -0.00030  -0.00030   1.90424
    A2        1.90455  -0.00006   0.00000  -0.00031  -0.00031   1.90424
    A3        1.86862   0.00017   0.00000   0.00079   0.00079   1.86941
    A4        1.89521  -0.00001   0.00000   0.00001   0.00001   1.89522
    A5        1.94511  -0.00002   0.00000  -0.00010  -0.00010   1.94501
    A6        1.94510  -0.00002   0.00000  -0.00009  -0.00009   1.94501
    A7        1.96733   0.00018   0.00000   0.00043   0.00043   1.96775
    A8        1.94511  -0.00002   0.00000  -0.00010  -0.00010   1.94501
    A9        1.86862   0.00017   0.00000   0.00079   0.00079   1.86941
   A10        1.94510  -0.00002   0.00000  -0.00009  -0.00009   1.94501
   A11        1.90454  -0.00006   0.00000  -0.00030  -0.00030   1.90424
   A12        1.89522  -0.00001   0.00000   0.00001   0.00000   1.89522
   A13        1.90455  -0.00006   0.00000  -0.00031  -0.00031   1.90424
    D1        3.14138   0.00000   0.00000   0.00021   0.00021   3.14159
    D2        1.05994  -0.00002   0.00000   0.00015   0.00015   1.06009
    D3       -1.06036   0.00002   0.00000   0.00027   0.00027  -1.06009
    D4        1.06006  -0.00002   0.00000   0.00002   0.00002   1.06009
    D5        3.14150   0.00000   0.00000   0.00009   0.00009   3.14159
    D6       -1.06023   0.00002   0.00000   0.00015   0.00015  -1.06009
         Item               Value     Threshold  Converged?
 Maximum Force            0.000184     0.000450     YES
 RMS     Force            0.000092     0.000300     YES
 Maximum Displacement     0.001106     0.001800     YES
 RMS     Displacement     0.000529     0.001200     YES
 Predicted change in Energy=-3.766924D-07
 Optimization completed.
    -- Stationary point found.
                           ----------------------------
                           !   Optimized Parameters   !
                           ! (Angstroms and Degrees)  !
 --------------------------                            --------------------------
 ! Name  Definition              Value          Derivative Info.                !
 --------------------------------------------------------------------------------
 ! R1    R(1,2)                  1.0934         -DE/DX =   -0.0001              !
 ! R2    R(1,3)                  1.1031         -DE/DX =   -0.0001              !
 ! R3    R(1,4)                  1.1031         -DE/DX =   -0.0001              !
 ! R4    R(1,5)                  1.415          -DE/DX =    0.0001              !
 ! R5    R(5,6)                  1.415          -DE/DX =    0.0001              !
 ! R6    R(6,7)                  1.1031         -DE/DX =   -0.0001              !
 ! R7    R(6,8)                  1.0934         -DE/DX =   -0.0001              !
 ! R8    R(6,9)                  1.1031         -DE/DX =   -0.0001              !
 ! A1    A(2,1,3)              109.122          -DE/DX =   -0.0001              !
 ! A2    A(2,1,4)              109.1225         -DE/DX =   -0.0001              !
 ! A3    A(2,1,5)              107.0641         -DE/DX =    0.0002              !
 ! A4    A(3,1,4)              108.5878         -DE/DX =    0.0                 !
 ! A5    A(3,1,5)              111.4465         -DE/DX =    0.0                 !
 ! A6    A(4,1,5)              111.4462         -DE/DX =    0.0                 !
 ! A7    A(1,5,6)              112.7194         -DE/DX =    0.0002              !
 ! A8    A(5,6,7)              111.4465         -DE/DX =    0.0                 !
 ! A9    A(5,6,8)              107.0641         -DE/DX =    0.0002              !
 ! A10   A(5,6,9)              111.4462         -DE/DX =    0.0                 !
 ! A11   A(7,6,8)              109.122          -DE/DX =   -0.0001              !
 ! A12   A(7,6,9)              108.5878         -DE/DX =    0.0                 !
 ! A13   A(8,6,9)              109.1226         -DE/DX =   -0.0001              !
 ! D1    D(2,1,5,6)            179.9877         -DE/DX =    0.0                 !
 ! D2    D(3,1,5,6)             60.73           -DE/DX =    0.0                 !
 ! D3    D(4,1,5,6)            -60.7541         -DE/DX =    0.0                 !
 ! D4    D(1,5,6,7)             60.7372         -DE/DX =    0.0                 !
 ! D5    D(1,5,6,8)            179.9949         -DE/DX =    0.0                 !
 ! D6    D(1,5,6,9)            -60.7469         -DE/DX =    0.0                 !
 --------------------------------------------------------------------------------
 GradGradGradGradGradGradGradGradGradGradGradGradGradGradGradGradGradGrad


 ----------------------------------------------------------------------

 Electric dipole moment (input orientation):
 (Debye = 10**-18 statcoulomb cm , SI units = C m)
                  (au)            (Debye)         (10**-30 SI)
   Tot        0.574419D+00      0.146003D+01      0.487013D+01
   x          0.000000D+00      0.000000D+00      0.000000D+00
   y         -0.574419D+00     -0.146003D+01     -0.487013D+01
   z          0.000000D+00      0.000000D+00      0.000000D+00

 Dipole polarizability, Alpha (input orientation).
 (esu units = cm**3 , SI units = C**2 m**2 J**-1)
 Alpha(0;0):
               (au)            (10**-24 esu)      (10**-40 SI)
   iso        0.299668D+02      0.444063D+01      0.494087D+01
   aniso      0.591040D+01      0.875832D+00      0.974494D+00
   xx         0.339037D+02      0.502401D+01      0.558996D+01
   yx         0.000000D+00      0.000000D+00      0.000000D+00
   yy         0.281411D+02      0.417009D+01      0.463985D+01
   zx         0.239276D-03      0.354571D-04      0.394513D-04
   zy        -0.508209D-04     -0.753088D-05     -0.837923D-05
   zz         0.278557D+02      0.412779D+01      0.459279D+01

 ----------------------------------------------------------------------

 Dipole orientation:
     6          2.22609562          0.00000585          0.37002077
     1          3.82509067         -0.00043311         -0.93853957
     1          2.33512130         -1.69246445          1.58201851
     1          2.33550429          1.69290620          1.58138128
     8         -0.00000041         -0.00001251         -1.11124967
     6         -2.22609535          0.00000373          0.37002243
     1         -2.33523728          1.69262071          1.58180443
     1         -3.82509138          0.00016501         -0.93853672
     1         -2.33538406         -1.69274995          1.58159696

 Electric dipole moment (dipole orientation):
 (Debye = 10**-18 statcoulomb cm , SI units = C m)
                  (au)            (Debye)         (10**-30 SI)
   Tot        0.574419D+00      0.146003D+01      0.487013D+01
   x          0.000000D+00      0.000000D+00      0.000000D+00
   y          0.000000D+00      0.000000D+00      0.000000D+00
   z          0.574419D+00      0.146003D+01      0.487013D+01

 Dipole polarizability, Alpha (dipole orientation).
 (esu units = cm**3 , SI units = C**2 m**2 J**-1)
 Alpha(0;0):
               (au)            (10**-24 esu)      (10**-40 SI)
   iso        0.299668D+02      0.444063D+01      0.494087D+01
   aniso      0.591040D+01      0.875832D+00      0.974494D+00
   xx         0.339037D+02      0.502401D+01      0.558996D+01
   yx         0.237019D-03      0.351225D-04      0.390791D-04
   yy         0.278557D+02      0.412779D+01      0.459279D+01
   zx         0.000000D+00      0.000000D+00      0.000000D+00
   zy         0.545181D-04      0.807875D-05      0.898882D-05
   zz         0.281411D+02      0.417009D+01      0.463985D+01

 ----------------------------------------------------------------------
 1\1\GINC-IP-172-31-1-231\Freq\RB3LYP\6-31+G(d)\C2H6O1\UBUNTU\15-Sep-20
 23\0\\#N Geom=AllCheck Guess=TCheck SCRF=Check GenChk RB3LYP/6-31+G(d)
  Freq\\Title Card Required\\0,1\C,1.177999,-0.195807,0.000001\H,2.0241
 51,0.496653,-0.000222\H,1.235693,-0.837157,-0.895624\H,1.235895,-0.836
 843,0.895837\O,0.,0.588048,0.000001\C,-1.177999,-0.195807,-0.000001\H,
 -1.235755,-0.837066,0.895685\H,-2.024151,0.496653,0.000093\H,-1.235832
 ,-0.836933,-0.895776\\Version=EM64L-G16RevB.01\State=1-A\HF=-155.03690
 17\RMSD=7.964e-10\RMSF=8.136e-05\ZeroPoint=0.0800125\Thermal=0.0842961
 \Dipole=-0.0000002,-0.5744189,-0.0000074\DipoleDeriv=0.7075702,-0.2109
 507,0.0000382,-0.3288465,0.4428637,-0.000009,0.0000133,-0.000006,0.450
 1357,-0.1076745,-0.0567958,0.0000225,-0.1071521,-0.0193913,0.0000326,0
 .0000374,0.0000307,0.0789265,-0.0107841,-0.0046563,-0.0355528,0.097992
 ,-0.050929,-0.1074316,0.0451891,-0.1338516,-0.1404868,-0.0108051,-0.00
 46176,0.0355124,0.0980035,-0.0508537,0.1073983,-0.0452476,0.1338268,-0
 .1405612,-1.1566132,0.0000003,-0.0000309,0.0000001,-0.6433791,0.000004
 8,0.0000109,-0.0000103,-0.4960287,0.70757,0.2109502,0.0000147,0.328846
 2,0.4428632,0.0000044,0.0000008,0.0000082,0.4501353,-0.0107895,0.00464
 18,-0.0355396,-0.0979968,-0.0509085,0.1074213,0.0452087,0.1338462,-0.1
 405102,-0.1076745,0.0567958,0.0000097,0.1071521,-0.0193913,-0.0000128,
 0.0000153,-0.000012,0.0789266,-0.0107994,0.0046324,0.0355259,-0.097998
 5,-0.0508738,-0.1074081,-0.045228,-0.133832,-0.1405373\Polar=33.903672
 5,-0.0000047,28.1411372,0.0002393,-0.0000508,27.8557385\Quadrupole=1.8
 580614,-1.3778487,-0.4802127,-0.0000003,-0.0000764,-0.0000054\PG=C01 [
 X(C2H6O1)]\NImag=0\\0.52829600,0.07832494,0.55379391,-0.00000487,-0.00
 000659,0.55423853,-0.19705640,-0.12944598,0.00004073,0.22910966,-0.141
 88054,-0.17092038,0.00003721,0.14031222,0.17666147,0.00004288,0.000036
 38,-0.05236482,-0.00004546,-0.00003967,0.04787125,-0.05227353,-0.00400
 538,-0.00104448,0.00294000,-0.01262339,-0.02079847,0.05804990,-0.00168
 323,-0.12535093,-0.10877838,-0.00013144,-0.01015930,-0.01787940,-0.010
 67080,0.14013316,0.00053420,-0.11020823,-0.21843891,-0.00065425,0.0012
 7107,0.00140115,-0.00582379,0.12591874,0.23145486,-0.05227259,-0.00398
 091,0.00100748,0.00294458,-0.01261644,0.02080262,0.00208692,-0.0012451
 0,-0.00098575,0.05805189,-0.00166175,-0.12527271,0.10874759,-0.0001277
 4,-0.01015352,0.01788390,-0.00124824,0.01196802,-0.01510897,-0.0106971
 6,0.14004459,-0.00057082,0.11017725,-0.21851759,0.00065384,-0.00126393
 ,0.00139008,0.00098063,0.01509692,-0.02242665,0.00586691,-0.12588487,0
 .23154192,-0.18303903,0.09098014,-0.00000215,-0.03404576,0.02208769,-0
 .00000037,-0.01509363,0.01525769,0.00669630,-0.01510082,0.01526136,-0.
 00669723,0.49455853,0.04682568,-0.13952399,-0.00000020,-0.01491878,0.0
 1488063,-0.00000090,0.02563782,-0.01749014,-0.00267890,0.02563027,-0.0
 1748438,0.00268092,0.00000009,0.31923582,-0.00000357,0.00000252,-0.063
 35922,0.00000363,-0.00000427,0.00037218,0.02505991,-0.01607602,0.00729
 832,-0.02506531,0.01607907,0.00730155,0.00000722,-0.00000012,0.0967743
 4,-0.05001575,-0.01655328,0.00000277,-0.00253240,0.00326005,-0.0000010
 2,0.00444695,-0.00339139,-0.00138306,0.00444675,-0.00339027,0.00138297
 ,-0.18303903,-0.04682571,-0.00000173,0.52829585,0.01655328,0.00951154,
 0.00000066,0.00551000,-0.00118146,-0.00000023,0.00490472,-0.00052757,0
 .00006709,0.00490481,-0.00052841,-0.00006694,-0.09098020,-0.13952403,-
 0.00000166,-0.07832501,0.55379420,0.00000198,-0.00000125,-0.00459180,0
 .00000147,-0.00000058,0.00024136,0.00370347,0.00123391,0.00139666,-0.0
 0370332,-0.00123301,0.00139579,-0.00000297,0.00000035,-0.06335922,-0.0
 0000336,0.00000426,0.55423957,0.00444699,-0.00490390,0.00370323,0.0000
 9105,0.00026389,-0.00035087,-0.00055265,0.00043618,-0.00017516,0.00030
 485,0.00129452,-0.00155129,-0.01509523,-0.02563616,0.02506178,-0.05227
 353,0.00399785,-0.00103321,0.05805023,0.00339079,-0.00052795,-0.001233
 64,-0.00013280,0.00012233,-0.00025713,-0.00043626,0.00028672,0.0001076
 2,-0.00129525,0.00101754,-0.00033468,-0.01525850,-0.01748805,0.0160769
 4,0.00167667,-0.12532858,0.10876936,0.01067887,0.14010769,-0.00138276,
 -0.00006698,0.00139673,0.00024044,-0.00029701,0.00028577,-0.00017529,-
 0.00010771,-0.00070464,0.00155117,-0.00033443,-0.00026675,0.00669654,0
 .00267930,0.00729937,0.00054522,0.11019909,-0.21846143,-0.00583701,-0.
 12590886,0.23147974,-0.00253240,-0.00550999,0.00000085,-0.00154195,0.0
 0093282,-0.00000011,0.00009123,0.00013270,0.00024040,0.00009105,0.0001
 3275,-0.00024045,-0.03404576,0.01491878,0.00000155,-0.19705642,0.12944
 601,0.00001708,0.00294138,0.00013037,-0.00065415,0.22910968,-0.0032600
 5,-0.00118146,0.00000008,-0.00093283,0.00062794,0.,-0.00026380,0.00012
 237,0.00029714,-0.00026379,0.00012224,-0.00029695,-0.02208768,0.014880
 64,0.00000173,0.14188056,-0.17092040,-0.00001581,0.01262151,-0.0101577
 4,-0.00126889,-0.14031225,0.17666148,-0.00000031,-0.00000016,0.0002413
 6,-0.00000001,0.00000009,0.00051700,-0.00035075,0.00025724,0.00028580,
 0.00035090,-0.00025693,0.00028599,-0.00000036,0.00000008,0.00037218,0.
 00001793,-0.00001527,-0.05236484,-0.02079970,0.01788083,0.00139783,-0.
 00001912,0.00001660,0.04787125,0.00444671,-0.00490563,-0.00370357,0.00
 009123,0.00026369,0.00035079,0.00030480,0.00129539,0.00155112,-0.00055
 263,0.00043652,0.00017543,-0.01509927,-0.02563199,-0.02506348,-0.05227
 241,0.00398854,0.00101885,0.00208691,0.00124610,-0.00098416,0.00294320
 ,0.01261833,0.02080141,0.05805146,0.00339087,-0.00052802,0.00123328,-0
 .00013265,0.00012228,0.00025704,-0.00129467,0.00101767,0.00033445,-0.0
 0043644,0.00028663,-0.00010773,-0.01526058,-0.01748651,-0.01607821,0.0
 0166838,-0.12529530,-0.10875723,0.00124724,0.01196804,0.01510548,0.000
 12881,-0.01015508,-0.01788248,0.01068904,0.14007029,0.00138327,0.00006
 706,0.00139573,-0.00024040,0.00029708,0.00028603,-0.00155124,0.0003347
 0,-0.00026660,0.00017530,0.00010764,-0.00070435,-0.00669698,-0.0026805
 3,0.00730050,-0.00055973,-0.11018701,-0.21849610,0.00098222,-0.0151004
 3,-0.02242662,0.00065394,0.00126611,0.00139342,0.00585361,0.12589539,0
 .23151798\\-0.00018210,-0.00001597,0.00000054,-0.00000602,0.00013852,-
 0.00000101,-0.00000566,-0.00008135,-0.00010127,-0.00000530,-0.00008032
 ,0.00010171,-0.00000006,0.00007817,0.00000135,0.00018201,-0.00001619,-
 0.00000198,0.00000547,-0.00008089,0.00010138,0.00000604,0.00013851,0.0
 0000063,0.00000563,-0.00008047,-0.00010136\\\@


 MICRO CREDO - NEVER TRUST A COMPUTER BIGGER
               BIGGER THAN YOU CAN LIFT.
 Job cpu time:       0 days  0 hours  4 minutes 11.4 seconds.
 Elapsed time:       0 days  0 hours  0 minutes  7.9 seconds.
 File lengths (MBytes):  RWF=      8 Int=      0 D2E=      0 Chk=      2 Scr=      1
 Normal termination of Gaussian 16 at Fri Sep 15 07:34:27 2023.
