 Entering Gaussian System, Link 0=/home/ubuntu/g16/g16
 Input=/home/ubuntu/Downloads/MOLECULE_1 (1)-vol.gjf
 Output=/home/ubuntu/Downloads/MOLECULE_1 (1)-vol.log
 Initial command:
 /home/ubuntu/g16/l1.exe "/home/ubuntu/Scratch/Gau-5452.inp" -scrdir="/home/ubuntu/Scratch/"
 Entering Link 1 = /home/ubuntu/g16/l1.exe PID=      5456.
  
 Copyright (c) 1988-2017, Gaussian, Inc.  All Rights Reserved.
  
 This is part of the Gaussian(R) 16 program.  It is based on
 the Gaussian(R) 09 system (copyright 2009, Gaussian, Inc.),
 the Gaussian(R) 03 system (copyright 2003, Gaussian, Inc.),
 the Gaussian(R) 98 system (copyright 1998, Gaussian, Inc.),
 the Gaussian(R) 94 system (copyright 1995, Gaussian, Inc.),
 the Gaussian 92(TM) system (copyright 1992, Gaussian, Inc.),
 the Gaussian 90(TM) system (copyright 1990, Gaussian, Inc.),
 the Gaussian 88(TM) system (copyright 1988, Gaussian, Inc.),
 the Gaussian 86(TM) system (copyright 1986, Carnegie Mellon
 University), and the Gaussian 82(TM) system (copyright 1983,
 Carnegie Mellon University). Gaussian is a federally registered
 trademark of Gaussian, Inc.
  
 This software contains proprietary and confidential information,
 including trade secrets, belonging to Gaussian, Inc.
  
 This software is provided under written license and may be
 used, copied, transmitted, or stored only in accord with that
 written license.
  
 The following legend is applicable only to US Government
 contracts under FAR:
  
                    RESTRICTED RIGHTS LEGEND
  
 Use, reproduction and disclosure by the US Government is
 subject to restrictions as set forth in subparagraphs (a)
 and (c) of the Commercial Computer Software - Restricted
 Rights clause in FAR 52.227-19.
  
 Gaussian, Inc.
 340 Quinnipiac St., Bldg. 40, Wallingford CT 06492
  
  
 ---------------------------------------------------------------
 Warning -- This program may not be used in any manner that
 competes with the business of Gaussian, Inc. or will provide
 assistance to any competitor of Gaussian, Inc.  The licensee
 of this program is prohibited from giving any competitor of
 Gaussian, Inc. access to this program.  By using this program,
 the user acknowledges that Gaussian, Inc. is engaged in the
 business of creating and licensing software in the field of
 computational chemistry and represents and warrants to the
 licensee that it is not a competitor of Gaussian, Inc. and that
 it will not use this program in any manner prohibited above.
 ---------------------------------------------------------------
  

 Cite this work as:
 Gaussian 16, Revision B.01,
 M. J. Frisch, G. W. Trucks, H. B. Schlegel, G. E. Scuseria, 
 M. A. Robb, J. R. Cheeseman, G. Scalmani, V. Barone, 
 G. A. Petersson, H. Nakatsuji, X. Li, M. Caricato, A. V. Marenich, 
 J. Bloino, B. G. Janesko, R. Gomperts, B. Mennucci, H. P. Hratchian, 
 J. V. Ortiz, A. F. Izmaylov, J. L. Sonnenberg, D. Williams-Young, 
 F. Ding, F. Lipparini, F. Egidi, J. Goings, B. Peng, A. Petrone, 
 T. Henderson, D. Ranasinghe, V. G. Zakrzewski, J. Gao, N. Rega, 
 G. Zheng, W. Liang, M. Hada, M. Ehara, K. Toyota, R. Fukuda, 
 J. Hasegawa, M. Ishida, T. Nakajima, Y. Honda, O. Kitao, H. Nakai, 
 T. Vreven, K. Throssell, J. A. Montgomery, Jr., J. E. Peralta, 
 F. Ogliaro, M. J. Bearpark, J. J. Heyd, E. N. Brothers, K. N. Kudin, 
 V. N. Staroverov, T. A. Keith, R. Kobayashi, J. Normand, 
 K. Raghavachari, A. P. Rendell, J. C. Burant, S. S. Iyengar, 
 J. Tomasi, M. Cossi, J. M. Millam, M. Klene, C. Adamo, R. Cammi, 
 J. W. Ochterski, R. L. Martin, K. Morokuma, O. Farkas, 
 J. B. Foresman, and D. J. Fox, Gaussian, Inc., Wallingford CT, 2016.
 
 ******************************************
 Gaussian 16:  EM64L-G16RevB.01 20-Dec-2017
                15-Sep-2023 
 ******************************************
 %nprocshared=32
 Will use up to   32 processors via shared memory.
 %mem=62GB
 %chk=MOLECULE_1 (1)-vol.chk
 ----------------------------------------------------------------------
 # opt freq b3lyp/6-31+g(d) empiricaldispersion=gd3 scf=maxcycle=1000 v
 olume
 ----------------------------------------------------------------------
 1/18=20,19=15,26=3,38=1/1,3;
 2/9=110,12=2,17=6,18=5,40=1/2;
 3/5=1,6=6,7=11,11=2,25=1,30=1,71=1,74=-5,124=31/1,2,3;
 4//1;
 5/5=2,7=1000,38=5/2;
 6/7=2,8=2,9=2,10=2,28=1,44=1/1,4;
 7//1,2,3,16;
 1/18=20,19=15,26=3/3(2);
 2/9=110/2;
 99//99;
 2/9=110/2;
 3/5=1,6=6,7=11,11=2,25=1,30=1,71=1,74=-5,124=31/1,2,3;
 4/5=5,16=3,69=1/1;
 5/5=2,7=1000,38=5/2;
 7//1,2,3,16;
 1/18=20,19=15,26=3/3(-5);
 2/9=110/2;
 6/7=2,8=2,9=2,10=2,19=2,28=1,44=1/1,4;
 99/9=1/99;
 -------------------
 Title Card Required
 -------------------
 Symbolic Z-matrix:
 Charge =  0 Multiplicity = 1
 C                    -1.15892   0.65222  -0.35268 
 C                    -1.13094  -0.69551   0.35537 
 C                     1.15889  -0.65235  -0.35257 
 C                     1.13089   0.69564   0.35526 
 H                    -2.05257   1.21769  -0.06631 
 H                    -2.00471  -1.29397   0.07506 
 H                     2.05259  -1.2175   -0.06583 
 H                     2.00473   1.29381   0.07465 
 O                     0.02705  -1.4578   -0.0035 
 O                    -0.02707   1.4578   -0.00348 
 H                     1.15359   0.54446   1.44562 
 H                     1.18327  -0.49983  -1.44264 
 H                    -1.1533   -0.54405   1.44565 
 H                    -1.1829    0.49936  -1.44266 
 

 GradGradGradGradGradGradGradGradGradGradGradGradGradGradGradGradGradGrad
 Berny optimization.
 Initialization pass.
                           ----------------------------
                           !    Initial Parameters    !
                           ! (Angstroms and Degrees)  !
 --------------------------                            --------------------------
 ! Name  Definition              Value          Derivative Info.                !
 --------------------------------------------------------------------------------
 ! R1    R(1,2)                  1.5227         estimate D2E/DX2                !
 ! R2    R(1,5)                  1.0956         estimate D2E/DX2                !
 ! R3    R(1,10)                 1.4325         estimate D2E/DX2                !
 ! R4    R(1,14)                 1.1009         estimate D2E/DX2                !
 ! R5    R(2,6)                  1.0955         estimate D2E/DX2                !
 ! R6    R(2,9)                  1.4321         estimate D2E/DX2                !
 ! R7    R(2,13)                 1.101          estimate D2E/DX2                !
 ! R8    R(3,4)                  1.5228         estimate D2E/DX2                !
 ! R9    R(3,7)                  1.0956         estimate D2E/DX2                !
 ! R10   R(3,9)                  1.4324         estimate D2E/DX2                !
 ! R11   R(3,12)                 1.101          estimate D2E/DX2                !
 ! R12   R(4,8)                  1.0955         estimate D2E/DX2                !
 ! R13   R(4,10)                 1.4319         estimate D2E/DX2                !
 ! R14   R(4,11)                 1.101          estimate D2E/DX2                !
 ! A1    A(2,1,5)              110.5035         estimate D2E/DX2                !
 ! A2    A(2,1,10)             111.7082         estimate D2E/DX2                !
 ! A3    A(2,1,14)             109.7488         estimate D2E/DX2                !
 ! A4    A(5,1,10)             106.8885         estimate D2E/DX2                !
 ! A5    A(5,1,14)             108.2215         estimate D2E/DX2                !
 ! A6    A(10,1,14)            109.6731         estimate D2E/DX2                !
 ! A7    A(1,2,6)              110.4794         estimate D2E/DX2                !
 ! A8    A(1,2,9)              111.683          estimate D2E/DX2                !
 ! A9    A(1,2,13)             109.7768         estimate D2E/DX2                !
 ! A10   A(6,2,9)              106.8596         estimate D2E/DX2                !
 ! A11   A(6,2,13)             108.2005         estimate D2E/DX2                !
 ! A12   A(9,2,13)             109.7434         estimate D2E/DX2                !
 ! A13   A(4,3,7)              110.4852         estimate D2E/DX2                !
 ! A14   A(4,3,9)              111.7136         estimate D2E/DX2                !
 ! A15   A(4,3,12)             109.7553         estimate D2E/DX2                !
 ! A16   A(7,3,9)              106.9015         estimate D2E/DX2                !
 ! A17   A(7,3,12)             108.2122         estimate D2E/DX2                !
 ! A18   A(9,3,12)             109.6756         estimate D2E/DX2                !
 ! A19   A(3,4,8)              110.4641         estimate D2E/DX2                !
 ! A20   A(3,4,10)             111.6896         estimate D2E/DX2                !
 ! A21   A(3,4,11)             109.7794         estimate D2E/DX2                !
 ! A22   A(8,4,10)             106.8726         estimate D2E/DX2                !
 ! A23   A(8,4,11)             108.1912         estimate D2E/DX2                !
 ! A24   A(10,4,11)            109.7456         estimate D2E/DX2                !
 ! A25   A(2,9,3)              113.6226         estimate D2E/DX2                !
 ! A26   A(1,10,4)             113.622          estimate D2E/DX2                !
 ! D1    D(5,1,2,6)             61.0841         estimate D2E/DX2                !
 ! D2    D(5,1,2,9)            179.8783         estimate D2E/DX2                !
 ! D3    D(5,1,2,13)           -58.1647         estimate D2E/DX2                !
 ! D4    D(10,1,2,6)           179.9468         estimate D2E/DX2                !
 ! D5    D(10,1,2,9)           -61.259          estimate D2E/DX2                !
 ! D6    D(10,1,2,13)           60.698          estimate D2E/DX2                !
 ! D7    D(14,1,2,6)           -58.188          estimate D2E/DX2                !
 ! D8    D(14,1,2,9)            60.6062         estimate D2E/DX2                !
 ! D9    D(14,1,2,13)         -177.4368         estimate D2E/DX2                !
 ! D10   D(2,1,10,4)            28.1312         estimate D2E/DX2                !
 ! D11   D(5,1,10,4)           149.1196         estimate D2E/DX2                !
 ! D12   D(14,1,10,4)          -93.7777         estimate D2E/DX2                !
 ! D13   D(1,2,9,3)             29.0075         estimate D2E/DX2                !
 ! D14   D(6,2,9,3)            149.9327         estimate D2E/DX2                !
 ! D15   D(13,2,9,3)           -92.9687         estimate D2E/DX2                !
 ! D16   D(7,3,4,8)             61.0871         estimate D2E/DX2                !
 ! D17   D(7,3,4,10)           179.8917         estimate D2E/DX2                !
 ! D18   D(7,3,4,11)           -58.1424         estimate D2E/DX2                !
 ! D19   D(9,3,4,8)            179.9573         estimate D2E/DX2                !
 ! D20   D(9,3,4,10)           -61.2382         estimate D2E/DX2                !
 ! D21   D(9,3,4,11)            60.7278         estimate D2E/DX2                !
 ! D22   D(12,3,4,8)           -58.1662         estimate D2E/DX2                !
 ! D23   D(12,3,4,10)           60.6384         estimate D2E/DX2                !
 ! D24   D(12,3,4,11)         -177.3956         estimate D2E/DX2                !
 ! D25   D(4,3,9,2)             28.1097         estimate D2E/DX2                !
 ! D26   D(7,3,9,2)            149.087          estimate D2E/DX2                !
 ! D27   D(12,3,9,2)           -93.8128         estimate D2E/DX2                !
 ! D28   D(3,4,10,1)            28.9866         estimate D2E/DX2                !
 ! D29   D(8,4,10,1)           149.9051         estimate D2E/DX2                !
 ! D30   D(11,4,10,1)          -92.9989         estimate D2E/DX2                !
 --------------------------------------------------------------------------------
 Trust Radius=3.00D-01 FncErr=1.00D-07 GrdErr=1.00D-06 EigMax=2.50D+02 EigMin=1.00D-04
 Number of steps in this run=     80 maximum allowed number of steps=    100.
 GradGradGradGradGradGradGradGradGradGradGradGradGradGradGradGradGradGrad

                          Input orientation:                          
 ---------------------------------------------------------------------
 Center     Atomic      Atomic             Coordinates (Angstroms)
 Number     Number       Type             X           Y           Z
 ---------------------------------------------------------------------
      1          6           0       -1.158922    0.652220   -0.352684
      2          6           0       -1.130943   -0.695509    0.355374
      3          6           0        1.158885   -0.652350   -0.352573
      4          6           0        1.130893    0.695637    0.355256
      5          1           0       -2.052571    1.217689   -0.066308
      6          1           0       -2.004708   -1.293966    0.075056
      7          1           0        2.052591   -1.217503   -0.065825
      8          1           0        2.004734    1.293809    0.074651
      9          8           0        0.027048   -1.457795   -0.003498
     10          8           0       -0.027071    1.457801   -0.003475
     11          1           0        1.153588    0.544460    1.445622
     12          1           0        1.183265   -0.499831   -1.442638
     13          1           0       -1.153298   -0.544049    1.445652
     14          1           0       -1.182896    0.499357   -1.442660
 ---------------------------------------------------------------------
                    Distance matrix (angstroms):
                    1          2          3          4          5
     1  C    0.000000
     2  C    1.522663   0.000000
     3  C    2.659724   2.397157   0.000000
     4  C    2.397148   2.655408   1.522785   0.000000
     5  H    1.095616   2.165073   3.727257   3.253413   0.000000
     6  H    2.164707   1.095534   3.256203   3.724114   2.516085
     7  H    3.727193   3.253425   1.095597   2.164934   4.773103
     8  H    3.256220   3.724065   2.164605   1.095512   4.060466
     9  O    2.445530   1.432066   1.432358   2.446313   3.389244
    10  O    1.432478   2.446232   2.445628   1.431944   2.040650
    11  H    2.931419   2.818731   2.160067   1.101030   3.608133
    12  H    2.828615   2.937124   1.100953   2.159701   3.913412
    13  H    2.159885   1.100975   2.931132   2.818388   2.489666
    14  H    1.100904   2.159475   2.828190   2.936775   1.779517
                    6          7          8          9         10
     6  H    0.000000
     7  H    4.060464   0.000000
     8  H    4.772023   2.515693   0.000000
     9  O    2.039864   2.040698   3.389495   0.000000
    10  O    3.389607   3.389120   2.039909   2.916098   0.000000
    11  H    3.902960   2.489416   1.779195   2.716260   2.080392
    12  H    3.619008   1.779437   2.488799   2.079821   2.714485
    13  H    1.779272   3.607745   3.902631   2.080429   2.715835
    14  H    2.488944   3.913012   3.618615   2.713963   2.079856
                   11         12         13         14
    11  H    0.000000
    12  H    3.071395   0.000000
    13  H    2.550799   3.715333   0.000000
    14  H    3.715288   2.568481   3.071143   0.000000
 Stoichiometry    C4H8O2
 Framework group  C1[X(C4H8O2)]
 Deg. of freedom    36
 Full point group                 C1      NOp   1
 Largest Abelian subgroup         C1      NOp   1
 Largest concise Abelian subgroup C1      NOp   1
                         Standard orientation:                         
 ---------------------------------------------------------------------
 Center     Atomic      Atomic             Coordinates (Angstroms)
 Number     Number       Type             X           Y           Z
 ---------------------------------------------------------------------
      1          6           0       -1.158920    0.652223   -0.352684
      2          6           0       -1.130945   -0.695506    0.355374
      3          6           0        1.158883   -0.652353   -0.352573
      4          6           0        1.130895    0.695634    0.355256
      5          1           0       -2.052568    1.217694   -0.066308
      6          1           0       -2.004711   -1.293961    0.075056
      7          1           0        2.052588   -1.217508   -0.065825
      8          1           0        2.004737    1.293804    0.074651
      9          8           0        0.027045   -1.457795   -0.003498
     10          8           0       -0.027067    1.457801   -0.003475
     11          1           0        1.153589    0.544457    1.445622
     12          1           0        1.183264   -0.499834   -1.442638
     13          1           0       -1.153299   -0.544046    1.445652
     14          1           0       -1.182895    0.499360   -1.442660
 ---------------------------------------------------------------------
 Rotational constants (GHZ):           5.0799676           4.5237088           2.7719639
 Standard basis: 6-31+G(d) (6D, 7F)
 There are   130 symmetry adapted cartesian basis functions of A   symmetry.
 There are   130 symmetry adapted basis functions of A   symmetry.
   130 basis functions,   224 primitive gaussians,   130 cartesian basis functions
    24 alpha electrons       24 beta electrons
       nuclear repulsion energy       263.1452745429 Hartrees.
 NAtoms=   14 NActive=   14 NUniq=   14 SFac= 1.00D+00 NAtFMM=   60 NAOKFM=F Big=F
 Integral buffers will be    131072 words long.
 Raffenetti 2 integral format.
 Two-electron integral symmetry is turned on.
 Nuclear repulsion after empirical dispersion term =      263.1356110020 Hartrees.
 One-electron integrals computed using PRISM.
 NBasis=   130 RedAO= T EigKep=  9.98D-05  NBF=   130
 NBsUse=   130 1.00D-06 EigRej= -1.00D+00 NBFU=   130
 ExpMin= 4.38D-02 ExpMax= 5.48D+03 ExpMxC= 8.25D+02 IAcc=3 IRadAn=         5 AccDes= 0.00D+00
 Harris functional with IExCor=  402 and IRadAn=       5 diagonalized for initial guess.
 HarFok:  IExCor=  402 AccDes= 0.00D+00 IRadAn=         5 IDoV= 1 UseB2=F ITyADJ=14
 ICtDFT=  3500011 ScaDFX=  1.000000  1.000000  1.000000  1.000000
 FoFCou: FMM=F IPFlag=           0 FMFlag=      100000 FMFlg1=           0
         NFxFlg=           0 DoJE=T BraDBF=F KetDBF=T FulRan=T
         wScrn=  0.000000 ICntrl=       500 IOpCl=  0 I1Cent=   200000004 NGrid=           0
         NMat0=    1 NMatS0=      1 NMatT0=    0 NMatD0=    1 NMtDS0=    0 NMtDT0=    0
 Petite list used in FoFCou.
 Requested convergence on RMS density matrix=1.00D-08 within1000 cycles.
 Requested convergence on MAX density matrix=1.00D-06.
 Requested convergence on             energy=1.00D-06.
 No special actions if energy rises.
 SCF Done:  E(RB3LYP) =  -307.671125450     A.U. after   10 cycles
            NFock= 10  Conv=0.46D-08     -V/T= 2.0093

 **********************************************************************

            Population analysis using the SCF Density.

 **********************************************************************

 Orbital symmetries:
       Occupied  (A) (A) (A) (A) (A) (A) (A) (A) (A) (A) (A) (A)
                 (A) (A) (A) (A) (A) (A) (A) (A) (A) (A) (A) (A)
       Virtual   (A) (A) (A) (A) (A) (A) (A) (A) (A) (A) (A) (A)
                 (A) (A) (A) (A) (A) (A) (A) (A) (A) (A) (A) (A)
                 (A) (A) (A) (A) (A) (A) (A) (A) (A) (A) (A) (A)
                 (A) (A) (A) (A) (A) (A) (A) (A) (A) (A) (A) (A)
                 (A) (A) (A) (A) (A) (A) (A) (A) (A) (A) (A) (A)
                 (A) (A) (A) (A) (A) (A) (A) (A) (A) (A) (A) (A)
                 (A) (A) (A) (A) (A) (A) (A) (A) (A) (A) (A) (A)
                 (A) (A) (A) (A) (A) (A) (A) (A) (A) (A) (A) (A)
                 (A) (A) (A) (A) (A) (A) (A) (A) (A) (A)
 The electronic state is 1-A.
 Alpha  occ. eigenvalues --  -19.16098 -19.16097 -10.24304 -10.24303 -10.24279
 Alpha  occ. eigenvalues --  -10.24278  -1.05644  -1.01994  -0.78653  -0.70775
 Alpha  occ. eigenvalues --   -0.68036  -0.55978  -0.52523  -0.51402  -0.49787
 Alpha  occ. eigenvalues --   -0.43769  -0.42959  -0.40505  -0.40495  -0.39209
 Alpha  occ. eigenvalues --   -0.37834  -0.29412  -0.27051  -0.25620
 Alpha virt. eigenvalues --    0.00641   0.02133   0.02237   0.03373   0.03882
 Alpha virt. eigenvalues --    0.05770   0.06009   0.06157   0.07673   0.08853
 Alpha virt. eigenvalues --    0.09227   0.09990   0.10384   0.13374   0.13381
 Alpha virt. eigenvalues --    0.14565   0.15267   0.19209   0.19767   0.20400
 Alpha virt. eigenvalues --    0.21686   0.23335   0.24613   0.24736   0.25843
 Alpha virt. eigenvalues --    0.26853   0.27012   0.28570   0.29726   0.29908
 Alpha virt. eigenvalues --    0.32258   0.32426   0.33348   0.34313   0.35472
 Alpha virt. eigenvalues --    0.38817   0.39421   0.39576   0.58827   0.65489
 Alpha virt. eigenvalues --    0.65515   0.66442   0.66829   0.67567   0.69973
 Alpha virt. eigenvalues --    0.72500   0.75949   0.82674   0.88235   0.90729
 Alpha virt. eigenvalues --    0.93987   0.95404   0.98106   1.01119   1.04440
 Alpha virt. eigenvalues --    1.07468   1.08674   1.13330   1.13545   1.19746
 Alpha virt. eigenvalues --    1.23160   1.23704   1.33577   1.34943   1.42902
 Alpha virt. eigenvalues --    1.43299   1.44258   1.45457   1.50675   1.56937
 Alpha virt. eigenvalues --    1.58073   1.62285   1.64502   1.69301   1.78689
 Alpha virt. eigenvalues --    1.87090   1.89771   1.91545   1.96699   2.02796
 Alpha virt. eigenvalues --    2.04181   2.05076   2.07881   2.08155   2.25001
 Alpha virt. eigenvalues --    2.27328   2.27511   2.32265   2.34684   2.40384
 Alpha virt. eigenvalues --    2.42771   2.46988   2.55220   2.60895   2.64000
 Alpha virt. eigenvalues --    2.77340   2.82860   2.88478   2.93763   2.95375
 Alpha virt. eigenvalues --    4.20501   4.26879   4.28878   4.39373   4.47655
 Alpha virt. eigenvalues --    4.67622
          Condensed to atoms (all electrons):
               1          2          3          4          5          6
     1  C    5.393258   0.117587  -0.042291  -0.082705   0.399158  -0.044324
     2  C    0.117587   5.391555  -0.082705  -0.040993  -0.044617   0.399173
     3  C   -0.042291  -0.082705   5.393266   0.117648  -0.002766   0.010120
     4  C   -0.082705  -0.040993   0.117648   5.391579   0.009689  -0.003088
     5  H    0.399158  -0.044617  -0.002766   0.009689   0.548729   0.000287
     6  H   -0.044324   0.399173   0.010120  -0.003088   0.000287   0.547876
     7  H   -0.002761   0.009699   0.399112  -0.044618   0.000033  -0.000195
     8  H    0.010129  -0.003084  -0.044323   0.399130  -0.000195   0.000033
     9  O   -0.047008   0.168243   0.168012  -0.047298   0.006947  -0.063944
    10  O    0.167999  -0.047272  -0.047028   0.168241  -0.064064   0.006918
    11  H   -0.010524  -0.009114  -0.071805   0.432583   0.000408  -0.000049
    12  H   -0.009331  -0.010090   0.431981  -0.070876  -0.000052   0.000382
    13  H   -0.071813   0.432544  -0.010519  -0.009109  -0.002734  -0.044413
    14  H    0.431942  -0.070888  -0.009323  -0.010088  -0.044567  -0.002771
               7          8          9         10         11         12
     1  C   -0.002761   0.010129  -0.047008   0.167999  -0.010524  -0.009331
     2  C    0.009699  -0.003084   0.168243  -0.047272  -0.009114  -0.010090
     3  C    0.399112  -0.044323   0.168012  -0.047028  -0.071805   0.431981
     4  C   -0.044618   0.399130  -0.047298   0.168241   0.432583  -0.070876
     5  H    0.000033  -0.000195   0.006947  -0.064064   0.000408  -0.000052
     6  H   -0.000195   0.000033  -0.063944   0.006918  -0.000049   0.000382
     7  H    0.548803   0.000290  -0.064056   0.006948  -0.002739  -0.044592
     8  H    0.000290   0.547942   0.006919  -0.063935  -0.044437  -0.002775
     9  O   -0.064056   0.006919   8.355553  -0.021659   0.004134  -0.057651
    10  O    0.006948  -0.063935  -0.021659   8.355559  -0.057538   0.004092
    11  H   -0.002739  -0.044437   0.004134  -0.057538   0.564597   0.004841
    12  H   -0.044592  -0.002775  -0.057651   0.004092   0.004841   0.564076
    13  H    0.000409  -0.000049  -0.057517   0.004133  -0.002650  -0.000816
    14  H   -0.000052   0.000383   0.004090  -0.057630  -0.000816  -0.002518
              13         14
     1  C   -0.071813   0.431942
     2  C    0.432544  -0.070888
     3  C   -0.010519  -0.009323
     4  C   -0.009109  -0.010088
     5  H   -0.002734  -0.044567
     6  H   -0.044413  -0.002771
     7  H    0.000409  -0.000052
     8  H   -0.000049   0.000383
     9  O   -0.057517   0.004090
    10  O    0.004133  -0.057630
    11  H   -0.002650  -0.000816
    12  H   -0.000816  -0.002518
    13  H    0.564555   0.004844
    14  H    0.004844   0.564042
 Mulliken charges:
               1
     1  C   -0.209318
     2  C   -0.210039
     3  C   -0.209377
     4  C   -0.210093
     5  H    0.193744
     6  H    0.193995
     7  H    0.193720
     8  H    0.193973
     9  O   -0.354765
    10  O   -0.354763
    11  H    0.193109
    12  H    0.193327
    13  H    0.193136
    14  H    0.193352
 Sum of Mulliken charges =   0.00000
 Mulliken charges with hydrogens summed into heavy atoms:
               1
     1  C    0.177778
     2  C    0.177092
     3  C    0.177670
     4  C    0.176989
     9  O   -0.354765
    10  O   -0.354763
 Electronic spatial extent (au):  <R**2>=            501.9355
 Charge=              0.0000 electrons
 Dipole moment (field-independent basis, Debye):
    X=             -0.0006    Y=              0.0000    Z=              0.0191  Tot=              0.0191
 Quadrupole moment (field-independent basis, Debye-Ang):
   XX=            -31.0640   YY=            -45.2236   ZZ=            -36.4296
   XY=              0.2665   XZ=              0.0000   YZ=             -0.0001
 Traceless Quadrupole moment (field-independent basis, Debye-Ang):
   XX=              6.5084   YY=             -7.6512   ZZ=              1.1428
   XY=              0.2665   XZ=              0.0000   YZ=             -0.0001
 Octapole moment (field-independent basis, Debye-Ang**2):
  XXX=             -0.0034  YYY=              0.0000  ZZZ=             -0.0218  XYY=             -0.0019
  XXY=              0.0002  XXZ=             -0.0420  XZZ=             -0.0003  YZZ=             -0.0001
  YYZ=              0.0799  XYZ=              0.9205
 Hexadecapole moment (field-independent basis, Debye-Ang**3):
 XXXX=           -279.6631 YYYY=           -301.8612 ZZZZ=            -88.1419 XXXY=             -0.4583
 XXXZ=              0.0002 YYYX=              1.0637 YYYZ=             -0.0006 ZZZX=             -0.0003
 ZZZY=              0.0010 XXYY=            -82.9305 XXZZ=            -65.1840 YYZZ=            -63.0762
 XXYZ=             -0.0014 YYXZ=              0.0000 ZZXY=             -0.0444
 N-N= 2.631356110020D+02 E-N=-1.244293839008D+03  KE= 3.048318410901D+02
 Evaluate density.
 Using the total density.
 Monte-Carlo method of calculating molar volume:
 based on  0.001 e/bohr**3 density envelope.
 Number of points per bohr**3 =   20 CutOff= 1.00D-04
 Using the SCF density.
 There are       315 points.  Will hold       315 in memory.
 LenV=  8321439896 MDV=  8321499136.
 Box volume = 3913.671 fraction occupied=0.175
 Integrated density= 2.7324862684510766D+01 error=-2.0675137315489234D+01
 Molar volume =  683.339 bohr**3/mol ( 60.980 cm**3/mol)
 Recommended a0 for SCRF calculation =  3.68 angstrom (  6.96 bohr)
 Calling FoFJK, ICntrl=      2127 FMM=F ISym2X=0 I1Cent= 0 IOpClX= 0 NMat=1 NMatS=1 NMatT=0.
 ***** Axes restored to original set *****
 -------------------------------------------------------------------
 Center     Atomic                   Forces (Hartrees/Bohr)
 Number     Number              X              Y              Z
 -------------------------------------------------------------------
      1        6          -0.000002090    0.000040891   -0.000105049
      2        6          -0.000080920    0.000018765    0.000063405
      3        6           0.000046375    0.000042589   -0.000110084
      4        6           0.000124194   -0.000101513    0.000075648
      5        1           0.000023598   -0.000095010    0.000018941
      6        1           0.000030715    0.000072790   -0.000018418
      7        1          -0.000019340    0.000065066    0.000025667
      8        1          -0.000026570   -0.000044306   -0.000027458
      9        8          -0.000014225   -0.000089728    0.000063905
     10        8          -0.000057555    0.000087663    0.000031564
     11        1           0.000008446   -0.000021390   -0.000050792
     12        1          -0.000008160    0.000049080    0.000040650
     13        1          -0.000019560    0.000011492   -0.000019152
     14        1          -0.000004909   -0.000036389    0.000011175
 -------------------------------------------------------------------
 Cartesian Forces:  Max     0.000124194 RMS     0.000055699

 GradGradGradGradGradGradGradGradGradGradGradGradGradGradGradGradGradGrad
 Berny optimization.
 FormGI is forming the generalized inverse of G from B-inverse, IUseBI=4.
 Internal  Forces:  Max     0.000107167 RMS     0.000037788
 Search for a local minimum.
 Step number   1 out of a maximum of   80
 All quantities printed in internal units (Hartrees-Bohrs-Radians)
 Mixed Optimization -- En-DIIS/RFO-DIIS
 Second derivative matrix not updated -- first step.
 ITU=  0
     Eigenvalues ---    0.00919   0.00943   0.01266   0.04037   0.04338
     Eigenvalues ---    0.04955   0.05632   0.05812   0.05947   0.06283
     Eigenvalues ---    0.06503   0.10560   0.11370   0.11528   0.11588
     Eigenvalues ---    0.11617   0.11641   0.11955   0.13897   0.20500
     Eigenvalues ---    0.21482   0.22047   0.27853   0.29390   0.33568
     Eigenvalues ---    0.33575   0.33577   0.33582   0.34172   0.34174
     Eigenvalues ---    0.34181   0.34183   0.38025   0.38649   0.40062
     Eigenvalues ---    0.40674
 RFO step:  Lambda=-8.98398421D-07 EMin= 9.19075762D-03
 Linear search not attempted -- first point.
 Iteration  1 RMS(Cart)=  0.00082130 RMS(Int)=  0.00000042
 Iteration  2 RMS(Cart)=  0.00000052 RMS(Int)=  0.00000014
 Variable       Old X    -DE/DX   Delta X   Delta X   Delta X     New X
                                 (Linear)    (Quad)   (Total)
    R1        2.87742  -0.00005   0.00000  -0.00018  -0.00018   2.87724
    R2        2.07041  -0.00006   0.00000  -0.00019  -0.00019   2.07023
    R3        2.70699   0.00004   0.00000   0.00010   0.00010   2.70709
    R4        2.08041  -0.00001   0.00000  -0.00002  -0.00002   2.08039
    R5        2.07026  -0.00006   0.00000  -0.00017  -0.00017   2.07008
    R6        2.70621   0.00005   0.00000   0.00012   0.00012   2.70633
    R7        2.08054  -0.00002   0.00000  -0.00005  -0.00005   2.08049
    R8        2.87765  -0.00011   0.00000  -0.00034  -0.00034   2.87730
    R9        2.07038  -0.00004   0.00000  -0.00012  -0.00012   2.07025
   R10        2.70676   0.00009   0.00000   0.00022   0.00022   2.70699
   R11        2.08050  -0.00003   0.00000  -0.00010  -0.00010   2.08040
   R12        2.07022  -0.00004   0.00000  -0.00011  -0.00011   2.07011
   R13        2.70598   0.00010   0.00000   0.00025   0.00025   2.70623
   R14        2.08065  -0.00005   0.00000  -0.00014  -0.00014   2.08050
    A1        1.92865  -0.00009   0.00000  -0.00078  -0.00078   1.92787
    A2        1.94968   0.00001   0.00000  -0.00010  -0.00010   1.94958
    A3        1.91548  -0.00001   0.00000  -0.00005  -0.00005   1.91543
    A4        1.86556   0.00004   0.00000   0.00033   0.00033   1.86589
    A5        1.88882   0.00003   0.00000   0.00021   0.00021   1.88903
    A6        1.91416   0.00003   0.00000   0.00041   0.00041   1.91457
    A7        1.92823  -0.00005   0.00000  -0.00044  -0.00044   1.92779
    A8        1.94924  -0.00001   0.00000  -0.00018  -0.00018   1.94905
    A9        1.91597  -0.00001   0.00000   0.00000   0.00000   1.91597
   A10        1.86505   0.00002   0.00000   0.00014   0.00014   1.86519
   A11        1.88845   0.00002   0.00000   0.00012   0.00012   1.88858
   A12        1.91538   0.00003   0.00000   0.00038   0.00038   1.91576
   A13        1.92833  -0.00007   0.00000  -0.00058  -0.00058   1.92775
   A14        1.94977   0.00001   0.00000  -0.00010  -0.00010   1.94967
   A15        1.91559  -0.00003   0.00000  -0.00021  -0.00021   1.91538
   A16        1.86578   0.00003   0.00000   0.00021   0.00021   1.86599
   A17        1.88866   0.00004   0.00000   0.00033   0.00033   1.88899
   A18        1.91420   0.00003   0.00000   0.00037   0.00037   1.91458
   A19        1.92796  -0.00003   0.00000  -0.00028  -0.00028   1.92769
   A20        1.94935  -0.00001   0.00000  -0.00019  -0.00019   1.94916
   A21        1.91601  -0.00002   0.00000  -0.00012  -0.00012   1.91589
   A22        1.86528   0.00001   0.00000   0.00001   0.00001   1.86529
   A23        1.88829   0.00002   0.00000   0.00024   0.00024   1.88853
   A24        1.91542   0.00003   0.00000   0.00036   0.00036   1.91578
   A25        1.98309  -0.00003   0.00000  -0.00030  -0.00030   1.98279
   A26        1.98308  -0.00003   0.00000  -0.00030  -0.00030   1.98278
    D1        1.06612  -0.00001   0.00000  -0.00035  -0.00035   1.06577
    D2        3.13947  -0.00003   0.00000  -0.00058  -0.00058   3.13889
    D3       -1.01517   0.00000   0.00000  -0.00022  -0.00022  -1.01539
    D4        3.14066  -0.00002   0.00000  -0.00051  -0.00051   3.14015
    D5       -1.06917  -0.00003   0.00000  -0.00074  -0.00074  -1.06992
    D6        1.05938   0.00000   0.00000  -0.00039  -0.00039   1.05899
    D7       -1.01557   0.00001   0.00000  -0.00009  -0.00009  -1.01566
    D8        1.05778   0.00000   0.00000  -0.00033  -0.00033   1.05745
    D9       -3.09686   0.00003   0.00000   0.00003   0.00003  -3.09683
   D10        0.49098   0.00005   0.00000   0.00175   0.00175   0.49273
   D11        2.60263  -0.00003   0.00000   0.00095   0.00095   2.60358
   D12       -1.63673   0.00004   0.00000   0.00160   0.00160  -1.63513
   D13        0.50628   0.00001   0.00000  -0.00110  -0.00110   0.50517
   D14        2.61682  -0.00005   0.00000  -0.00167  -0.00167   2.61515
   D15       -1.62261   0.00000   0.00000  -0.00124  -0.00124  -1.62385
   D16        1.06617   0.00000   0.00000  -0.00028  -0.00028   1.06589
   D17        3.13970  -0.00002   0.00000  -0.00058  -0.00058   3.13913
   D18       -1.01478   0.00000   0.00000  -0.00033  -0.00033  -1.01511
   D19        3.14085  -0.00001   0.00000  -0.00047  -0.00047   3.14038
   D20       -1.06881  -0.00003   0.00000  -0.00076  -0.00076  -1.06956
   D21        1.05990   0.00000   0.00000  -0.00051  -0.00051   1.05939
   D22       -1.01519   0.00001   0.00000  -0.00020  -0.00020  -1.01539
   D23        1.05834   0.00000   0.00000  -0.00049  -0.00049   1.05785
   D24       -3.09614   0.00002   0.00000  -0.00025  -0.00025  -3.09639
   D25        0.49061   0.00004   0.00000   0.00176   0.00176   0.49237
   D26        2.60206  -0.00002   0.00000   0.00113   0.00113   2.60319
   D27       -1.63734   0.00005   0.00000   0.00184   0.00184  -1.63550
   D28        0.50591   0.00000   0.00000  -0.00109  -0.00109   0.50482
   D29        2.61634  -0.00004   0.00000  -0.00154  -0.00154   2.61480
   D30       -1.62314   0.00001   0.00000  -0.00106  -0.00106  -1.62420
         Item               Value     Threshold  Converged?
 Maximum Force            0.000107     0.000450     YES
 RMS     Force            0.000038     0.000300     YES
 Maximum Displacement     0.002560     0.001800     NO 
 RMS     Displacement     0.000821     0.001200     YES
 Predicted change in Energy=-4.491045D-07
 GradGradGradGradGradGradGradGradGradGradGradGradGradGradGradGradGradGrad

                          Input orientation:                          
 ---------------------------------------------------------------------
 Center     Atomic      Atomic             Coordinates (Angstroms)
 Number     Number       Type             X           Y           Z
 ---------------------------------------------------------------------
      1          6           0       -1.158502    0.651975   -0.352880
      2          6           0       -1.131070   -0.695393    0.355684
      3          6           0        1.158530   -0.652086   -0.352703
      4          6           0        1.131082    0.695496    0.355526
      5          1           0       -2.052667    1.216754   -0.067129
      6          1           0       -2.004749   -1.293511    0.074736
      7          1           0        2.052705   -1.216727   -0.066661
      8          1           0        2.004780    1.293490    0.074330
      9          8           0        0.027108   -1.457837   -0.002502
     10          8           0       -0.027117    1.457836   -0.002593
     11          1           0        1.154516    0.543823    1.445732
     12          1           0        1.181910   -0.498969   -1.442652
     13          1           0       -1.154295   -0.543512    1.445858
     14          1           0       -1.181636    0.498630   -1.442797
 ---------------------------------------------------------------------
                    Distance matrix (angstroms):
                    1          2          3          4          5
     1  C    0.000000
     2  C    1.522569   0.000000
     3  C    2.658799   2.397072   0.000000
     4  C    2.397066   2.655542   1.522603   0.000000
     5  H    1.095518   2.164352   3.726379   3.253706   0.000000
     6  H    2.164234   1.095442   3.255835   3.724034   2.514728
     7  H    3.726368   3.253704   1.095531   2.164308   4.772411
     8  H    3.255826   3.724026   2.164201   1.095453   4.060638
     9  O    2.445351   1.432130   1.432476   2.446177   3.388669
    10  O    1.432530   2.446113   2.445426   1.432074   2.040867
    11  H    2.932022   2.819178   2.159765   1.100956   3.609378
    12  H    2.826625   2.936405   1.100900   2.159347   3.911299
    13  H    2.159783   1.100948   2.931854   2.819027   2.488923
    14  H    1.100895   2.159347   2.826451   2.936220   1.779567
                    6          7          8          9         10
     6  H    0.000000
     7  H    4.060643   0.000000
     8  H    4.771677   2.514630   0.000000
     9  O    2.039954   2.040904   3.389231   0.000000
    10  O    3.389236   3.388665   2.039984   2.916177   0.000000
    11  H    3.903381   2.488697   1.779240   2.715708   2.080702
    12  H    3.617811   1.779553   2.488224   2.080151   2.713781
    13  H    1.779255   3.609125   3.903258   2.080733   2.715498
    14  H    2.488411   3.911158   3.617558   2.713535   2.080187
                   11         12         13         14
    11  H    0.000000
    12  H    3.070982   0.000000
    13  H    2.552039   3.715283   0.000000
    14  H    3.715272   2.565454   3.071015   0.000000
 Stoichiometry    C4H8O2
 Framework group  C1[X(C4H8O2)]
 Deg. of freedom    36
 Full point group                 C1      NOp   1
 Largest Abelian subgroup         C1      NOp   1
 Largest concise Abelian subgroup C1      NOp   1
                         Standard orientation:                         
 ---------------------------------------------------------------------
 Center     Atomic      Atomic             Coordinates (Angstroms)
 Number     Number       Type             X           Y           Z
 ---------------------------------------------------------------------
      1          6           0       -1.152732    0.662152   -0.353180
      2          6           0       -1.137164   -0.685406    0.355383
      3          6           0        1.152728   -0.662260   -0.353003
      4          6           0        1.137146    0.685513    0.355226
      5          1           0       -2.041890    1.234781   -0.067430
      6          1           0       -2.016075   -1.275809    0.074435
      7          1           0        2.041898   -1.234751   -0.066962
      8          1           0        2.016076    1.275790    0.074029
      9          8           0        0.014257   -1.458017   -0.002802
     10          8           0       -0.014296    1.458020   -0.002893
     11          1           0        1.159244    0.533638    1.445432
     12          1           0        1.177456   -0.509354   -1.442953
     13          1           0       -1.159051   -0.533326    1.445557
     14          1           0       -1.177215    0.509016   -1.443097
 ---------------------------------------------------------------------
 Rotational constants (GHZ):           5.0801632           4.5240876           2.7724385
 Standard basis: 6-31+G(d) (6D, 7F)
 There are   130 symmetry adapted cartesian basis functions of A   symmetry.
 There are   130 symmetry adapted basis functions of A   symmetry.
   130 basis functions,   224 primitive gaussians,   130 cartesian basis functions
    24 alpha electrons       24 beta electrons
       nuclear repulsion energy       263.1535709175 Hartrees.
 NAtoms=   14 NActive=   14 NUniq=   14 SFac= 1.00D+00 NAtFMM=   60 NAOKFM=F Big=F
 Integral buffers will be    131072 words long.
 Raffenetti 2 integral format.
 Two-electron integral symmetry is turned on.
 Nuclear repulsion after empirical dispersion term =      263.1439051418 Hartrees.
 One-electron integrals computed using PRISM.
 NBasis=   130 RedAO= T EigKep=  9.97D-05  NBF=   130
 NBsUse=   130 1.00D-06 EigRej= -1.00D+00 NBFU=   130
 Initial guess from the checkpoint file:  "MOLECULE_1 (1)-vol.chk"
 B after Tr=     0.000000    0.000000    0.000000
         Rot=    0.999990    0.000011    0.000001    0.004406 Ang=   0.50 deg.
 Requested convergence on RMS density matrix=1.00D-08 within1000 cycles.
 Requested convergence on MAX density matrix=1.00D-06.
 Requested convergence on             energy=1.00D-06.
 No special actions if energy rises.
 SCF Done:  E(RB3LYP) =  -307.671126311     A.U. after    7 cycles
            NFock=  7  Conv=0.70D-08     -V/T= 2.0093
 Calling FoFJK, ICntrl=      2127 FMM=F ISym2X=0 I1Cent= 0 IOpClX= 0 NMat=1 NMatS=1 NMatT=0.
 ***** Axes restored to original set *****
 -------------------------------------------------------------------
 Center     Atomic                   Forces (Hartrees/Bohr)
 Number     Number              X              Y              Z
 -------------------------------------------------------------------
      1        6           0.000012294    0.000022692   -0.000012411
      2        6          -0.000032265    0.000016599   -0.000028829
      3        6           0.000013908    0.000009083   -0.000028746
      4        6           0.000060759   -0.000047006   -0.000010964
      5        1           0.000006717    0.000010375   -0.000002446
      6        1          -0.000012870    0.000003575   -0.000010282
      7        1          -0.000014665   -0.000013218   -0.000003516
      8        1           0.000006014   -0.000001530   -0.000009786
      9        8           0.000056953   -0.000052990    0.000064418
     10        8          -0.000088249    0.000050959    0.000041644
     11        1          -0.000022309    0.000012866   -0.000008337
     12        1          -0.000007903   -0.000003252    0.000008500
     13        1           0.000017661   -0.000007601   -0.000007747
     14        1           0.000003954   -0.000000552    0.000008503
 -------------------------------------------------------------------
 Cartesian Forces:  Max     0.000088249 RMS     0.000028779

 GradGradGradGradGradGradGradGradGradGradGradGradGradGradGradGradGradGrad
 Berny optimization.
 Using GEDIIS/GDIIS optimizer.
 FormGI is forming the generalized inverse of G from B-inverse, IUseBI=4.
 Internal  Forces:  Max     0.000065723 RMS     0.000016356
 Search for a local minimum.
 Step number   2 out of a maximum of   80
 All quantities printed in internal units (Hartrees-Bohrs-Radians)
 Mixed Optimization -- En-DIIS/RFO-DIIS
 Swapping is turned off.
 Update second derivatives using D2CorX and points    1    2
 DE= -8.60D-07 DEPred=-4.49D-07 R= 1.92D+00
 Trust test= 1.92D+00 RLast= 5.57D-03 DXMaxT set to 3.00D-01
 ITU=  0  0
     Eigenvalues ---    0.00775   0.00922   0.00970   0.04038   0.04340
     Eigenvalues ---    0.04933   0.05667   0.05822   0.05949   0.06273
     Eigenvalues ---    0.06962   0.10443   0.11367   0.11524   0.11583
     Eigenvalues ---    0.11616   0.11953   0.12690   0.14374   0.20498
     Eigenvalues ---    0.21691   0.23074   0.27883   0.30433   0.33349
     Eigenvalues ---    0.33574   0.33576   0.33594   0.34121   0.34173
     Eigenvalues ---    0.34183   0.34801   0.38022   0.38259   0.39230
     Eigenvalues ---    0.41946
 En-DIIS/RFO-DIIS/Sim-DIIS IScMMF=       -3 using points:     2    1
 RFO step:  Lambda=-3.12637799D-07.
 DidBck=F Rises=F RFO-DIIS coefs:    1.90162   -0.90162
 Iteration  1 RMS(Cart)=  0.00064517 RMS(Int)=  0.00000042
 Iteration  2 RMS(Cart)=  0.00000041 RMS(Int)=  0.00000028
 Variable       Old X    -DE/DX   Delta X   Delta X   Delta X     New X
                                 (Linear)    (Quad)   (Total)
    R1        2.87724   0.00002  -0.00016   0.00020   0.00004   2.87728
    R2        2.07023   0.00000  -0.00017   0.00011  -0.00006   2.07017
    R3        2.70709  -0.00002   0.00009  -0.00013  -0.00004   2.70705
    R4        2.08039  -0.00001  -0.00002  -0.00002  -0.00004   2.08035
    R5        2.07008   0.00001  -0.00016   0.00014  -0.00002   2.07007
    R6        2.70633   0.00004   0.00011   0.00005   0.00016   2.70650
    R7        2.08049  -0.00001  -0.00005   0.00000  -0.00005   2.08044
    R8        2.87730   0.00001  -0.00031   0.00027  -0.00004   2.87726
    R9        2.07025  -0.00001  -0.00011   0.00005  -0.00006   2.07019
   R10        2.70699   0.00000   0.00020  -0.00014   0.00006   2.70705
   R11        2.08040  -0.00001  -0.00009   0.00003  -0.00006   2.08034
   R12        2.07011   0.00001  -0.00010   0.00009  -0.00001   2.07009
   R13        2.70623   0.00007   0.00022   0.00004   0.00027   2.70649
   R14        2.08050  -0.00001  -0.00013   0.00004  -0.00008   2.08042
    A1        1.92787   0.00001  -0.00070   0.00049  -0.00021   1.92766
    A2        1.94958   0.00000  -0.00009   0.00011   0.00002   1.94959
    A3        1.91543   0.00000  -0.00005   0.00006   0.00002   1.91544
    A4        1.86589  -0.00001   0.00030  -0.00032  -0.00002   1.86587
    A5        1.88903   0.00000   0.00019  -0.00011   0.00008   1.88911
    A6        1.91457   0.00000   0.00037  -0.00025   0.00012   1.91469
    A7        1.92779  -0.00001  -0.00040   0.00025  -0.00016   1.92763
    A8        1.94905   0.00004  -0.00017   0.00039   0.00022   1.94927
    A9        1.91597  -0.00001   0.00000  -0.00012  -0.00011   1.91585
   A10        1.86519  -0.00001   0.00013   0.00003   0.00016   1.86535
   A11        1.88858   0.00001   0.00011  -0.00001   0.00010   1.88868
   A12        1.91576  -0.00003   0.00034  -0.00055  -0.00020   1.91556
   A13        1.92775   0.00001  -0.00052   0.00041  -0.00011   1.92765
   A14        1.94967   0.00000  -0.00009   0.00005  -0.00003   1.94964
   A15        1.91538   0.00000  -0.00019   0.00023   0.00004   1.91542
   A16        1.86599  -0.00001   0.00019  -0.00031  -0.00013   1.86587
   A17        1.88899   0.00000   0.00030  -0.00016   0.00014   1.88913
   A18        1.91458   0.00000   0.00034  -0.00025   0.00009   1.91466
   A19        1.92769  -0.00001  -0.00025   0.00018  -0.00007   1.92762
   A20        1.94916   0.00004  -0.00017   0.00033   0.00016   1.94932
   A21        1.91589   0.00000  -0.00011   0.00004  -0.00006   1.91583
   A22        1.86529  -0.00001   0.00001   0.00005   0.00005   1.86534
   A23        1.88853   0.00001   0.00022  -0.00005   0.00016   1.88870
   A24        1.91578  -0.00003   0.00032  -0.00056  -0.00024   1.91554
   A25        1.98279  -0.00003  -0.00027   0.00008  -0.00020   1.98259
   A26        1.98278  -0.00002  -0.00027   0.00008  -0.00019   1.98259
    D1        1.06577   0.00000  -0.00031   0.00021  -0.00010   1.06567
    D2        3.13889   0.00001  -0.00052   0.00066   0.00014   3.13902
    D3       -1.01539   0.00000  -0.00020   0.00015  -0.00006  -1.01545
    D4        3.14015  -0.00001  -0.00046   0.00021  -0.00025   3.13990
    D5       -1.06992   0.00001  -0.00067   0.00066  -0.00002  -1.06993
    D6        1.05899  -0.00001  -0.00035   0.00014  -0.00021   1.05879
    D7       -1.01566  -0.00001  -0.00008   0.00001  -0.00008  -1.01574
    D8        1.05745   0.00001  -0.00029   0.00045   0.00016   1.05761
    D9       -3.09683  -0.00001   0.00003  -0.00006  -0.00003  -3.09686
   D10        0.49273   0.00000   0.00158  -0.00001   0.00157   0.49430
   D11        2.60358   0.00001   0.00085   0.00045   0.00131   2.60488
   D12       -1.63513   0.00000   0.00144   0.00001   0.00145  -1.63367
   D13        0.50517  -0.00002  -0.00099  -0.00074  -0.00174   0.50344
   D14        2.61515  -0.00001  -0.00150  -0.00019  -0.00170   2.61346
   D15       -1.62385  -0.00002  -0.00112  -0.00048  -0.00160  -1.62545
   D16        1.06589   0.00000  -0.00026   0.00018  -0.00008   1.06580
   D17        3.13913   0.00001  -0.00052   0.00056   0.00004   3.13917
   D18       -1.01511   0.00000  -0.00030   0.00010  -0.00020  -1.01531
   D19        3.14038  -0.00001  -0.00042   0.00009  -0.00033   3.14005
   D20       -1.06956   0.00001  -0.00068   0.00048  -0.00021  -1.06977
   D21        1.05939  -0.00001  -0.00046   0.00001  -0.00045   1.05894
   D22       -1.01539  -0.00001  -0.00018  -0.00003  -0.00021  -1.01561
   D23        1.05785   0.00000  -0.00044   0.00035  -0.00009   1.05776
   D24       -3.09639  -0.00001  -0.00022  -0.00011  -0.00033  -3.09672
   D25        0.49237   0.00001   0.00159   0.00018   0.00177   0.49414
   D26        2.60319   0.00001   0.00102   0.00052   0.00154   2.60473
   D27       -1.63550   0.00000   0.00166   0.00002   0.00168  -1.63382
   D28        0.50482  -0.00002  -0.00099  -0.00056  -0.00154   0.50327
   D29        2.61480  -0.00001  -0.00139  -0.00011  -0.00150   2.61330
   D30       -1.62420  -0.00002  -0.00096  -0.00044  -0.00140  -1.62560
         Item               Value     Threshold  Converged?
 Maximum Force            0.000066     0.000450     YES
 RMS     Force            0.000016     0.000300     YES
 Maximum Displacement     0.002198     0.001800     NO 
 RMS     Displacement     0.000645     0.001200     YES
 Predicted change in Energy=-1.563659D-07
 GradGradGradGradGradGradGradGradGradGradGradGradGradGradGradGradGradGrad

                          Input orientation:                          
 ---------------------------------------------------------------------
 Center     Atomic      Atomic             Coordinates (Angstroms)
 Number     Number       Type             X           Y           Z
 ---------------------------------------------------------------------
      1          6           0       -1.158253    0.651933   -0.352850
      2          6           0       -1.131205   -0.695473    0.355707
      3          6           0        1.158335   -0.652018   -0.352669
      4          6           0        1.131273    0.695548    0.355559
      5          1           0       -2.052728    1.216418   -0.067615
      6          1           0       -2.004712   -1.293504    0.074076
      7          1           0        2.052785   -1.216462   -0.067222
      8          1           0        2.004766    1.293535    0.073733
      9          8           0        0.027383   -1.457992   -0.001339
     10          8           0       -0.027341    1.457985   -0.001571
     11          1           0        1.155320    0.543817    1.445700
     12          1           0        1.180760   -0.498954   -1.442613
     13          1           0       -1.155197   -0.543501    1.445826
     14          1           0       -1.180591    0.498636   -1.442772
 ---------------------------------------------------------------------
                    Distance matrix (angstroms):
                    1          2          3          4          5
     1  C    0.000000
     2  C    1.522592   0.000000
     3  C    2.658358   2.397014   0.000000
     4  C    2.397014   2.655889   1.522581   0.000000
     5  H    1.095486   2.164194   3.726022   3.253959   0.000000
     6  H    2.164136   1.095433   3.255532   3.724241   2.514377
     7  H    3.726023   3.253934   1.095499   2.164188   4.772226
     8  H    3.255506   3.724241   2.164126   1.095446   4.060688
     9  O    2.445623   1.432216   1.432508   2.446157   3.388764
    10  O    1.432509   2.446128   2.445651   1.432215   2.040811
    11  H    2.932420   2.819950   2.159667   1.100912   3.610275
    12  H    2.825438   2.935601   1.100867   2.159330   3.910059
    13  H    2.159700   1.100922   2.932369   2.819906   2.488651
    14  H    1.100876   2.159366   2.825403   2.935555   1.779577
                    6          7          8          9         10
     6  H    0.000000
     7  H    4.060688   0.000000
     8  H    4.771655   2.514410   0.000000
     9  O    2.040136   2.040816   3.389185   0.000000
    10  O    3.389161   3.388790   2.040140   2.916490   0.000000
    11  H    3.904216   2.488565   1.779305   2.715400   2.080620
    12  H    3.616474   1.779591   2.488234   2.080217   2.713986
    13  H    1.779292   3.610171   3.904191   2.080642   2.715320
    14  H    2.488327   3.910040   3.616372   2.713913   2.080240
                   11         12         13         14
    11  H    0.000000
    12  H    3.070890   0.000000
    13  H    2.553575   3.715071   0.000000
    14  H    3.715075   2.563427   3.070943   0.000000
 Stoichiometry    C4H8O2
 Framework group  C1[X(C4H8O2)]
 Deg. of freedom    36
 Full point group                 C1      NOp   1
 Largest Abelian subgroup         C1      NOp   1
 Largest concise Abelian subgroup C1      NOp   1
                         Standard orientation:                         
 ---------------------------------------------------------------------
 Center     Atomic      Atomic             Coordinates (Angstroms)
 Number     Number       Type             X           Y           Z
 ---------------------------------------------------------------------
      1          6           0       -1.151241    0.664299   -0.353482
      2          6           0       -1.138620   -0.683319    0.355075
      3          6           0        1.151254   -0.664379   -0.353301
      4          6           0        1.138621    0.683399    0.354927
      5          1           0       -2.039621    1.238329   -0.068246
      6          1           0       -2.018481   -1.271964    0.073444
      7          1           0        2.039609   -1.238367   -0.067853
      8          1           0        2.018466    1.272000    0.073102
      9          8           0        0.011737   -1.458198   -0.001970
     10          8           0       -0.011764    1.458197   -0.002202
     11          1           0        1.161041    0.531419    1.445068
     12          1           0        1.175316   -0.511564   -1.443244
     13          1           0       -1.160984   -0.531099    1.445194
     14          1           0       -1.175219    0.511250   -1.443403
 ---------------------------------------------------------------------
 Rotational constants (GHZ):           5.0803934           4.5235787           2.7722964
 Standard basis: 6-31+G(d) (6D, 7F)
 There are   130 symmetry adapted cartesian basis functions of A   symmetry.
 There are   130 symmetry adapted basis functions of A   symmetry.
   130 basis functions,   224 primitive gaussians,   130 cartesian basis functions
    24 alpha electrons       24 beta electrons
       nuclear repulsion energy       263.1493297047 Hartrees.
 NAtoms=   14 NActive=   14 NUniq=   14 SFac= 1.00D+00 NAtFMM=   60 NAOKFM=F Big=F
 Integral buffers will be    131072 words long.
 Raffenetti 2 integral format.
 Two-electron integral symmetry is turned on.
 Nuclear repulsion after empirical dispersion term =      263.1396633863 Hartrees.
 One-electron integrals computed using PRISM.
 NBasis=   130 RedAO= T EigKep=  9.97D-05  NBF=   130
 NBsUse=   130 1.00D-06 EigRej= -1.00D+00 NBFU=   130
 Initial guess from the checkpoint file:  "MOLECULE_1 (1)-vol.chk"
 B after Tr=     0.000000    0.000000    0.000000
         Rot=    1.000000    0.000010    0.000001    0.000933 Ang=   0.11 deg.
 Requested convergence on RMS density matrix=1.00D-08 within1000 cycles.
 Requested convergence on MAX density matrix=1.00D-06.
 Requested convergence on             energy=1.00D-06.
 No special actions if energy rises.
 SCF Done:  E(RB3LYP) =  -307.671126605     A.U. after    7 cycles
            NFock=  7  Conv=0.55D-08     -V/T= 2.0093
 Calling FoFJK, ICntrl=      2127 FMM=F ISym2X=0 I1Cent= 0 IOpClX= 0 NMat=1 NMatS=1 NMatT=0.
 ***** Axes restored to original set *****
 -------------------------------------------------------------------
 Center     Atomic                   Forces (Hartrees/Bohr)
 Number     Number              X              Y              Z
 -------------------------------------------------------------------
      1        6           0.000034754   -0.000000491    0.000008331
      2        6          -0.000014500    0.000014216   -0.000025314
      3        6          -0.000030359   -0.000006594    0.000003472
      4        6           0.000019832   -0.000007061   -0.000021313
      5        1          -0.000003583    0.000026954   -0.000009382
      6        1          -0.000015742   -0.000014728   -0.000006930
      7        1          -0.000001446   -0.000020943   -0.000013347
      8        1           0.000010831    0.000008748   -0.000002742
      9        8           0.000049659    0.000005889    0.000040345
     10        8          -0.000052117   -0.000005856    0.000032745
     11        1          -0.000010364    0.000011519    0.000009686
     12        1           0.000005861   -0.000010322   -0.000012400
     13        1           0.000011472   -0.000008955    0.000003011
     14        1          -0.000004297    0.000007623   -0.000006161
 -------------------------------------------------------------------
 Cartesian Forces:  Max     0.000052117 RMS     0.000019074

 GradGradGradGradGradGradGradGradGradGradGradGradGradGradGradGradGradGrad
 Berny optimization.
 Using GEDIIS/GDIIS optimizer.
 FormGI is forming the generalized inverse of G from B-inverse, IUseBI=4.
 Internal  Forces:  Max     0.000029380 RMS     0.000011442
 Search for a local minimum.
 Step number   3 out of a maximum of   80
 All quantities printed in internal units (Hartrees-Bohrs-Radians)
 Mixed Optimization -- En-DIIS/RFO-DIIS
 Swapping is turned off.
 Update second derivatives using D2CorX and points    1    2    3
 DE= -2.94D-07 DEPred=-1.56D-07 R= 1.88D+00
 Trust test= 1.88D+00 RLast= 5.57D-03 DXMaxT set to 3.00D-01
 ITU=  0  0  0
     Eigenvalues ---    0.00304   0.00921   0.00963   0.04038   0.04342
     Eigenvalues ---    0.04832   0.05690   0.05855   0.05950   0.06307
     Eigenvalues ---    0.06950   0.10634   0.11367   0.11525   0.11583
     Eigenvalues ---    0.11650   0.11954   0.13677   0.15248   0.20497
     Eigenvalues ---    0.21980   0.23132   0.27910   0.30739   0.33553
     Eigenvalues ---    0.33575   0.33593   0.33831   0.34136   0.34173
     Eigenvalues ---    0.34183   0.36064   0.38026   0.38568   0.39587
     Eigenvalues ---    0.44247
 En-DIIS/RFO-DIIS/Sim-DIIS IScMMF=       -3 using points:     3    2    1
 RFO step:  Lambda=-3.76028049D-07.
 DIIS inversion failure, remove point   3.
 RFO-DIIS uses    2 points instead of    3
 DidBck=F Rises=F RFO-DIIS coefs:    2.89422   -1.89422    0.00000
 Iteration  1 RMS(Cart)=  0.00125499 RMS(Int)=  0.00000140
 Iteration  2 RMS(Cart)=  0.00000145 RMS(Int)=  0.00000090
 Iteration  3 RMS(Cart)=  0.00000000 RMS(Int)=  0.00000090
 Variable       Old X    -DE/DX   Delta X   Delta X   Delta X     New X
                                 (Linear)    (Quad)   (Total)
    R1        2.87728   0.00002   0.00008  -0.00002   0.00006   2.87734
    R2        2.07017   0.00001  -0.00012   0.00008  -0.00003   2.07014
    R3        2.70705  -0.00003  -0.00008  -0.00005  -0.00013   2.70692
    R4        2.08035   0.00001  -0.00007   0.00007   0.00001   2.08036
    R5        2.07007   0.00002  -0.00003   0.00008   0.00005   2.07012
    R6        2.70650   0.00001   0.00031  -0.00008   0.00023   2.70672
    R7        2.08044   0.00000  -0.00009   0.00005  -0.00004   2.08040
    R8        2.87726   0.00002  -0.00008   0.00006  -0.00002   2.87725
    R9        2.07019   0.00001  -0.00012   0.00006  -0.00005   2.07014
   R10        2.70705  -0.00003   0.00012  -0.00012  -0.00001   2.70704
   R11        2.08034   0.00001  -0.00012   0.00011  -0.00001   2.08032
   R12        2.07009   0.00001  -0.00002   0.00005   0.00003   2.07012
   R13        2.70649   0.00002   0.00050  -0.00016   0.00035   2.70684
   R14        2.08042   0.00001  -0.00016   0.00009  -0.00006   2.08036
    A1        1.92766   0.00002  -0.00040   0.00021  -0.00019   1.92747
    A2        1.94959  -0.00001   0.00003  -0.00002   0.00001   1.94961
    A3        1.91544   0.00001   0.00003   0.00013   0.00016   1.91561
    A4        1.86587  -0.00001  -0.00003  -0.00012  -0.00015   1.86572
    A5        1.88911  -0.00001   0.00015  -0.00021  -0.00006   1.88905
    A6        1.91469   0.00000   0.00023  -0.00001   0.00022   1.91491
    A7        1.92763   0.00001  -0.00029   0.00021  -0.00009   1.92754
    A8        1.94927   0.00001   0.00042  -0.00019   0.00022   1.94950
    A9        1.91585   0.00000  -0.00022   0.00010  -0.00011   1.91574
   A10        1.86535   0.00000   0.00030  -0.00011   0.00019   1.86554
   A11        1.88868   0.00000   0.00019  -0.00003   0.00016   1.88884
   A12        1.91556  -0.00002  -0.00039   0.00002  -0.00036   1.91519
   A13        1.92765   0.00002  -0.00020   0.00013  -0.00007   1.92758
   A14        1.94964  -0.00001  -0.00006  -0.00001  -0.00008   1.94956
   A15        1.91542   0.00001   0.00007   0.00012   0.00019   1.91561
   A16        1.86587  -0.00001  -0.00024  -0.00001  -0.00024   1.86562
   A17        1.88913  -0.00001   0.00027  -0.00028  -0.00002   1.88912
   A18        1.91466   0.00000   0.00017   0.00004   0.00021   1.91487
   A19        1.92762   0.00001  -0.00013   0.00015   0.00001   1.92763
   A20        1.94932   0.00001   0.00030  -0.00017   0.00012   1.94944
   A21        1.91583   0.00000  -0.00012   0.00006  -0.00006   1.91578
   A22        1.86534   0.00000   0.00010   0.00000   0.00010   1.86544
   A23        1.88870   0.00000   0.00031  -0.00011   0.00020   1.88890
   A24        1.91554  -0.00002  -0.00045   0.00007  -0.00038   1.91516
   A25        1.98259   0.00000  -0.00038   0.00025  -0.00014   1.98245
   A26        1.98259   0.00000  -0.00037   0.00024  -0.00013   1.98246
    D1        1.06567   0.00000  -0.00019   0.00027   0.00008   1.06575
    D2        3.13902   0.00001   0.00026   0.00014   0.00040   3.13942
    D3       -1.01545   0.00000  -0.00011   0.00012   0.00001  -1.01544
    D4        3.13990   0.00000  -0.00048   0.00024  -0.00023   3.13967
    D5       -1.06993   0.00001  -0.00003   0.00012   0.00009  -1.06984
    D6        1.05879  -0.00001  -0.00039   0.00009  -0.00030   1.05849
    D7       -1.01574   0.00000  -0.00014   0.00031   0.00017  -1.01557
    D8        1.05761   0.00001   0.00030   0.00019   0.00049   1.05810
    D9       -3.09686  -0.00001  -0.00006   0.00016   0.00010  -3.09676
   D10        0.49430   0.00000   0.00297   0.00007   0.00305   0.49735
   D11        2.60488   0.00002   0.00248   0.00025   0.00272   2.60760
   D12       -1.63367   0.00000   0.00275  -0.00007   0.00268  -1.63099
   D13        0.50344  -0.00002  -0.00329  -0.00006  -0.00335   0.50008
   D14        2.61346   0.00000  -0.00321   0.00001  -0.00321   2.61025
   D15       -1.62545  -0.00001  -0.00303  -0.00008  -0.00311  -1.62856
   D16        1.06580   0.00000  -0.00015   0.00013  -0.00002   1.06578
   D17        3.13917   0.00001   0.00008   0.00011   0.00019   3.13936
   D18       -1.01531   0.00000  -0.00038   0.00013  -0.00025  -1.01556
   D19        3.14005   0.00000  -0.00062   0.00020  -0.00042   3.13963
   D20       -1.06977   0.00001  -0.00039   0.00018  -0.00021  -1.06998
   D21        1.05894  -0.00001  -0.00085   0.00020  -0.00065   1.05829
   D22       -1.01561   0.00000  -0.00040   0.00032  -0.00008  -1.01569
   D23        1.05776   0.00001  -0.00017   0.00030   0.00013   1.05789
   D24       -3.09672  -0.00001  -0.00063   0.00033  -0.00031  -3.09703
   D25        0.49414   0.00001   0.00335   0.00001   0.00336   0.49750
   D26        2.60473   0.00002   0.00291   0.00016   0.00307   2.60780
   D27       -1.63382   0.00000   0.00319  -0.00016   0.00303  -1.63079
   D28        0.50327  -0.00001  -0.00292  -0.00012  -0.00304   0.50023
   D29        2.61330   0.00000  -0.00284  -0.00005  -0.00289   2.61041
   D30       -1.62560  -0.00001  -0.00266  -0.00014  -0.00279  -1.62840
         Item               Value     Threshold  Converged?
 Maximum Force            0.000029     0.000450     YES
 RMS     Force            0.000011     0.000300     YES
 Maximum Displacement     0.004205     0.001800     NO 
 RMS     Displacement     0.001255     0.001200     NO 
 Predicted change in Energy=-1.880923D-07
 GradGradGradGradGradGradGradGradGradGradGradGradGradGradGradGradGradGrad

                          Input orientation:                          
 ---------------------------------------------------------------------
 Center     Atomic      Atomic             Coordinates (Angstroms)
 Number     Number       Type             X           Y           Z
 ---------------------------------------------------------------------
      1          6           0       -1.157799    0.651801   -0.352762
      2          6           0       -1.131584   -0.695665    0.355781
      3          6           0        1.157944   -0.651863   -0.352578
      4          6           0        1.131718    0.695714    0.355643
      5          1           0       -2.052783    1.216004   -0.068630
      6          1           0       -2.004636   -1.293759    0.072777
      7          1           0        2.052885   -1.216097   -0.068371
      8          1           0        2.004737    1.293825    0.072557
      9          8           0        0.027859   -1.458112    0.000886
     10          8           0       -0.027743    1.458101    0.000425
     11          1           0        1.157110    0.543956    1.445716
     12          1           0        1.178710   -0.499039   -1.442581
     13          1           0       -1.157130   -0.543628    1.445833
     14          1           0       -1.178692    0.498731   -1.442747
 ---------------------------------------------------------------------
                    Distance matrix (angstroms):
                    1          2          3          4          5
     1  C    0.000000
     2  C    1.522624   0.000000
     3  C    2.657481   2.397004   0.000000
     4  C    2.397010   2.656778   1.522573   0.000000
     5  H    1.095469   2.164072   3.725361   3.254498   0.000000
     6  H    2.164121   1.095458   3.254976   3.724881   2.514205
     7  H    3.725374   3.254473   1.095470   2.164107   4.771962
     8  H    3.254953   3.724888   2.164139   1.095461   4.060721
     9  O    2.445932   1.432335   1.432504   2.446084   3.388923
    10  O    1.432441   2.446109   2.445897   1.432398   2.040628
    11  H    2.933420   2.821832   2.159594   1.100879   3.612243
    12  H    2.823369   2.934319   1.100861   2.159457   3.907897
    13  H    2.159629   1.100900   2.933525   2.821934   2.488392
    14  H    1.100879   2.159515   2.823508   2.934451   1.779526
                    6          7          8          9         10
     6  H    0.000000
     7  H    4.060718   0.000000
     8  H    4.771861   2.514337   0.000000
     9  O    2.040396   2.040612   3.389150   0.000000
    10  O    3.389112   3.388965   2.040383   2.916744   0.000000
    11  H    3.906251   2.488506   1.779421   2.714962   2.080482
    12  H    3.614082   1.779553   2.488438   2.080356   2.714442
    13  H    1.779395   3.612372   3.906344   2.080469   2.715077
    14  H    2.488377   3.908022   3.614213   2.714604   2.080341
                   11         12         13         14
    11  H    0.000000
    12  H    3.070923   0.000000
    13  H    2.557058   3.714980   0.000000
    14  H    3.715001   2.559861   3.070973   0.000000
 Stoichiometry    C4H8O2
 Framework group  C1[X(C4H8O2)]
 Deg. of freedom    36
 Full point group                 C1      NOp   1
 Largest Abelian subgroup         C1      NOp   1
 Largest concise Abelian subgroup C1      NOp   1
                         Standard orientation:                         
 ---------------------------------------------------------------------
 Center     Atomic      Atomic             Coordinates (Angstroms)
 Number     Number       Type             X           Y           Z
 ---------------------------------------------------------------------
      1          6           0       -1.146203    0.672087   -0.354044
      2          6           0       -1.143713   -0.675632    0.354499
      3          6           0        1.146231   -0.672142   -0.353860
      4          6           0        1.143732    0.675688    0.354361
      5          1           0       -2.031116    1.251957   -0.069912
      6          1           0       -2.027159   -1.258264    0.071495
      7          1           0        2.031100   -1.252044   -0.069653
      8          1           0        2.027144    1.258337    0.071275
      9          8           0        0.002127   -1.458372   -0.000396
     10          8           0       -0.002129    1.458368   -0.000858
     11          1           0        1.166448    0.523506    1.444434
     12          1           0        1.169684   -0.519707   -1.443864
     13          1           0       -1.166579   -0.523169    1.444551
     14          1           0       -1.169788    0.519408   -1.444030
 ---------------------------------------------------------------------
 Rotational constants (GHZ):           5.0804452           4.5231055           2.7721192
 Standard basis: 6-31+G(d) (6D, 7F)
 There are   130 symmetry adapted cartesian basis functions of A   symmetry.
 There are   130 symmetry adapted basis functions of A   symmetry.
   130 basis functions,   224 primitive gaussians,   130 cartesian basis functions
    24 alpha electrons       24 beta electrons
       nuclear repulsion energy       263.1432591229 Hartrees.
 NAtoms=   14 NActive=   14 NUniq=   14 SFac= 1.00D+00 NAtFMM=   60 NAOKFM=F Big=F
 Integral buffers will be    131072 words long.
 Raffenetti 2 integral format.
 Two-electron integral symmetry is turned on.
 Nuclear repulsion after empirical dispersion term =      263.1335926730 Hartrees.
 One-electron integrals computed using PRISM.
 NBasis=   130 RedAO= T EigKep=  9.97D-05  NBF=   130
 NBsUse=   130 1.00D-06 EigRej= -1.00D+00 NBFU=   130
 Initial guess from the checkpoint file:  "MOLECULE_1 (1)-vol.chk"
 B after Tr=     0.000000    0.000000    0.000000
         Rot=    0.999994    0.000018    0.000001    0.003416 Ang=   0.39 deg.
 Requested convergence on RMS density matrix=1.00D-08 within1000 cycles.
 Requested convergence on MAX density matrix=1.00D-06.
 Requested convergence on             energy=1.00D-06.
 No special actions if energy rises.
 SCF Done:  E(RB3LYP) =  -307.671126926     A.U. after    7 cycles
            NFock=  7  Conv=0.94D-08     -V/T= 2.0093
 Calling FoFJK, ICntrl=      2127 FMM=F ISym2X=0 I1Cent= 0 IOpClX= 0 NMat=1 NMatS=1 NMatT=0.
 ***** Axes restored to original set *****
 -------------------------------------------------------------------
 Center     Atomic                   Forces (Hartrees/Bohr)
 Number     Number              X              Y              Z
 -------------------------------------------------------------------
      1        6           0.000026197   -0.000006609    0.000029567
      2        6           0.000009810    0.000006423   -0.000024150
      3        6          -0.000051778   -0.000033913    0.000038072
      4        6          -0.000035804    0.000033176   -0.000035513
      5        1          -0.000006199    0.000029995   -0.000014362
      6        1          -0.000009117   -0.000017848    0.000001927
      7        1           0.000007800   -0.000021186   -0.000016826
      8        1           0.000010193    0.000009825    0.000005469
      9        8           0.000043349    0.000058395    0.000002715
     10        8          -0.000004847   -0.000056608    0.000018814
     11        1           0.000001880    0.000002720    0.000015838
     12        1           0.000013097   -0.000007421   -0.000018227
     13        1           0.000003207   -0.000003496    0.000005980
     14        1          -0.000007787    0.000006546   -0.000009303
 -------------------------------------------------------------------
 Cartesian Forces:  Max     0.000058395 RMS     0.000023789

 GradGradGradGradGradGradGradGradGradGradGradGradGradGradGradGradGradGrad
 Berny optimization.
 Using GEDIIS/GDIIS optimizer.
 FormGI is forming the generalized inverse of G from B-inverse, IUseBI=4.
 Internal  Forces:  Max     0.000058151 RMS     0.000013660
 Search for a local minimum.
 Step number   4 out of a maximum of   80
 All quantities printed in internal units (Hartrees-Bohrs-Radians)
 Mixed Optimization -- En-DIIS/RFO-DIIS
 Swapping is turned off.
 Update second derivatives using D2CorX and points    1    2    3    4
 DE= -3.21D-07 DEPred=-1.88D-07 R= 1.70D+00
 Trust test= 1.70D+00 RLast= 1.06D-02 DXMaxT set to 3.00D-01
 ITU=  0  0  0  0
     Eigenvalues ---    0.00251   0.00921   0.00959   0.04038   0.04347
     Eigenvalues ---    0.04824   0.05715   0.05857   0.05950   0.06316
     Eigenvalues ---    0.06923   0.10824   0.11367   0.11525   0.11583
     Eigenvalues ---    0.11671   0.11955   0.13515   0.14597   0.20496
     Eigenvalues ---    0.22105   0.23724   0.27906   0.30391   0.33553
     Eigenvalues ---    0.33575   0.33595   0.33887   0.34163   0.34176
     Eigenvalues ---    0.34184   0.35361   0.38028   0.38757   0.39776
     Eigenvalues ---    0.45844
 En-DIIS/RFO-DIIS/Sim-DIIS IScMMF=       -3 using points:     4    3    2    1
 RFO step:  Lambda=-6.65370770D-08.
 DIIS inversion failure, remove point   4.
 DIIS inversion failure, remove point   3.
 RFO-DIIS uses    2 points instead of    4
 DidBck=F Rises=F RFO-DIIS coefs:    1.29393   -0.29393    0.00000    0.00000
 Iteration  1 RMS(Cart)=  0.00036512 RMS(Int)=  0.00000025
 Iteration  2 RMS(Cart)=  0.00000013 RMS(Int)=  0.00000023
 Variable       Old X    -DE/DX   Delta X   Delta X   Delta X     New X
                                 (Linear)    (Quad)   (Total)
    R1        2.87734   0.00000   0.00002  -0.00003  -0.00001   2.87733
    R2        2.07014   0.00002  -0.00001   0.00003   0.00002   2.07016
    R3        2.70692  -0.00003  -0.00004  -0.00006  -0.00009   2.70683
    R4        2.08036   0.00001   0.00000   0.00002   0.00002   2.08038
    R5        2.07012   0.00002   0.00001   0.00002   0.00004   2.07015
    R6        2.70672  -0.00001   0.00007  -0.00002   0.00005   2.70677
    R7        2.08040   0.00001  -0.00001   0.00001   0.00000   2.08040
    R8        2.87725   0.00002   0.00000   0.00002   0.00002   2.87726
    R9        2.07014   0.00001  -0.00002   0.00003   0.00001   2.07015
   R10        2.70704  -0.00006   0.00000  -0.00012  -0.00012   2.70692
   R11        2.08032   0.00002   0.00000   0.00004   0.00003   2.08036
   R12        2.07012   0.00001   0.00001   0.00002   0.00003   2.07015
   R13        2.70684  -0.00003   0.00010  -0.00008   0.00002   2.70686
   R14        2.08036   0.00002  -0.00002   0.00003   0.00001   2.08037
    A1        1.92747   0.00003  -0.00006   0.00018   0.00012   1.92759
    A2        1.94961  -0.00002   0.00000  -0.00006  -0.00006   1.94955
    A3        1.91561   0.00001   0.00005   0.00001   0.00006   1.91566
    A4        1.86572  -0.00001  -0.00004  -0.00005  -0.00009   1.86563
    A5        1.88905  -0.00002  -0.00002  -0.00008  -0.00010   1.88895
    A6        1.91491   0.00000   0.00006   0.00001   0.00007   1.91498
    A7        1.92754   0.00001  -0.00003   0.00009   0.00006   1.92761
    A8        1.94950   0.00000   0.00007  -0.00001   0.00005   1.94955
    A9        1.91574   0.00000  -0.00003  -0.00001  -0.00005   1.91569
   A10        1.86554   0.00000   0.00006  -0.00002   0.00004   1.86558
   A11        1.88884   0.00000   0.00005  -0.00002   0.00002   1.88886
   A12        1.91519  -0.00001  -0.00011  -0.00002  -0.00013   1.91507
   A13        1.92758   0.00002  -0.00002   0.00013   0.00011   1.92768
   A14        1.94956  -0.00002  -0.00002  -0.00004  -0.00007   1.94950
   A15        1.91561   0.00001   0.00006   0.00000   0.00006   1.91567
   A16        1.86562   0.00000  -0.00007   0.00000  -0.00007   1.86555
   A17        1.88912  -0.00002   0.00000  -0.00012  -0.00012   1.88900
   A18        1.91487   0.00000   0.00006   0.00003   0.00009   1.91496
   A19        1.92763   0.00001   0.00000   0.00005   0.00006   1.92769
   A20        1.94944   0.00000   0.00004   0.00001   0.00005   1.94949
   A21        1.91578   0.00000  -0.00002  -0.00003  -0.00005   1.91572
   A22        1.86544   0.00000   0.00003   0.00003   0.00006   1.86550
   A23        1.88890  -0.00001   0.00006  -0.00006   0.00000   1.88890
   A24        1.91516   0.00000  -0.00011   0.00000  -0.00011   1.91505
   A25        1.98245   0.00002  -0.00004   0.00012   0.00008   1.98253
   A26        1.98246   0.00002  -0.00004   0.00012   0.00008   1.98254
    D1        1.06575   0.00000   0.00002   0.00005   0.00007   1.06582
    D2        3.13942   0.00001   0.00012   0.00007   0.00019   3.13962
    D3       -1.01544   0.00000   0.00000   0.00003   0.00003  -1.01540
    D4        3.13967   0.00000  -0.00007   0.00006   0.00000   3.13967
    D5       -1.06984   0.00001   0.00003   0.00009   0.00012  -1.06972
    D6        1.05849   0.00000  -0.00009   0.00005  -0.00004   1.05845
    D7       -1.01557   0.00000   0.00005   0.00004   0.00009  -1.01548
    D8        1.05810   0.00000   0.00014   0.00006   0.00021   1.05831
    D9       -3.09676   0.00000   0.00003   0.00002   0.00005  -3.09670
   D10        0.49735   0.00000   0.00090   0.00000   0.00090   0.49825
   D11        2.60760   0.00002   0.00080   0.00015   0.00095   2.60856
   D12       -1.63099   0.00000   0.00079   0.00003   0.00082  -1.63018
   D13        0.50008   0.00000  -0.00099  -0.00001  -0.00099   0.49909
   D14        2.61025   0.00001  -0.00094   0.00008  -0.00086   2.60939
   D15       -1.62856   0.00000  -0.00091   0.00003  -0.00088  -1.62944
   D16        1.06578   0.00000  -0.00001   0.00002   0.00001   1.06579
   D17        3.13936   0.00001   0.00006   0.00010   0.00015   3.13951
   D18       -1.01556   0.00000  -0.00007   0.00008   0.00001  -1.01555
   D19        3.13963   0.00000  -0.00012   0.00007  -0.00005   3.13958
   D20       -1.06998   0.00001  -0.00006   0.00015   0.00009  -1.06989
   D21        1.05829   0.00000  -0.00019   0.00013  -0.00006   1.05823
   D22       -1.01569   0.00000  -0.00002   0.00008   0.00006  -1.01563
   D23        1.05789   0.00001   0.00004   0.00016   0.00020   1.05809
   D24       -3.09703   0.00000  -0.00009   0.00014   0.00005  -3.09698
   D25        0.49750   0.00000   0.00099  -0.00006   0.00093   0.49843
   D26        2.60780   0.00002   0.00090   0.00007   0.00097   2.60877
   D27       -1.63079   0.00000   0.00089  -0.00006   0.00083  -1.62996
   D28        0.50023   0.00000  -0.00089  -0.00007  -0.00096   0.49926
   D29        2.61041   0.00001  -0.00085   0.00002  -0.00083   2.60958
   D30       -1.62840   0.00000  -0.00082  -0.00003  -0.00085  -1.62925
         Item               Value     Threshold  Converged?
 Maximum Force            0.000058     0.000450     YES
 RMS     Force            0.000014     0.000300     YES
 Maximum Displacement     0.001214     0.001800     YES
 RMS     Displacement     0.000365     0.001200     YES
 Predicted change in Energy=-3.327203D-08
[...]
 ! D2    D(5,1,2,9)            179.8883         -DE/DX =    0.0                 !
 ! D3    D(5,1,2,13)           -58.1827         -DE/DX =    0.0                 !
 ! D4    D(10,1,2,6)           179.8878         -DE/DX =    0.0                 !
 ! D5    D(10,1,2,9)           -61.2909         -DE/DX =    0.0                 !
 ! D6    D(10,1,2,13)           60.6381         -DE/DX =    0.0                 !
 ! D7    D(14,1,2,6)           -58.1824         -DE/DX =    0.0                 !
 ! D8    D(14,1,2,9)            60.6389         -DE/DX =    0.0                 !
 ! D9    D(14,1,2,13)         -177.4321         -DE/DX =    0.0                 !
 ! D10   D(2,1,10,4)            28.5798         -DE/DX =    0.0                 !
 ! D11   D(5,1,10,4)           149.4978         -DE/DX =    0.0                 !
 ! D12   D(14,1,10,4)          -93.3713         -DE/DX =    0.0                 !
 ! D13   D(1,2,9,3)             28.5715         -DE/DX =    0.0                 !
 ! D14   D(6,2,9,3)            149.49           -DE/DX =    0.0                 !
 ! D15   D(13,2,9,3)           -93.3791         -DE/DX =    0.0                 !
 ! D16   D(7,3,4,8)             61.067          -DE/DX =    0.0                 !
 ! D17   D(7,3,4,10)           179.8884         -DE/DX =    0.0                 !
 ! D18   D(7,3,4,11)           -58.1827         -DE/DX =    0.0                 !
 ! D19   D(9,3,4,8)            179.8878         -DE/DX =    0.0                 !
 ! D20   D(9,3,4,10)           -61.2908         -DE/DX =    0.0                 !
 ! D21   D(9,3,4,11)            60.6381         -DE/DX =    0.0                 !
 ! D22   D(12,3,4,8)           -58.1824         -DE/DX =    0.0                 !
 ! D23   D(12,3,4,10)           60.639          -DE/DX =    0.0                 !
 ! D24   D(12,3,4,11)         -177.4321         -DE/DX =    0.0                 !
 ! D25   D(4,3,9,2)             28.5797         -DE/DX =    0.0                 !
 ! D26   D(7,3,9,2)            149.4978         -DE/DX =    0.0                 !
 ! D27   D(12,3,9,2)           -93.3714         -DE/DX =    0.0                 !
 ! D28   D(3,4,10,1)            28.5715         -DE/DX =    0.0                 !
 ! D29   D(8,4,10,1)           149.49           -DE/DX =    0.0                 !
 ! D30   D(11,4,10,1)          -93.3791         -DE/DX =    0.0                 !
 --------------------------------------------------------------------------------
 GradGradGradGradGradGradGradGradGradGradGradGradGradGradGradGradGradGrad


 ----------------------------------------------------------------------

 Electric dipole moment (input orientation):
 (Debye = 10**-18 statcoulomb cm , SI units = C m)
                  (au)            (Debye)         (10**-30 SI)
   Tot        0.136061D-02      0.345834D-02      0.115358D-01
   x          0.138169D-03      0.351190D-03      0.117144D-02
   y          0.000000D+00      0.000000D+00      0.000000D+00
   z          0.135358D-02      0.344046D-02      0.114761D-01

 Dipole polarizability, Alpha (input orientation).
 (esu units = cm**3 , SI units = C**2 m**2 J**-1)
 Alpha(0;0):
               (au)            (10**-24 esu)      (10**-40 SI)
   iso        0.524035D+02      0.776539D+01      0.864017D+01
   aniso      0.101177D+02      0.149930D+01      0.166819D+01
   xx         0.590944D+02      0.875688D+01      0.974334D+01
   yx         0.178196D+00      0.264059D-01      0.293805D-01
   yy         0.497758D+02      0.737602D+01      0.820693D+01
   zx         0.772590D-04      0.114486D-04      0.127383D-04
   zy        -0.571778D-03     -0.847288D-04     -0.942735D-04
   zz         0.483402D+02      0.716328D+01      0.797023D+01

 ----------------------------------------------------------------------

 Dipole orientation:
     6         -2.10911262          1.23413372         -0.88153202
     6         -2.19539550         -1.31635779          0.44762195
     6          2.24473851         -1.23011409         -0.44444305
     6          2.05912682          1.31227964          0.88984547
     1         -3.84633666          2.29891869         -0.51581669
     1         -3.78221028         -2.44466711         -0.25545614
     1          3.87281938         -2.29829190          0.25828078
     1          3.75450936          2.44393915          0.52869705
     8          0.05263838         -2.75543282         -0.00153762
     8         -0.05267268          2.75540496          0.00402438
     1          1.89772349          1.01909998          2.94310899
     1          2.49290315         -0.93493482         -2.48871197
     1         -2.45264688         -1.03543500          2.49285262
     1         -1.93917806          0.95127182         -2.93555488

 Electric dipole moment (dipole orientation):
 (Debye = 10**-18 statcoulomb cm , SI units = C m)
                  (au)            (Debye)         (10**-30 SI)
   Tot        0.136062D-02      0.345835D-02      0.115358D-01
   x          0.000000D+00      0.000000D+00      0.000000D+00
   y          0.000000D+00      0.000000D+00      0.000000D+00
   z          0.136062D-02      0.345835D-02      0.115358D-01

 Dipole polarizability, Alpha (dipole orientation).
 (esu units = cm**3 , SI units = C**2 m**2 J**-1)
 Alpha(0;0):
               (au)            (10**-24 esu)      (10**-40 SI)
   iso        0.524035D+02      0.776539D+01      0.864017D+01
   aniso      0.101177D+02      0.149930D+01      0.166819D+01
   xx         0.589834D+02      0.874044D+01      0.972505D+01
   yx         0.175415D+00      0.259938D-01      0.289220D-01
   yy         0.497758D+02      0.737601D+01      0.820692D+01
   zx         0.108704D+01      0.161083D+00      0.179229D+00
   zy         0.218086D-01      0.323170D-02      0.359575D-02
   zz         0.484513D+02      0.717974D+01      0.798853D+01

 ----------------------------------------------------------------------
 1\1\GINC-IP-172-31-1-231\Freq\RB3LYP\6-31+G(d)\C4H8O2\UBUNTU\15-Sep-20
 23\0\\#N Geom=AllCheck Guess=TCheck SCRF=Check GenChk RB3LYP/6-31+G(d)
  Freq\\Title Card Required\\0,1\C,-1.1577988923,0.651801086,-0.3527619
 001\C,-1.1315837711,-0.6956646666,0.3557813115\C,1.1579436666,-0.65186
 26228,-0.3525779961\C,1.1317181728,0.6957141557,0.3556432405\H,-2.0527
 825701,1.2160040344,-0.0686301196\H,-2.0046362486,-1.293759196,0.07277
 69853\H,2.0528849004,-1.2160974458,-0.068370994\H,2.0047365561,1.29382
 49622,0.072557486\O,0.0278587307,-1.4581121438,0.0008863953\O,-0.02774
 31587,1.4581014833,0.0004246224\H,1.1571096006,0.5439559121,1.44571623
 74\H,1.17871019,-0.4990387157,-1.4425814663\H,-1.1571304013,-0.5436276
 208,1.445833412\H,-1.1786917752,0.4987307778,-1.4427472144\\Version=EM
 64L-G16RevB.01\State=1-A\HF=-307.6711269\RMSD=1.068e-09\RMSF=2.379e-05
 \ZeroPoint=0.1223701\Thermal=0.1278681\Dipole=0.0001382,0.0000042,0.00
 13536\DipoleDeriv=0.6619672,0.1440847,0.1404892,0.3052899,0.327595,0.1
 279283,0.1507758,0.1171485,0.3939848,0.6779187,-0.130889,-0.1455026,-0
 .2919627,0.3110983,0.1225694,-0.155626,0.1112035,0.394398,0.6618603,0.
 1440407,-0.1405136,0.3051645,0.3275598,-0.1278804,-0.1508385,-0.117120
 8,0.3939778,0.6778003,-0.1308397,0.1455347,-0.2918364,0.3110525,-0.122
 5221,0.1556992,-0.1111742,0.3944056,-0.1347863,0.0577731,0.0100339,0.0
 905329,-0.0157287,-0.0210595,0.0472469,-0.0414636,0.044549,-0.128781,-
 0.0621119,-0.0090819,-0.094853,-0.0215034,-0.021318,-0.0453779,-0.0431
 221,0.0447261,-0.1347215,0.0577576,-0.0100369,0.0905422,-0.015717,0.02
 10673,-0.047243,0.0414633,0.0445623,-0.1287226,-0.0620957,0.0090817,-0
 .0948591,-0.0214883,0.0213242,0.0453752,0.0431233,0.0447345,-1.0428604
 ,-0.0080811,0.2293599,-0.0081796,-0.6085804,0.0042268,0.2010334,0.0037
 421,-0.4851785,-1.0428507,-0.0081622,-0.2293667,-0.0083609,-0.6085817,
 -0.0042454,-0.2010486,-0.0036967,-0.4851874,-0.0182948,0.0233184,0.009
 72,0.0620635,0.0052043,0.0402946,-0.0710589,0.021066,-0.1963256,-0.015
 096,-0.0240563,-0.0110524,-0.0628052,0.0019725,0.0399188,0.0703892,0.0
 237206,-0.1961112,-0.0183175,0.0233186,-0.0096918,0.0620867,0.0051727,
 -0.0403438,0.0710726,-0.0211196,-0.1963748,-0.0151156,-0.0240571,0.011
 0265,-0.062823,0.0019444,-0.0399602,-0.0703993,-0.0237703,-0.1961607\P
 olar=59.0943589,0.1781956,49.7758429,0.0000773,-0.0005718,48.340225\Qu
 adrupole=4.8422844,-5.6952982,0.8530139,0.2018561,0.0000126,0.0011356\
 PG=C01 [X(C4H8O2)]\NImag=0\\0.54096084,-0.09282701,0.48970122,-0.02781
 316,0.02157268,0.56772293,-0.07945175,0.01219903,-0.00424805,0.5340026
 4,-0.00927983,-0.15514341,0.05139963,0.09455425,0.49690127,0.00220794,
 0.05151006,-0.12170965,0.02701326,0.02255555,0.56755809,0.00725743,0.0
 0588304,0.00000733,-0.04364352,-0.01096130,0.00662726,0.54087361,0.005
 88322,0.00103655,-0.00042622,0.00867786,0.01587820,-0.00298224,-0.0928
 9147,0.48973340,-0.00000807,0.00042812,0.00829666,0.00653057,0.0032828
 4,-0.00926830,0.02786506,-0.02151923,0.56778211,-0.04364248,0.00867378
 ,-0.00653460,0.00770643,-0.00563490,0.00001064,-0.07944710,0.01220114,
 0.00424714,0.53390551,-0.01096517,0.01587793,-0.00329222,-0.00563512,0
 .00060303,-0.00042589,-0.00927733,-0.15521997,-0.05142395,0.09461036,0
 .49692890,-0.00662364,0.00297327,-0.00926897,-0.00001027,0.00042784,0.
 00832830,-0.00220500,-0.05153270,-0.12170231,-0.02706935,-0.02249713,0
 .56763001,-0.21006128,0.11163327,0.05858019,0.00098169,0.00133208,-0.0
 0009242,-0.00054508,-0.00090203,-0.00011588,-0.00148257,-0.00487177,0.
 00347242,0.24187626,0.11892072,-0.12789596,-0.03643705,0.02371878,-0.0
 0988478,-0.01260133,-0.00274941,-0.00093032,0.00051210,-0.00235885,-0.
 00204864,0.00105900,-0.11745276,0.13381618,0.06238399,-0.03931907,-0.0
 7363325,-0.01389632,0.00774347,0.00492299,0.00033069,0.00001853,-0.001
 20427,-0.00222420,-0.00107990,0.00023420,-0.05899572,0.04266510,0.0725
 5537,0.00194101,-0.00086865,0.00058258,-0.20128722,-0.11449416,-0.0569
 7876,-0.00175744,0.00488733,-0.00348858,-0.00068376,0.00091351,0.00009
 500,0.00025786,-0.00066029,0.00040518,0.23290245,-0.02327974,-0.010829
 58,-0.01255605,-0.12180112,-0.13684791,-0.03850997,0.00237548,-0.00177
 118,0.00091202,0.00275679,-0.00079184,0.00051858,0.00067167,-0.0000430
 4,-0.00050690,0.12131094,0.14296702,0.01359620,0.00827259,0.00490344,-
 0.06068218,-0.04153798,-0.07347015,0.00226540,-0.00100388,0.00023758,-
 0.00033358,0.00000536,-0.00120714,-0.00038534,-0.00052147,0.00033727,0
 .05712347,0.04474532,0.07241639,-0.00054465,-0.00090175,0.00011590,-0.
 00148357,-0.00487332,-0.00346919,-0.21004886,0.11163191,-0.05859461,0.
 00098410,0.00133045,0.00009339,0.00012306,0.00022068,-0.00003322,-0.00
 145996,0.00089515,0.00042185,0.24186390,-0.00274963,-0.00093078,-0.000
 51250,-0.00235891,-0.00204877,-0.00105732,0.11892090,-0.12790031,0.036
 44445,0.02372001,-0.00988190,0.01260378,0.00022083,0.00018731,-0.00001
 746,-0.00097317,0.00059566,0.00028534,-0.11745196,0.13381789,-0.000330
 03,-0.00001882,-0.00120412,0.00222441,0.00108089,0.00023462,-0.0623995
 5,0.03932501,-0.07364610,0.01389088,-0.00773847,0.00492216,0.00003324,
 0.00001752,0.00017860,0.00043119,-0.00026803,-0.00009462,0.05900834,-0
 .04267622,0.07256604,-0.00175847,0.00488869,0.00348548,-0.00068334,0.0
 0091329,-0.00009502,0.00194335,-0.00086721,-0.00058349,-0.20127534,-0.
 11448930,0.05699400,-0.00145995,-0.00097325,-0.00043092,0.00013965,-0.
 00022146,0.00003365,0.00025776,-0.00066043,-0.00040505,0.23289067,0.00
 237543,-0.00177120,-0.00091054,0.00275707,-0.00079234,-0.00051888,-0.0
 2328212,-0.01082775,0.01255826,-0.12179728,-0.13684717,0.03851719,0.00
 089505,0.00059566,0.00026778,-0.00022160,0.00016936,-0.00001614,0.0006
 7179,-0.00004241,0.00050695,0.12130677,0.14296424,-0.00226580,0.001004
 96,0.00023798,0.00033302,-0.00000567,-0.00120697,-0.01359063,-0.008267
 58,0.00490213,0.06069879,0.04154448,-0.07348398,-0.00042217,-0.0002856
 2,-0.00009464,-0.00003367,0.00001620,0.00018036,0.00038521,0.00052150,
 0.00033716,-0.05713610,-0.04475593,0.07242876,-0.01970045,0.01159376,0
 .00365382,-0.15033125,0.06744449,0.03456573,-0.14641736,-0.06810247,0.
 03390262,-0.01777784,-0.01128319,0.00320310,0.00229651,0.00248324,-0.0
 0070278,-0.03388070,0.02171338,0.01195291,-0.03332228,-0.02345033,0.01
 211199,0.00235004,-0.00213017,-0.00053314,0.41476538,0.03867514,-0.025
 12889,-0.01107069,0.03209606,-0.12762041,-0.01280697,-0.03275090,-0.13
 138038,0.01394332,-0.03838830,-0.02701757,0.01116285,-0.00076640,-0.00
 668712,0.00431868,-0.00871357,0.01223312,0.00562824,0.00695454,0.01166
 486,-0.00516268,0.00112162,-0.00673144,-0.00434036,0.00217974,0.297263
 34,-0.01228892,0.00519634,0.00659962,0.03739660,-0.02443732,-0.0706102
 1,0.03634064,0.02565950,-0.07053981,-0.01210624,-0.00567432,0.00656928
 ,-0.00002929,0.00399055,-0.00009515,0.00316269,0.00179946,0.00442849,0
 .00320521,-0.00169481,0.00445613,0.00012856,-0.00398627,-0.00009885,-0
 .12191518,-0.00208895,0.11710846,-0.14648519,-0.06815812,-0.03390031,-
 0.01777679,-0.01128149,-0.00319912,-0.01970224,0.01159589,-0.00365898,
 -0.15025666,0.06738879,-0.03457155,-0.03332220,-0.02345428,-0.01210441
 ,0.00235024,-0.00212947,0.00053330,0.00229632,0.00248415,0.00070260,-0
 .03388005,0.02170940,-0.01196175,0.00688784,-0.00004932,0.00258167,0.4
 1475726,-0.03280526,-0.13142123,-0.01393314,-0.03838547,-0.02701744,-0
 .01115403,0.03867832,-0.02512983,0.01108044,0.03204195,-0.12758198,0.0
 1281783,0.00695049,0.01166766,0.00516258,0.00112076,-0.00673018,0.0043
 4240,-0.00076723,-0.00668835,-0.00431674,-0.00871684,0.01222977,-0.005
 62915,-0.00004970,0.00934915,0.00005353,0.00230696,0.29726661,-0.03635
 336,-0.02564984,-0.07053316,0.01211674,0.00568231,0.00657121,0.0122768
 9,-0.00518848,0.00659718,-0.03738746,0.02444954,-0.07061831,-0.0032067
 1,0.00169533,0.00445718,-0.00012859,0.00398846,-0.00010134,0.00002924,
 -0.00398810,-0.00009257,-0.00316235,-0.00179849,0.00442743,-0.00258150
 ,-0.00005600,0.00186257,0.12192148,0.00204788,0.11711178,0.00300559,0.
 00294977,-0.00222237,-0.00115204,-0.00028613,0.00008613,0.00120371,-0.
 00213987,0.00115593,-0.05107564,-0.00671428,0.00874324,0.00003577,0.00
 012809,-0.00006597,0.00010686,-0.00001422,0.00022295,0.00001352,-0.000
 29932,0.00025665,0.00131709,-0.00240116,0.02509912,0.00113506,0.001030
 59,-0.00053549,-0.01410586,0.01367040,-0.03263068,0.06043701,-0.002590
 90,-0.00193591,0.00034604,-0.00049526,-0.00043301,0.00023687,0.0017373
 3,0.00336811,-0.03400653,-0.00632675,-0.05501529,0.02865269,0.00010268
 ,-0.00001656,0.00006174,-0.00003753,0.00018327,-0.00001292,0.00012503,
 0.00118467,0.00073771,-0.00199349,-0.00029495,0.01952312,0.00064795,0.
 00270119,0.00248497,0.01418612,-0.00510335,0.01902425,-0.00482443,0.06
 041056,0.00218303,0.00153144,-0.00006813,-0.00043324,0.00002745,-0.001
 64258,0.00292668,0.00170004,-0.01810536,0.00711080,0.02601217,-0.29157
 934,-0.00019273,-0.00011080,-0.00006207,-0.00007289,-0.00016233,0.0003
 9720,0.00041082,-0.00067799,0.00028034,0.00167953,0.00056193,-0.008245
 13,-0.00039571,0.00068414,0.00197654,-0.01372253,0.00805385,-0.0018590
 9,0.00045405,-0.03405949,0.31775243,-0.00117401,0.00025126,-0.00009328
 ,0.00300534,-0.00277243,0.00220494,-0.05154753,0.00682420,-0.00956658,
 0.00119274,0.00205209,0.00016907,0.00010400,0.00001172,-0.00022266,0.0
 0004240,-0.00012322,0.00006419,0.00118101,0.00245811,-0.02581320,0.000
 00944,0.00025421,-0.00028587,-0.01309801,-0.01398280,0.03187256,0.0012
 0358,-0.00108515,0.00044232,0.00117328,-0.00044326,0.00045727,0.060059
 24,0.00046556,-0.00040239,0.00023436,0.00277631,-0.00195055,0.00043413
 ,0.00644365,-0.05451739,0.02836922,-0.00177973,0.00337889,-0.03403135,
 0.00003410,0.00018471,-0.00002144,-0.00010029,-0.00002469,0.00006545,0
 .00202790,-0.00012614,0.01855317,-0.00017053,0.00118952,0.00072654,-0.
 01452860,-0.00617229,0.02022342,-0.00071167,0.00263707,0.00250162,0.00
 070703,-0.00559271,-0.00325858,0.00486091,0.06078331,0.00043839,0.0000
 4542,-0.00163522,-0.00223392,0.00144294,-0.00006696,-0.00782384,0.0257
 9424,-0.29164693,-0.00296975,0.00159093,-0.01811506,0.00007928,-0.0001
 5991,0.00039400,0.00019616,-0.00010304,-0.00006158,-0.00168635,0.00049
 853,-0.00826954,-0.00038506,-0.00069133,0.00028016,0.01338283,0.008538
 98,-0.00179191,0.00036618,0.00069731,0.00198265,-0.00033099,-0.0032750
 0,0.00005730,0.00055039,-0.03409557,0.31778512,0.00120322,-0.00213896,
 -0.00115316,-0.05107862,-0.00671153,-0.00871037,0.00300497,0.00295063,
 0.00222157,-0.00115202,-0.00028590,-0.00008615,0.00001368,-0.00029911,
 -0.00025713,0.00131903,-0.00240821,-0.02509900,0.00003564,0.00012789,0
 .00006592,0.00010688,-0.00001435,-0.00022291,-0.01411057,0.01367924,0.
 03262843,0.00113502,0.00103102,0.00053458,-0.00110574,-0.00091725,-0.0
 0009613,-0.00098858,-0.00088893,0.00032924,0.06044366,0.00173522,0.003
 37453,0.03400002,-0.00632475,-0.05503002,-0.02870419,-0.00259129,-0.00
 193688,-0.00034602,-0.00049489,-0.00043284,-0.00023761,0.00012467,0.00
 118507,-0.00073757,-0.00199308,-0.00029986,-0.01952571,0.00010273,-0.0
 0001651,-0.00006176,-0.00003752,0.00018335,0.00001297,0.01419318,-0.00
 510959,-0.01902387,0.00064784,0.00270014,-0.00248534,-0.00091737,-0.00
 000593,0.00029050,0.00082993,0.00054993,-0.00057691,-0.00483136,0.0604
 2973,-0.00292615,-0.00170516,-0.01811327,-0.00708043,-0.02606562,-0.29
 151964,-0.00218287,-0.00153137,-0.00006727,0.00043310,-0.00002771,-0.0
 0164266,-0.00041118,0.00067775,0.00028059,-0.00167915,-0.00056484,-0.0
 0824622,0.00019270,0.00011074,-0.00006210,0.00007288,0.00016250,0.0003
 9719,0.01372223,-0.00805359,-0.00184828,0.00039621,-0.00068396,0.00197
 715,0.00009641,-0.00029026,0.00123915,0.00030862,0.00059221,-0.0001412
 3,-0.00048545,0.03411894,0.31769065,-0.05154983,0.00682188,0.00953963,
 0.00119200,0.00205098,-0.00017102,-0.00117394,0.00025087,0.00009331,0.
 00300464,-0.00277315,-0.00220425,0.00118225,0.00246473,0.02581346,0.00
 000957,0.00025404,0.00028618,0.00010401,0.00001186,0.00022260,0.000042
 28,-0.00012305,-0.00006413,0.00120362,-0.00108564,-0.00044123,-0.01310
 126,-0.01399026,-0.03187060,-0.00098862,0.00082978,-0.00030895,-0.0011
 6291,0.00086429,0.00008743,0.00117342,-0.00044330,-0.00045692,0.060064
 78,0.00644226,-0.05453088,-0.02841433,-0.00177873,0.00338615,0.0340242
 2,0.00046510,-0.00040224,-0.00023504,0.00277667,-0.00195154,-0.0004342
 3,0.00202809,-0.00013016,-0.01855553,-0.00017019,0.00118983,-0.0007265
 9,0.00003410,0.00018479,0.00002147,-0.00010034,-0.00002463,-0.00006546
 ,-0.00071128,0.00263603,-0.00250223,-0.01453480,-0.00617804,-0.0202231
 4,-0.00088909,0.00054992,-0.00059234,0.00086444,0.00006272,0.00029339,
 0.00070681,-0.00559113,0.00326037,0.00486696,0.06079920,0.00779958,-0.
 02584201,-0.29159485,0.00296982,-0.00159632,-0.01812074,-0.00043807,-0
 .00004561,-0.00163530,0.00223383,-0.00144290,-0.00006618,0.00168630,-0
 .00050118,-0.00827082,0.00038537,0.00069113,0.00028032,-0.00007928,0.0
 0016007,0.00039399,-0.00019612,0.00010296,-0.00006161,-0.00036692,-0.0
 0069697,0.00198311,-0.01338278,-0.00853880,-0.00178270,-0.00032898,0.0
 0057680,-0.00014123,-0.00008779,-0.00029318,0.00122918,0.00033055,0.00
 327656,0.00005593,-0.00052551,0.03414944,0.31773090\\-0.00002619,0.000
 00662,-0.00002958,-0.00000982,-0.00000642,0.00002414,0.00005177,0.0000
 3391,-0.00003808,0.00003580,-0.00003318,0.00003550,0.00000620,-0.00003
 000,0.00001436,0.00000912,0.00001785,-0.00000192,-0.00000780,0.0000211
 8,0.00001683,-0.00001019,-0.00000982,-0.00000547,-0.00004334,-0.000058
 39,-0.00000272,0.00000484,0.00005661,-0.00001882,-0.00000188,-0.000002
 72,-0.00001583,-0.00001310,0.00000742,0.00001824,-0.00000321,0.0000035
 0,-0.00000597,0.00000779,-0.00000654,0.00000931\\\@


 RESEARCH IS WHAT I AM DOING WHEN I DON'T KNOW WHAT I AM DOING.
     -- WERNER VON BRAUN
 Job cpu time:       0 days  0 hours 15 minutes 51.3 seconds.
 Elapsed time:       0 days  0 hours  0 minutes 29.8 seconds.
 File lengths (MBytes):  RWF=     32 Int=      0 D2E=      0 Chk=      3 Scr=      1
 Normal termination of Gaussian 16 at Fri Sep 15 07:29:50 2023.
