 Entering Gaussian System, Link 0=C:\G09W\g09.exe
 Input=D:\machine learning\molecule_46.gjf
 Output=D:\machine learning\molecule_46.log
 Initial command:
 C:/G09W\l1.exe ".\Gau-4544.inp" "D:\machine learning\molecule_46.log" /scrdir=".\"
 Entering Link 1 = C:/G09W\l1.exe PID=      4584.
  
 Copyright (c) 1988,1990,1992,1993,1995,1998,2003,2009,2013,
            Gaussian, Inc.  All Rights Reserved.
  
 This is part of the Gaussian(R) 09 program.  It is based on
 the Gaussian(R) 03 system (copyright 2003, Gaussian, Inc.),
 the Gaussian(R) 98 system (copyright 1998, Gaussian, Inc.),
 the Gaussian(R) 94 system (copyright 1995, Gaussian, Inc.),
 the Gaussian 92(TM) system (copyright 1992, Gaussian, Inc.),
 the Gaussian 90(TM) system (copyright 1990, Gaussian, Inc.),
 the Gaussian 88(TM) system (copyright 1988, Gaussian, Inc.),
 the Gaussian 86(TM) system (copyright 1986, Carnegie Mellon
 University), and the Gaussian 82(TM) system (copyright 1983,
 Carnegie Mellon University). Gaussian is a federally registered
 trademark of Gaussian, Inc.
  
 This software contains proprietary and confidential information,
 including trade secrets, belonging to Gaussian, Inc.
  
 This software is provided under written license and may be
 used, copied, transmitted, or stored only in accord with that
 written license.
  
 The following legend is applicable only to US Government
 contracts under FAR:
  
                    RESTRICTED RIGHTS LEGEND
  
 Use, reproduction and disclosure by the US Government is
 subject to restrictions as set forth in subparagraphs (a)
 and (c) of the Commercial Computer Software - Restricted
 Rights clause in FAR 52.227-19.
  
 Gaussian, Inc.
 340 Quinnipiac St., Bldg. 40, Wallingford CT 06492
  
  
 ---------------------------------------------------------------
 Warning -- This program may not be used in any manner that
 competes with the business of Gaussian, Inc. or will provide
 assistance to any competitor of Gaussian, Inc.  The licensee
 of this program is prohibited from giving any competitor of
 Gaussian, Inc. access to this program.  By using this program,
 the user acknowledges that Gaussian, Inc. is engaged in the
 business of creating and licensing software in the field of
 computational chemistry and represents and warrants to the
 licensee that it is not a competitor of Gaussian, Inc. and that
 it will not use this program in any manner prohibited above.
 ---------------------------------------------------------------
  

 Cite this work as:
 Gaussian 09, Revision D.01,
 M. J. Frisch, G. W. Trucks, H. B. Schlegel, G. E. Scuseria, 
 M. A. Robb, J. R. Cheeseman, G. Scalmani, V. Barone, B. Mennucci, 
 G. A. Petersson, H. Nakatsuji, M. Caricato, X. Li, H. P. Hratchian, 
 A. F. Izmaylov, J. Bloino, G. Zheng, J. L. Sonnenberg, M. Hada, 
 M. Ehara, K. Toyota, R. Fukuda, J. Hasegawa, M. Ishida, T. Nakajima, 
 Y. Honda, O. Kitao, H. Nakai, T. Vreven, J. A. Montgomery, Jr., 
 J. E. Peralta, F. Ogliaro, M. Bearpark, J. J. Heyd, E. Brothers, 
 K. N. Kudin, V. N. Staroverov, T. Keith, R. Kobayashi, J. Normand, 
 K. Raghavachari, A. Rendell, J. C. Burant, S. S. Iyengar, J. Tomasi, 
 M. Cossi, N. Rega, J. M. Millam, M. Klene, J. E. Knox, J. B. Cross, 
 V. Bakken, C. Adamo, J. Jaramillo, R. Gomperts, R. E. Stratmann, 
 O. Yazyev, A. J. Austin, R. Cammi, C. Pomelli, J. W. Ochterski, 
 R. L. Martin, K. Morokuma, V. G. Zakrzewski, G. A. Voth, 
 P. Salvador, J. J. Dannenberg, S. Dapprich, A. D. Daniels, 
 O. Farkas, J. B. Foresman, J. V. Ortiz, J. Cioslowski, 
 and D. J. Fox, Gaussian, Inc., Wallingford CT, 2013.
 
 ******************************************
 Gaussian 09:  EM64W-G09RevD.01 13-Apr-2013
                25-Aug-2023 
 ******************************************
 %nprocshared=6
 Will use up to    6 processors via shared memory.
 %mem=6GB
 %chk=D:\machine learning\molecule_46.chk
 --------------------------------------------------------------------
 # opt freq b3lyp/6-31+g(d) geom=connectivity empiricaldispersion=gd3
 --------------------------------------------------------------------
 1/14=-1,18=20,19=15,26=3,38=1,57=2/1,3;
 2/9=110,12=2,17=6,18=5,40=1/2;
 3/5=1,6=6,7=11,11=2,16=1,25=1,30=1,71=1,74=-5,124=31/1,2,3;
 4//1;
 5/5=2,38=5/2;
 6/7=2,8=2,9=2,10=2,28=1/1;
 7//1,2,3,16;
 1/14=-1,18=20,19=15,26=3/3(2);
 2/9=110/2;
 99//99;
 2/9=110/2;
 3/5=1,6=6,7=11,11=2,16=1,25=1,30=1,71=1,74=-5,124=31/1,2,3;
 4/5=5,16=3,69=1/1;
 5/5=2,38=5/2;
 7//1,2,3,16;
 1/14=-1,18=20,19=15,26=3/3(-5);
 2/9=110/2;
 6/7=2,8=2,9=2,10=2,19=2,28=1/1;
 99/9=1/99;
 -------------------
 Title Card Required
 -------------------
 Symbolic Z-matrix:
 Charge =  0 Multiplicity = 1
 C                    -1.66169   1.87809  -2.84008 
 C                    -1.07955   2.01315  -3.8855 
 C                    -2.43172   1.70697  -1.51741 
 C                    -0.33712   2.18542  -5.219 
 C                    -3.06073   1.57398  -0.51003 
 C                    -1.04007   2.40859  -6.40353 
 C                     1.05892   2.1271   -5.2384 
 C                    -3.87907   1.40181   0.78526 
 C                    -0.34512   2.57004  -7.61316 
 H                    -2.10604   2.4565   -6.38395 
 C                     1.75765   2.28854  -6.44162 
 H                     1.59415   1.96017  -4.3274 
 C                    -5.26967   1.2167    0.73103 
 C                    -3.22126   1.43981   2.02207 
 C                     1.05762   2.50708  -7.6358 
 H                    -0.88753   2.7393   -8.51828 
 H                     2.82292   2.24326  -6.44791 
 C                    -6.00281   1.10036   1.92215 
 H                    -5.76757   1.17092  -0.21293 
 C                    -3.95437   1.31498   3.20656 
 H                    -2.15455   1.56796   2.06096 
 O                     1.77102   2.66157  -8.87115 
 C                    -5.34484   1.15456   3.15819 
 H                    -7.06372   0.97144   1.88948 
 H                    -3.45321   1.34541   4.14967 
 C                     1.92265   1.37666  -9.48641 
 H                    -5.90581   1.07005   4.06301 
 H                     0.95541   0.95931  -9.67783 
 H                     2.45371   1.47797  -10.41103 
 H                     2.47125   0.73122  -8.82968 
 

 GradGradGradGradGradGradGradGradGradGradGradGradGradGradGradGradGradGrad
 Berny optimization.
 Initialization pass.
                           ----------------------------
                           !    Initial Parameters    !
                           ! (Angstroms and Degrees)  !
 --------------------------                            --------------------------
 ! Name  Definition              Value          Derivative Info.                !
 --------------------------------------------------------------------------------
 ! R1    R(1,2)                  1.2042         estimate D2E/DX2                !
 ! R2    R(1,3)                  1.54           estimate D2E/DX2                !
 ! R3    R(2,4)                  1.5359         estimate D2E/DX2                !
 ! R4    R(3,5)                  1.1951         estimate D2E/DX2                !
 ! R5    R(4,6)                  1.3954         estimate D2E/DX2                !
 ! R6    R(4,7)                  1.3974         estimate D2E/DX2                !
 ! R7    R(5,8)                  1.5418         estimate D2E/DX2                !
 ! R8    R(6,9)                  1.4044         estimate D2E/DX2                !
 ! R9    R(6,10)                 1.0672         estimate D2E/DX2                !
 ! R10   R(7,11)                 1.4007         estimate D2E/DX2                !
 ! R11   R(7,12)                 1.0697         estimate D2E/DX2                !
 ! R12   R(8,13)                 1.4039         estimate D2E/DX2                !
 ! R13   R(8,14)                 1.4014         estimate D2E/DX2                !
 ! R14   R(9,15)                 1.4043         estimate D2E/DX2                !
 ! R15   R(9,16)                 1.0687         estimate D2E/DX2                !
 ! R16   R(11,15)                1.4014         estimate D2E/DX2                !
 ! R17   R(11,17)                1.0663         estimate D2E/DX2                !
 ! R18   R(13,18)                1.4035         estimate D2E/DX2                !
 ! R19   R(13,19)                1.0682         estimate D2E/DX2                !
 ! R20   R(14,20)                1.3986         estimate D2E/DX2                !
 ! R21   R(14,21)                1.0751         estimate D2E/DX2                !
 ! R22   R(15,22)                1.4349         estimate D2E/DX2                !
 ! R23   R(18,23)                1.4013         estimate D2E/DX2                !
 ! R24   R(18,24)                1.0692         estimate D2E/DX2                !
 ! R25   R(20,23)                1.4005         estimate D2E/DX2                !
 ! R26   R(20,25)                1.0684         estimate D2E/DX2                !
 ! R27   R(22,26)                1.4327         estimate D2E/DX2                !
 ! R28   R(23,27)                1.068          estimate D2E/DX2                !
 ! R29   R(26,28)                1.0707         estimate D2E/DX2                !
 ! R30   R(26,29)                1.0711         estimate D2E/DX2                !
 ! R31   R(26,30)                1.0718         estimate D2E/DX2                !
 ! A1    A(2,4,6)              120.7596         estimate D2E/DX2                !
 ! A2    A(2,4,7)              119.3585         estimate D2E/DX2                !
 ! A3    A(6,4,7)              119.8801         estimate D2E/DX2                !
 ! A4    A(4,6,9)              120.0183         estimate D2E/DX2                !
 ! A5    A(4,6,10)             119.6562         estimate D2E/DX2                !
 ! A6    A(9,6,10)             120.3255         estimate D2E/DX2                !
 ! A7    A(4,7,11)             120.3618         estimate D2E/DX2                !
 ! A8    A(4,7,12)             119.6409         estimate D2E/DX2                !
 ! A9    A(11,7,12)            119.9972         estimate D2E/DX2                !
 ! A10   A(5,8,13)             120.5318         estimate D2E/DX2                !
 ! A11   A(5,8,14)             119.2938         estimate D2E/DX2                !
 ! A12   A(13,8,14)            120.1733         estimate D2E/DX2                !
 ! A13   A(6,9,15)             120.2005         estimate D2E/DX2                !
 ! A14   A(6,9,16)             119.7722         estimate D2E/DX2                !
 ! A15   A(15,9,16)            120.0272         estimate D2E/DX2                !
 ! A16   A(7,11,15)            120.052          estimate D2E/DX2                !
 ! A17   A(7,11,17)            119.9039         estimate D2E/DX2                !
 ! A18   A(15,11,17)           120.044          estimate D2E/DX2                !
 ! A19   A(8,13,18)            119.707          estimate D2E/DX2                !
 ! A20   A(8,13,19)            120.098          estimate D2E/DX2                !
 ! A21   A(18,13,19)           120.1939         estimate D2E/DX2                !
 ! A22   A(8,14,20)            119.9331         estimate D2E/DX2                !
 ! A23   A(8,14,21)            120.0596         estimate D2E/DX2                !
 ! A24   A(20,14,21)           120.007          estimate D2E/DX2                !
 ! A25   A(9,15,11)            119.4862         estimate D2E/DX2                !
 ! A26   A(9,15,22)            120.3762         estimate D2E/DX2                !
 ! A27   A(11,15,22)           120.1374         estimate D2E/DX2                !
 ! A28   A(13,18,23)           120.0072         estimate D2E/DX2                !
 ! A29   A(13,18,24)           120.1579         estimate D2E/DX2                !
 ! A30   A(23,18,24)           119.8349         estimate D2E/DX2                !
 ! A31   A(14,20,23)           120.0922         estimate D2E/DX2                !
 ! A32   A(14,20,25)           119.9446         estimate D2E/DX2                !
 ! A33   A(23,20,25)           119.9629         estimate D2E/DX2                !
 ! A34   A(15,22,26)           109.0137         estimate D2E/DX2                !
 ! A35   A(18,23,20)           120.0702         estimate D2E/DX2                !
 ! A36   A(18,23,27)           119.843          estimate D2E/DX2                !
 ! A37   A(20,23,27)           120.0865         estimate D2E/DX2                !
 ! A38   A(22,26,28)           109.3149         estimate D2E/DX2                !
 ! A39   A(22,26,29)           109.7779         estimate D2E/DX2                !
 ! A40   A(22,26,30)           109.3359         estimate D2E/DX2                !
 ! A41   A(28,26,29)           109.2956         estimate D2E/DX2                !
 ! A42   A(28,26,30)           109.7058         estimate D2E/DX2                !
 ! A43   A(29,26,30)           109.3978         estimate D2E/DX2                !
 ! A44   L(2,1,3,10,-1)        178.9115         estimate D2E/DX2                !
 ! A45   L(1,2,4,12,-1)        180.004          estimate D2E/DX2                !
 ! A46   L(1,3,5,19,-1)        178.2448         estimate D2E/DX2                !
 ! A47   L(3,5,8,21,-1)        180.3021         estimate D2E/DX2                !
 ! A48   L(2,1,3,10,-2)        179.8829         estimate D2E/DX2                !
 ! A49   L(1,2,4,12,-2)        179.9999         estimate D2E/DX2                !
 ! A50   L(1,3,5,19,-2)        180.273          estimate D2E/DX2                !
 ! A51   L(3,5,8,21,-2)        179.9962         estimate D2E/DX2                !
 ! D1    D(6,4,8,13)            12.1167         estimate D2E/DX2                !
 ! D2    D(6,4,8,14)          -167.3181         estimate D2E/DX2                !
 ! D3    D(7,4,8,13)          -168.2075         estimate D2E/DX2                !
 ! D4    D(7,4,8,14)            12.3577         estimate D2E/DX2                !
 ! D5    D(2,4,6,9)            179.7079         estimate D2E/DX2                !
 ! D6    D(2,4,6,10)            -0.2367         estimate D2E/DX2                !
 ! D7    D(7,4,6,9)              0.1971         estimate D2E/DX2                !
 ! D8    D(7,4,6,10)          -179.7475         estimate D2E/DX2                !
 ! D9    D(2,4,7,11)          -179.6601         estimate D2E/DX2                !
 ! D10   D(2,4,7,12)             0.2105         estimate D2E/DX2                !
 ! D11   D(6,4,7,11)            -0.1424         estimate D2E/DX2                !
 ! D12   D(6,4,7,12)           179.7282         estimate D2E/DX2                !
 ! D13   D(4,6,9,15)             0.0289         estimate D2E/DX2                !
 ! D14   D(4,6,9,16)           179.9073         estimate D2E/DX2                !
 ! D15   D(10,6,9,15)          179.9731         estimate D2E/DX2                !
 ! D16   D(10,6,9,16)           -0.1485         estimate D2E/DX2                !
 ! D17   D(4,7,11,15)           -0.1395         estimate D2E/DX2                !
 ! D18   D(4,7,11,17)          179.964          estimate D2E/DX2                !
 ! D19   D(12,7,11,15)         179.9903         estimate D2E/DX2                !
 ! D20   D(12,7,11,17)           0.0938         estimate D2E/DX2                !
 ! D21   D(5,8,13,18)         -178.1676         estimate D2E/DX2                !
 ! D22   D(5,8,13,19)            1.4455         estimate D2E/DX2                !
 ! D23   D(14,8,13,18)           1.4514         estimate D2E/DX2                !
 ! D24   D(14,8,13,19)        -178.9355         estimate D2E/DX2                !
 ! D25   D(5,8,14,20)          178.5743         estimate D2E/DX2                !
 ! D26   D(5,8,14,21)           -1.2272         estimate D2E/DX2                !
 ! D27   D(13,8,14,20)          -1.0494         estimate D2E/DX2                !
 ! D28   D(13,8,14,21)         179.149          estimate D2E/DX2                !
 ! D29   D(6,9,15,11)           -0.3085         estimate D2E/DX2                !
 ! D30   D(6,9,15,22)          179.5333         estimate D2E/DX2                !
 ! D31   D(16,9,15,11)         179.8134         estimate D2E/DX2                !
 ! D32   D(16,9,15,22)          -0.3447         estimate D2E/DX2                !
 ! D33   D(7,11,15,9)            0.3631         estimate D2E/DX2                !
 ! D34   D(7,11,15,22)        -179.4792         estimate D2E/DX2                !
 ! D35   D(17,11,15,9)        -179.7406         estimate D2E/DX2                !
 ! D36   D(17,11,15,22)          0.4172         estimate D2E/DX2                !
 ! D37   D(8,13,18,23)          -0.6924         estimate D2E/DX2                !
 ! D38   D(8,13,18,24)         179.2355         estimate D2E/DX2                !
 ! D39   D(19,13,18,23)        179.6949         estimate D2E/DX2                !
 ! D40   D(19,13,18,24)         -0.3772         estimate D2E/DX2                !
 ! D41   D(8,14,20,23)          -0.1158         estimate D2E/DX2                !
 ! D42   D(8,14,20,25)        -179.9074         estimate D2E/DX2                !
 ! D43   D(21,14,20,23)        179.6859         estimate D2E/DX2                !
 ! D44   D(21,14,20,25)         -0.1057         estimate D2E/DX2                !
 ! D45   D(9,15,22,26)         -89.1647         estimate D2E/DX2                !
 ! D46   D(11,15,22,26)         90.6761         estimate D2E/DX2                !
 ! D47   D(13,18,23,20)         -0.4667         estimate D2E/DX2                !
 ! D48   D(13,18,23,27)        179.7321         estimate D2E/DX2                !
 ! D49   D(24,18,23,20)        179.6051         estimate D2E/DX2                !
 ! D50   D(24,18,23,27)         -0.1961         estimate D2E/DX2                !
 ! D51   D(14,20,23,18)          0.8737         estimate D2E/DX2                !
 ! D52   D(14,20,23,27)       -179.3255         estimate D2E/DX2                !
 ! D53   D(25,20,23,18)       -179.3347         estimate D2E/DX2                !
 ! D54   D(25,20,23,27)          0.466          estimate D2E/DX2                !
 ! D55   D(15,22,26,28)         60.086          estimate D2E/DX2                !
 ! D56   D(15,22,26,29)        179.9624         estimate D2E/DX2                !
 ! D57   D(15,22,26,30)        -60.0229         estimate D2E/DX2                !
 --------------------------------------------------------------------------------
 Trust Radius=3.00D-01 FncErr=1.00D-07 GrdErr=1.00D-06
 Number of steps in this run=    149 maximum allowed number of steps=    180.
 GradGradGradGradGradGradGradGradGradGradGradGradGradGradGradGradGradGrad

                          Input orientation:                          
 ---------------------------------------------------------------------
 Center     Atomic      Atomic             Coordinates (Angstroms)
 Number     Number       Type             X           Y           Z
 ---------------------------------------------------------------------
      1          6           0       -1.661687    1.878092   -2.840084
      2          6           0       -1.079551    2.013146   -3.885502
      3          6           0       -2.431716    1.706966   -1.517411
      4          6           0       -0.337117    2.185421   -5.219005
      5          6           0       -3.060731    1.573985   -0.510032
      6          6           0       -1.040074    2.408592   -6.403528
      7          6           0        1.058924    2.127097   -5.238398
      8          6           0       -3.879074    1.401810    0.785257
      9          6           0       -0.345119    2.570042   -7.613156
     10          1           0       -2.106037    2.456497   -6.383952
     11          6           0        1.757649    2.288538   -6.441623
     12          1           0        1.594147    1.960171   -4.327401
     13          6           0       -5.269665    1.216696    0.731029
     14          6           0       -3.221259    1.439806    2.022073
     15          6           0        1.057618    2.507079   -7.635801
     16          1           0       -0.887528    2.739299   -8.518283
     17          1           0        2.822921    2.243263   -6.447914
     18          6           0       -6.002811    1.100360    1.922146
     19          1           0       -5.767572    1.170917   -0.212927
     20          6           0       -3.954372    1.314981    3.206558
     21          1           0       -2.154545    1.567960    2.060957
     22          8           0        1.771021    2.661565   -8.871149
     23          6           0       -5.344837    1.154556    3.158191
     24          1           0       -7.063723    0.971445    1.889485
     25          1           0       -3.453210    1.345410    4.149671
     26          6           0        1.922654    1.376658   -9.486411
     27          1           0       -5.905806    1.070050    4.063009
     28          1           0        0.955414    0.959307   -9.677832
     29          1           0        2.453706    1.477969  -10.411026
     30          1           0        2.471247    0.731225   -8.829675
 ---------------------------------------------------------------------
                    Distance matrix (angstroms):
                    1          2          3          4          5
     1  C    0.000000
     2  C    1.204168   0.000000
     3  C    1.540030   2.744075   0.000000
     4  C    2.740109   1.535941   4.279960   0.000000
     5  C    2.734766   3.938494   1.195055   5.474152   0.000000
     6  C    3.655949   2.549194   5.128653   1.395367   6.285930
     7  C    3.635331   2.533058   5.119259   1.397394   6.295627
     8  C    4.276301   5.479695   2.736832   7.015031   1.541786
     9  C    4.999436   3.839913   6.500530   2.424863   7.669488
    10  H    3.618149   2.737241   4.934682   2.135336   6.016079
    11  C    4.983112   3.828747   6.491292   2.427648   7.675359
    12  H    3.580405   2.710487   4.916068   2.139037   6.032357
    13  C    5.119355   6.285201   3.653738   7.789182   2.558765
    14  C    5.124933   6.309919   3.636304   7.829906   2.540735
    15  C    5.548796   4.344675   7.088746   2.808852   8.282997
    16  H    5.795079   4.693275   7.243095   3.390423   8.379310
    17  H    5.767279   4.674206   7.225558   3.391078   8.385925
    18  C    6.490690   7.668145   4.995122   9.180058   3.846511
    19  H    4.925479   6.014541   3.621735   7.455191   2.752767
    20  C    6.491177   7.684357   4.978757   9.210445   3.831282
    21  H    4.935514   6.059223   3.591778   7.528755   2.726022
    22  O    6.983627   5.779522   8.523597   4.243715   9.717866
    23  C    7.075903   8.279097   5.536487   9.814140   4.341535
    24  H    7.236907   8.381284   5.796846   9.861621   4.705813
    25  H    7.235329   8.405007   5.769749   9.908972   4.681786
    26  C    7.567866   6.386590   9.087056   4.896062  10.268809
    27  H    8.143596   9.346710   6.604245  10.881641   5.409353
    28  H    7.378901   6.229185   8.867024   4.801576  10.027751
    29  H    8.626455   7.439945  10.149688   5.936857  11.333486
    30  H    7.366930   6.220638   8.857783   4.799848  10.026439
                    6          7          8          9         10
     6  C    0.000000
     7  C    2.417139   0.000000
     8  C    7.794367   7.822678   0.000000
     9  C    1.404361   2.794103   9.186237   0.000000
    10  H    1.067218   3.381978   7.460133   2.150504   0.000000
    11  C    2.800557   1.400726   9.207972   2.423503   3.867765
    12  H    3.383860   1.069693   7.510472   3.863791   4.262289
    13  C    8.379257   8.747223   1.403905   9.783053   7.884707
    14  C    8.757104   8.456168   1.401384  10.118659   8.540413
    15  C    2.434852   2.427330   9.823785   1.404331   3.402704
    16  H    2.145886   3.862785   9.863776   1.068695   2.473885
    17  H    3.866787   2.141988   9.896644   3.391320   4.933983
    18  C    9.780443  10.109187   2.427683  11.184428   9.274439
    19  H    7.886990   8.530573   2.148513   9.280299   7.289795
    20  C   10.101627   9.854437   2.424027  11.474672   9.833478
    21  H    8.578824   7.994973   2.151515   9.892758   8.491664
    22  O    3.749053   3.740270  11.258629   2.463527   4.610832
    23  C   10.560779  10.604560   2.800073  11.959210  10.160579
    24  H   10.350062  10.868285   3.398017  11.747142   9.758780
    25  H   10.877665  10.445392   3.391729  12.228003  10.677388
    26  C    4.398501   4.399410  11.796942   3.174278   5.198235
    27  H   11.619614  11.667946   3.867991  13.019372  11.202655
    28  H    4.099203   4.591626  11.534484   2.923823   4.739589
    29  H    5.397463   5.396561  12.863385   4.105377   6.161663
    30  H    4.585753   4.103705  11.542235   3.576742   5.468972
                   11         12         13         14         15
    11  C    0.000000
    12  H    2.145809   0.000000
    13  C   10.098462   8.558760   0.000000
    14  C    9.856167   7.985909   2.431572   0.000000
    15  C    1.401379   3.395951  10.568984  10.617080   0.000000
    16  H    3.393031   4.932468  10.347522  10.873550   2.148555
    17  H    1.066253   2.467105  10.866509  10.436396   2.144055
    18  C   11.471231   9.874709   1.403495   2.803968  11.965904
    19  H    9.832329   8.470344   1.068204   3.398711  10.171902
    20  C   11.254439   9.378852   2.804978   1.398585  12.004077
    21  H    9.387139   7.417388   3.405300   1.075088  10.258024
    22  O    2.458032   4.600966  11.994195  12.044826   1.434885
    23  C   11.995318  10.238779   2.429121   2.425224  12.622638
    24  H   12.204864  10.704483   2.149607   3.873172  12.611320
    25  H   11.841371   9.885064   3.873396   2.142285  12.672584
    26  C    3.182685   5.202287  12.496044  12.605913   2.334716
    27  H   13.059883  11.288958   3.395331   3.392481  13.690013
    28  H    3.589357   5.480586  12.131044  12.432347   2.564359
    29  H    4.110678   6.162942  13.559650  13.667064   3.272615
    30  H    2.938918   4.748693  12.311152  12.274655   2.564634
                   16         17         18         19         20
    16  H    0.000000
    17  H    4.277839   0.000000
    18  C   11.741158  12.217106   0.000000
    19  H    9.759794  10.668719   2.149152   0.000000
    20  C   12.202708  11.832254   2.427318   3.873154   0.000000
    21  H   10.719034   9.880896   3.879055   4.287442   2.148436
    22  O    2.682990   2.674610  13.392723  11.576580  13.433704
    23  C   12.598375  12.656019   1.401311   3.397559   1.400524
    24  H   12.230794  12.995210   1.069215   2.477888   3.394224
    25  H   13.000104  12.349283   3.394463   4.941557   1.068435
    26  C    3.269737   3.285415  13.894046  12.049042  13.987662
    27  H   13.647652  13.713009   2.143273   4.279358   2.145132
    28  H    2.812358   3.945693  13.527612  11.611535  13.792752
    29  H    4.041939   4.053178  14.958690  13.102859  15.050868
    30  H    3.925646   2.843012  13.694801  11.929787  13.656510
                   21         22         23         24         25
    21  H    0.000000
    22  O   11.666918   0.000000
    23  C    3.398939  14.057436   0.000000
    24  H    4.948258  14.024993   2.144228   0.000000
    25  H    2.469571  14.091366   2.144228   4.275991   0.000000
    26  C   12.247525   1.432665  14.586011  14.502764  14.657545
    27  H    4.281130  15.124781   1.067952   2.464691   2.469526
    28  H   12.159008   2.052714  14.300167  14.075138  14.518433
    29  H   13.296407   2.058685  15.653930  15.560867  15.713788
    30  H   11.861870   2.053839  14.317099  14.348301  14.280751
                   26         27         28         29         30
    26  C    0.000000
    27  H   15.651376   0.000000
    28  H    1.070690  15.359014   0.000000
    29  H    1.071071  16.719615   1.746844   0.000000
    30  H    1.071840  15.378918   1.751897   1.748887   0.000000
 Stoichiometry    C17H12O
 Framework group  C1[X(C17H12O)]
 Deg. of freedom    84
 Full point group                 C1      NOp   1
 Largest Abelian subgroup         C1      NOp   1
 Largest concise Abelian subgroup C1      NOp   1
                         Standard orientation:                         
 ---------------------------------------------------------------------
 Center     Atomic      Atomic             Coordinates (Angstroms)
 Number     Number       Type             X           Y           Z
 ---------------------------------------------------------------------
      1          6           0        0.292157   -0.090622   -0.084423
      2          6           0       -0.911096   -0.066698   -0.124809
      3          6           0        1.831382   -0.091968   -0.034686
      4          6           0       -2.445867   -0.036076   -0.176333
      5          6           0        3.025284   -0.056246    0.003787
      6          6           0       -3.129975    1.166499   -0.357607
      7          6           0       -3.159580   -1.230774   -0.049763
      8          6           0        4.565300   -0.002054    0.053978
      9          6           0       -4.533384    1.175676   -0.408474
     10          1           0       -2.581173    2.076284   -0.457913
     11          6           0       -4.559372   -1.228082   -0.100843
     12          1           0       -2.631099   -2.151030    0.084696
     13          6           0        5.232117    1.227441    0.175000
     14          6           0        5.296488   -1.194569   -0.030572
     15          6           0       -5.252894   -0.023114   -0.276751
     16          1           0       -5.053384    2.099150   -0.545973
     17          1           0       -5.096597   -2.144003   -0.004033
     18          6           0        6.635221    1.260139    0.180229
     19          1           0        4.673304    2.134168    0.256456
     20          6           0        6.694536   -1.158470   -0.016460
     21          1           0        4.783734   -2.136205   -0.109434
     22          8           0       -6.687168   -0.016810   -0.318158
     23          6           0        7.364386    0.067721    0.079587
     24          1           0        7.150477    2.193633    0.259734
     25          1           0        7.252199   -2.067434   -0.082404
     26          6           0       -7.191590    0.175226    1.008948
     27          1           0        8.431964    0.096012    0.079509
     28          1           0       -6.837311    1.110775    1.390539
     29          1           0       -8.262503    0.182590    0.992087
     30          1           0       -6.850936   -0.623625    1.637145
 ---------------------------------------------------------------------
 Rotational constants (GHZ):      2.4705233      0.0880193      0.0857458
 Standard basis: 6-31+G(d) (6D, 7F)
 There are   366 symmetry adapted cartesian basis functions of A   symmetry.
 There are   366 symmetry adapted basis functions of A   symmetry.
   366 basis functions,   624 primitive gaussians,   366 cartesian basis functions
    61 alpha electrons       61 beta electrons
       nuclear repulsion energy       972.3144546833 Hartrees.
 NAtoms=   30 NActive=   30 NUniq=   30 SFac= 1.00D+00 NAtFMM=   60 NAOKFM=F Big=F
 Integral buffers will be    131072 words long.
 Raffenetti 2 integral format.
 Two-electron integral symmetry is turned on.
 Nuclear repulsion after empirical dispersion term =      972.2951667042 Hartrees.
 One-electron integrals computed using PRISM.
 NBasis=   366 RedAO= T EigKep=  1.14D-06  NBF=   366
 NBsUse=   361 1.00D-06 EigRej=  9.25D-07 NBFU=   361
 ExpMin= 4.38D-02 ExpMax= 5.48D+03 ExpMxC= 8.25D+02 IAcc=2 IRadAn=         4 AccDes= 0.00D+00
 Harris functional with IExCor=  402 and IRadAn=       4 diagonalized for initial guess.
 HarFok:  IExCor=  402 AccDes= 0.00D+00 IRadAn=         4 IDoV= 1 UseB2=F ITyADJ=14
 ICtDFT=  3500011 ScaDFX=  1.000000  1.000000  1.000000  1.000000
 FoFCou: FMM=F IPFlag=           0 FMFlag=      100000 FMFlg1=           0
         NFxFlg=           0 DoJE=T BraDBF=F KetDBF=T FulRan=T
         wScrn=  0.000000 ICntrl=     500 IOpCl=  0 I1Cent=   200000004 NGrid=           0
         NMat0=    1 NMatS0=      1 NMatT0=    0 NMatD0=    1 NMtDS0=    0 NMtDT0=    0
 Petite list used in FoFCou.
 Requested convergence on RMS density matrix=1.00D-08 within 128 cycles.
 Requested convergence on MAX density matrix=1.00D-06.
 Requested convergence on             energy=1.00D-06.
 No special actions if energy rises.
 SCF Done:  E(RB3LYP) =  -730.143725363     A.U. after   15 cycles
            NFock= 15  Conv=0.64D-08     -V/T= 2.0103

 **********************************************************************

            Population analysis using the SCF density.

 **********************************************************************

 Orbital symmetries:
       Occupied  (A) (A) (A) (A) (A) (A) (A) (A) (A) (A) (A) (A)
                 (A) (A) (A) (A) (A) (A) (A) (A) (A) (A) (A) (A)
                 (A) (A) (A) (A) (A) (A) (A) (A) (A) (A) (A) (A)
                 (A) (A) (A) (A) (A) (A) (A) (A) (A) (A) (A) (A)
                 (A) (A) (A) (A) (A) (A) (A) (A) (A) (A) (A) (A)
                 (A)
       Virtual   (A) (A) (A) (A) (A) (A) (A) (A) (A) (A) (A) (A)
                 (A) (A) (A) (A) (A) (A) (A) (A) (A) (A) (A) (A)
                 (A) (A) (A) (A) (A) (A) (A) (A) (A) (A) (A) (A)
                 (A) (A) (A) (A) (A) (A) (A) (A) (A) (A) (A) (A)
                 (A) (A) (A) (A) (A) (A) (A) (A) (A) (A) (A) (A)
                 (A) (A) (A) (A) (A) (A) (A) (A) (A) (A) (A) (A)
                 (A) (A) (A) (A) (A) (A) (A) (A) (A) (A) (A) (A)
                 (A) (A) (A) (A) (A) (A) (A) (A) (A) (A) (A) (A)
                 (A) (A) (A) (A) (A) (A) (A) (A) (A) (A) (A) (A)
                 (A) (A) (A) (A) (A) (A) (A) (A) (A) (A) (A) (A)
                 (A) (A) (A) (A) (A) (A) (A) (A) (A) (A) (A) (A)
                 (A) (A) (A) (A) (A) (A) (A) (A) (A) (A) (A) (A)
                 (A) (A) (A) (A) (A) (A) (A) (A) (A) (A) (A) (A)
                 (A) (A) (A) (A) (A) (A) (A) (A) (A) (A) (A) (A)
                 (A) (A) (A) (A) (A) (A) (A) (A) (A) (A) (A) (A)
                 (A) (A) (A) (A) (A) (A) (A) (A) (A) (A) (A) (A)
                 (A) (A) (A) (A) (A) (A) (A) (A) (A) (A) (A) (A)
                 (A) (A) (A) (A) (A) (A) (A) (A) (A) (A) (A) (A)
                 (A) (A) (A) (A) (A) (A) (A) (A) (A) (A) (A) (A)
                 (A) (A) (A) (A) (A) (A) (A) (A) (A) (A) (A) (A)
                 (A) (A) (A) (A) (A) (A) (A) (A) (A) (A) (A) (A)
                 (A) (A) (A) (A) (A) (A) (A) (A) (A) (A) (A) (A)
                 (A) (A) (A) (A) (A) (A) (A) (A) (A) (A) (A) (A)
                 (A) (A) (A) (A) (A) (A) (A) (A) (A) (A) (A) (A)
                 (A) (A) (A) (A) (A) (A) (A) (A) (A) (A) (A) (A)
 The electronic state is 1-A.
 Alpha  occ. eigenvalues --  -19.17956 -10.26419 -10.24189 -10.24109 -10.23574
 Alpha  occ. eigenvalues --  -10.22941 -10.22730 -10.21733 -10.21520 -10.21495
 Alpha  occ. eigenvalues --  -10.21432 -10.21134 -10.21111 -10.21067 -10.20998
 Alpha  occ. eigenvalues --  -10.20867 -10.20797 -10.20746  -1.04906  -0.87582
 Alpha  occ. eigenvalues --   -0.87319  -0.79767  -0.78512  -0.76890  -0.76368
 Alpha  occ. eigenvalues --   -0.75986  -0.73735  -0.70050  -0.63480  -0.63149
 Alpha  occ. eigenvalues --   -0.62437  -0.61732  -0.57536  -0.54866  -0.53577
 Alpha  occ. eigenvalues --   -0.50771  -0.49252  -0.48992  -0.46787  -0.46708
 Alpha  occ. eigenvalues --   -0.46461  -0.45021  -0.44982  -0.44172  -0.44064
 Alpha  occ. eigenvalues --   -0.40738  -0.39066  -0.38824  -0.37764  -0.37204
 Alpha  occ. eigenvalues --   -0.36716  -0.35746  -0.34004  -0.33504  -0.30383
 Alpha  occ. eigenvalues --   -0.28599  -0.27170  -0.27094  -0.26849  -0.26334
 Alpha  occ. eigenvalues --   -0.23521
 Alpha virt. eigenvalues --   -0.05718  -0.02972  -0.02864  -0.02587  -0.00810
 Alpha virt. eigenvalues --    0.00094   0.00393   0.01710   0.02162   0.02374
 Alpha virt. eigenvalues --    0.02694   0.03221   0.03423   0.04418   0.04532
 Alpha virt. eigenvalues --    0.04906   0.05265   0.05388   0.05839   0.06260
 Alpha virt. eigenvalues --    0.06832   0.07660   0.07690   0.08397   0.08552
 Alpha virt. eigenvalues --    0.08897   0.09006   0.09858   0.10066   0.10097
 Alpha virt. eigenvalues --    0.10981   0.11402   0.11956   0.12323   0.13105
 Alpha virt. eigenvalues --    0.13256   0.13362   0.13910   0.14137   0.14194
 Alpha virt. eigenvalues --    0.14367   0.14589   0.14964   0.15017   0.15397
 Alpha virt. eigenvalues --    0.15484   0.16084   0.16156   0.16899   0.17557
 Alpha virt. eigenvalues --    0.17642   0.18525   0.18669   0.19301   0.19555
 Alpha virt. eigenvalues --    0.20046   0.20101   0.20423   0.21002   0.21409
 Alpha virt. eigenvalues --    0.21571   0.22042   0.22108   0.22723   0.23037
 Alpha virt. eigenvalues --    0.23599   0.23650   0.23995   0.24352   0.25145
 Alpha virt. eigenvalues --    0.25713   0.26010   0.26186   0.26752   0.26919
 Alpha virt. eigenvalues --    0.27137   0.27533   0.28010   0.28124   0.28596
 Alpha virt. eigenvalues --    0.29765   0.30080   0.31235   0.32073   0.32414
 Alpha virt. eigenvalues --    0.32653   0.33371   0.33632   0.34135   0.34711
 Alpha virt. eigenvalues --    0.35690   0.36104   0.36831   0.37377   0.38004
 Alpha virt. eigenvalues --    0.38508   0.40844   0.41647   0.42909   0.43710
 Alpha virt. eigenvalues --    0.48204   0.50342   0.56059   0.57686   0.58820
 Alpha virt. eigenvalues --    0.59712   0.63961   0.64301   0.64834   0.65753
 Alpha virt. eigenvalues --    0.67069   0.67745   0.68613   0.69361   0.69876
 Alpha virt. eigenvalues --    0.70297   0.70879   0.71253   0.71400   0.71526
 Alpha virt. eigenvalues --    0.71676   0.72088   0.73347   0.73699   0.73834
 Alpha virt. eigenvalues --    0.74235   0.75113   0.76383   0.76472   0.76807
 Alpha virt. eigenvalues --    0.76914   0.78143   0.79524   0.80207   0.80780
 Alpha virt. eigenvalues --    0.80908   0.82289   0.83107   0.85015   0.85229
 Alpha virt. eigenvalues --    0.85684   0.86268   0.91087   0.91801   0.92594
 Alpha virt. eigenvalues --    0.93209   0.93564   0.94250   0.95598   0.96137
 Alpha virt. eigenvalues --    0.96267   0.96731   0.97965   0.98242   1.00667
 Alpha virt. eigenvalues --    1.01081   1.01348   1.03431   1.04831   1.07324
 Alpha virt. eigenvalues --    1.07850   1.08688   1.10339   1.10981   1.12340
 Alpha virt. eigenvalues --    1.14073   1.15968   1.16339   1.17429   1.18238
 Alpha virt. eigenvalues --    1.19121   1.19913   1.22932   1.23557   1.24475
 Alpha virt. eigenvalues --    1.24989   1.26212   1.27247   1.27458   1.29904
 Alpha virt. eigenvalues --    1.30901   1.31370   1.33567   1.38849   1.39374
 Alpha virt. eigenvalues --    1.41786   1.42474   1.43394   1.43789   1.43873
 Alpha virt. eigenvalues --    1.45189   1.45989   1.46271   1.47793   1.48158
 Alpha virt. eigenvalues --    1.48955   1.49941   1.50858   1.51620   1.51805
 Alpha virt. eigenvalues --    1.56347   1.57209   1.57843   1.59423   1.61958
 Alpha virt. eigenvalues --    1.65210   1.70792   1.78802   1.80272   1.80348
 Alpha virt. eigenvalues --    1.82796   1.83531   1.84613   1.85404   1.85955
 Alpha virt. eigenvalues --    1.87459   1.87615   1.90491   1.91721   1.95758
 Alpha virt. eigenvalues --    1.96800   1.97350   1.97707   1.99345   1.99796
 Alpha virt. eigenvalues --    2.00690   2.01524   2.05034   2.06489   2.07899
 Alpha virt. eigenvalues --    2.09091   2.10722   2.11397   2.11992   2.12475
 Alpha virt. eigenvalues --    2.13483   2.15415   2.16335   2.16880   2.19594
 Alpha virt. eigenvalues --    2.20732   2.23745   2.25844   2.28114   2.28423
 Alpha virt. eigenvalues --    2.28831   2.29148   2.29386   2.31725   2.39088
 Alpha virt. eigenvalues --    2.40412   2.46754   2.49113   2.52259   2.54662
 Alpha virt. eigenvalues --    2.55871   2.58550   2.61610   2.61937   2.62444
 Alpha virt. eigenvalues --    2.62964   2.63530   2.63915   2.66682   2.71511
 Alpha virt. eigenvalues --    2.73066   2.73545   2.75420   2.80141   2.80462
 Alpha virt. eigenvalues --    2.81587   2.85260   2.93325   2.95049   2.96305
 Alpha virt. eigenvalues --    3.07605   3.08727   3.16525   3.21085   3.36831
 Alpha virt. eigenvalues --    3.43631   3.62979   4.06996   4.19580   4.20518
 Alpha virt. eigenvalues --    4.23164   4.23800   4.24895   4.28606   4.32472
 Alpha virt. eigenvalues --    4.33906   4.35339   4.39446   4.39872   4.43097
 Alpha virt. eigenvalues --    4.55545   4.62971   4.75712   4.82474   5.24282
          Condensed to atoms (all electrons):
               1          2          3          4          5          6
     1  C    9.146712  -0.264218  -2.153709   0.672568   0.205823  -0.786105
     2  C   -0.264218   9.996170   0.045289  -2.910208  -0.093673  -1.188373
     3  C   -2.153709   0.045289   8.500596  -1.359782  -0.575135  -0.656074
     4  C    0.672568  -2.910208  -1.359782  13.321938  -0.428474   0.300125
     5  C    0.205823  -0.093673  -0.575135  -0.428474  11.601767  -0.137021
     6  C   -0.786105  -1.188373  -0.656074   0.300125  -0.137021  21.678173
     7  C    0.166927   2.851394   0.690738  -5.158702   0.164664 -11.116797
     8  C   -2.131273  -0.225946   1.335278  -0.285360  -4.821517  -0.079456
     9  C    0.290043   0.285614   0.160716   0.128878   0.030637  -6.489591
    10  H   -0.011529   0.025591   0.000310  -0.026755  -0.000145   0.378363
    11  C   -0.102259  -1.153334  -0.192786   1.883058  -0.039351   3.781449
    12  H   -0.008174   0.042098   0.003158  -0.055937   0.000207   0.012271
    13  C   -0.721513  -0.050777  -0.461122  -0.063709  -1.332435   0.009725
    14  C    0.859807   0.089022  -0.184724   0.058799   4.053063  -0.005870
    15  C   -0.099405  -0.377269  -0.029992  -0.612912  -0.008037   1.116596
    16  H    0.002035  -0.002167   0.000040   0.029934   0.000019  -0.155233
    17  H    0.000976  -0.005662  -0.000088   0.025539   0.000003  -0.001455
    18  C    0.156879   0.004325   0.106075   0.010125   0.146249  -0.001723
    19  H    0.002041   0.000616   0.000919   0.000042   0.024640   0.000008
    20  C   -0.209579  -0.026232  -0.032746  -0.009971  -1.492772   0.000472
    21  H    0.003020   0.000177  -0.003968   0.000017   0.041440   0.000001
    22  O    0.001882   0.005239   0.000183  -0.033616   0.000038   0.052644
    23  C   -0.012828   0.002984   0.050852  -0.000206  -0.194270   0.000042
    24  H   -0.000134  -0.000010  -0.000730  -0.000001  -0.007088   0.000000
    25  H   -0.000059   0.000000  -0.000094   0.000000  -0.005832   0.000000
    26  C    0.000076   0.001157   0.000022   0.019614   0.000005  -0.017447
    27  H    0.000009   0.000002   0.000330   0.000000   0.001021   0.000000
    28  H    0.000101   0.000621   0.000011  -0.002237   0.000001  -0.037614
    29  H    0.000014   0.000114   0.000000   0.001494   0.000000  -0.002629
    30  H   -0.000252  -0.002193  -0.000019  -0.001995  -0.000001   0.032765
               7          8          9         10         11         12
     1  C    0.166927  -2.131273   0.290043  -0.011529  -0.102259  -0.008174
     2  C    2.851394  -0.225946   0.285614   0.025591  -1.153334   0.042098
     3  C    0.690738   1.335278   0.160716   0.000310  -0.192786   0.003158
     4  C   -5.158702  -0.285360   0.128878  -0.026755   1.883058  -0.055937
     5  C    0.164664  -4.821517   0.030637  -0.000145  -0.039351   0.000207
     6  C  -11.116797  -0.079456  -6.489591   0.378363   3.781449   0.012271
     7  C   21.746381   0.070742   3.775162   0.021273  -6.562713   0.382762
     8  C    0.070742  15.768671   0.013234  -0.000033  -0.013426   0.000030
     9  C    3.775162   0.013234  11.085585  -0.091651  -2.947687  -0.011248
    10  H    0.021273  -0.000033  -0.091651   0.516773  -0.013969  -0.000172
    11  C   -6.562713  -0.013426  -2.947687  -0.013969  11.259147  -0.083198
    12  H    0.382762   0.000030  -0.011248  -0.000172  -0.083198   0.516221
    13  C   -0.006827   0.642665  -0.001494   0.000006   0.000550  -0.000001
    14  C    0.005950  -7.013419   0.000815  -0.000001  -0.000347   0.000001
    15  C   -0.343977  -0.001427  -0.820856   0.007158  -0.301469   0.005658
    16  H    0.003150   0.000001   0.391662  -0.004530   0.023248   0.000016
    17  H   -0.138457   0.000000   0.026478   0.000016   0.382049  -0.004664
    18  C    0.001135   0.058174   0.000331   0.000000  -0.000081   0.000000
    19  H   -0.000004  -0.017896  -0.000001   0.000000   0.000000   0.000000
    20  C   -0.000578   2.356673  -0.000085   0.000000  -0.000015   0.000000
    21  H   -0.000002  -0.045853   0.000000   0.000000   0.000000   0.000000
    22  O    0.101479   0.000002  -0.230154  -0.000482  -0.266348  -0.000490
    23  C   -0.000046   0.073167  -0.000007   0.000000   0.000007   0.000000
    24  H    0.000000  -0.000627   0.000000   0.000000   0.000000   0.000000
    25  H    0.000000   0.001372   0.000000   0.000000   0.000000   0.000000
    26  C   -0.057070   0.000000   0.085313  -0.000440   0.102335  -0.000433
    27  H    0.000000  -0.001020   0.000000   0.000000   0.000000   0.000000
    28  H    0.029379   0.000000   0.028212   0.000009  -0.049698  -0.000001
    29  H   -0.000436   0.000000   0.012784   0.000000   0.011582   0.000000
    30  H   -0.049964   0.000000  -0.046828  -0.000001   0.038950   0.000009
              13         14         15         16         17         18
     1  C   -0.721513   0.859807  -0.099405   0.002035   0.000976   0.156879
     2  C   -0.050777   0.089022  -0.377269  -0.002167  -0.005662   0.004325
     3  C   -0.461122  -0.184724  -0.029992   0.000040  -0.000088   0.106075
     4  C   -0.063709   0.058799  -0.612912   0.029934   0.025539   0.010125
     5  C   -1.332435   4.053063  -0.008037   0.000019   0.000003   0.146249
     6  C    0.009725  -0.005870   1.116596  -0.155233  -0.001455  -0.001723
     7  C   -0.006827   0.005950  -0.343977   0.003150  -0.138457   0.001135
     8  C    0.642665  -7.013419  -0.001427   0.000001   0.000000   0.058174
     9  C   -0.001494   0.000815  -0.820856   0.391662   0.026478   0.000331
    10  H    0.000006  -0.000001   0.007158  -0.004530   0.000016   0.000000
    11  C    0.000550  -0.000347  -0.301469   0.023248   0.382049  -0.000081
    12  H   -0.000001   0.000001   0.005658   0.000016  -0.004664   0.000000
    13  C   23.287102 -13.456744  -0.000091   0.000000   0.000000  -5.495532
    14  C  -13.456744  25.548541   0.000077   0.000000   0.000000   3.568188
    15  C   -0.000091   0.000077   7.521508  -0.000731   0.002548   0.000005
    16  H    0.000000   0.000000  -0.000731   0.519310  -0.000153   0.000000
    17  H    0.000000   0.000000   0.002548  -0.000153   0.519604   0.000000
    18  C   -5.495532   3.568188   0.000005   0.000000   0.000000   8.074437
    19  H    0.309367   0.031366   0.000000   0.000000   0.000000  -0.065059
    20  C    4.169267  -7.055807  -0.000001   0.000000   0.000000  -1.513457
    21  H    0.014491   0.336935   0.000000   0.000000   0.000000  -0.003498
    22  O    0.000000   0.000000   0.502095  -0.001840  -0.002201   0.000000
    23  C   -0.451403  -0.303353  -0.000001   0.000000   0.000000   0.631445
    24  H   -0.027371  -0.004519   0.000000   0.000000   0.000000   0.309249
    25  H    0.002123  -0.038821   0.000000   0.000000   0.000000   0.004286
    26  C    0.000000   0.000000  -0.359437   0.001116   0.001162   0.000000
    27  H    0.003671   0.019398   0.000000   0.000000   0.000000  -0.008111
    28  H    0.000000   0.000000   0.033094   0.000190   0.000047   0.000000
    29  H    0.000000   0.000000  -0.021213  -0.000059  -0.000058   0.000000
    30  H    0.000000   0.000000   0.032856   0.000050   0.000139   0.000000
              19         20         21         22         23         24
     1  C    0.002041  -0.209579   0.003020   0.001882  -0.012828  -0.000134
     2  C    0.000616  -0.026232   0.000177   0.005239   0.002984  -0.000010
     3  C    0.000919  -0.032746  -0.003968   0.000183   0.050852  -0.000730
     4  C    0.000042  -0.009971   0.000017  -0.033616  -0.000206  -0.000001
     5  C    0.024640  -1.492772   0.041440   0.000038  -0.194270  -0.007088
     6  C    0.000008   0.000472   0.000001   0.052644   0.000042   0.000000
     7  C   -0.000004  -0.000578  -0.000002   0.101479  -0.000046   0.000000
     8  C   -0.017896   2.356673  -0.045853   0.000002   0.073167  -0.000627
     9  C   -0.000001  -0.000085   0.000000  -0.230154  -0.000007   0.000000
    10  H    0.000000   0.000000   0.000000  -0.000482   0.000000   0.000000
    11  C    0.000000  -0.000015   0.000000  -0.266348   0.000007   0.000000
    12  H    0.000000   0.000000   0.000000  -0.000490   0.000000   0.000000
    13  C    0.309367   4.169267   0.014491   0.000000  -0.451403  -0.027371
    14  C    0.031366  -7.055807   0.336935   0.000000  -0.303353  -0.004519
    15  C    0.000000  -0.000001   0.000000   0.502095  -0.000001   0.000000
    16  H    0.000000   0.000000   0.000000  -0.001840   0.000000   0.000000
    17  H    0.000000   0.000000   0.000000  -0.002201   0.000000   0.000000
    18  C   -0.065059  -1.513457  -0.003498   0.000000   0.631445   0.309249
    19  H    0.524565  -0.008045  -0.000146   0.000000   0.007213  -0.004622
    20  C   -0.008045   8.983724  -0.065544   0.000000   0.580891   0.008023
    21  H   -0.000146  -0.065544   0.522443   0.000000   0.006430   0.000017
    22  O    0.000000   0.000000   0.000000   8.283936   0.000000   0.000000
    23  C    0.007213   0.580891   0.006430   0.000000   5.486356   0.016854
    24  H   -0.004622   0.008023   0.000017   0.000000   0.016854   0.531719
    25  H    0.000017   0.311338  -0.004789   0.000000   0.018777  -0.000171
    26  C    0.000000   0.000000   0.000000   0.121021   0.000000   0.000000
    27  H   -0.000149  -0.013696  -0.000149   0.000000   0.290057  -0.005015
    28  H    0.000000   0.000000   0.000000  -0.052823   0.000000   0.000000
    29  H    0.000000   0.000000   0.000000  -0.041372   0.000000   0.000000
    30  H    0.000000   0.000000   0.000000  -0.053738   0.000000   0.000000
              25         26         27         28         29         30
     1  C   -0.000059   0.000076   0.000009   0.000101   0.000014  -0.000252
     2  C    0.000000   0.001157   0.000002   0.000621   0.000114  -0.002193
     3  C   -0.000094   0.000022   0.000330   0.000011   0.000000  -0.000019
     4  C    0.000000   0.019614   0.000000  -0.002237   0.001494  -0.001995
     5  C   -0.005832   0.000005   0.001021   0.000001   0.000000  -0.000001
     6  C    0.000000  -0.017447   0.000000  -0.037614  -0.002629   0.032765
     7  C    0.000000  -0.057070   0.000000   0.029379  -0.000436  -0.049964
     8  C    0.001372   0.000000  -0.001020   0.000000   0.000000   0.000000
     9  C    0.000000   0.085313   0.000000   0.028212   0.012784  -0.046828
    10  H    0.000000  -0.000440   0.000000   0.000009   0.000000  -0.000001
    11  C    0.000000   0.102335   0.000000  -0.049698   0.011582   0.038950
    12  H    0.000000  -0.000433   0.000000  -0.000001   0.000000   0.000009
    13  C    0.002123   0.000000   0.003671   0.000000   0.000000   0.000000
    14  C   -0.038821   0.000000   0.019398   0.000000   0.000000   0.000000
    15  C    0.000000  -0.359437   0.000000   0.033094  -0.021213   0.032856
    16  H    0.000000   0.001116   0.000000   0.000190  -0.000059   0.000050
    17  H    0.000000   0.001162   0.000000   0.000047  -0.000058   0.000139
    18  C    0.004286   0.000000  -0.008111   0.000000   0.000000   0.000000
    19  H    0.000017   0.000000  -0.000149   0.000000   0.000000   0.000000
    20  C    0.311338   0.000000  -0.013696   0.000000   0.000000   0.000000
    21  H   -0.004789   0.000000  -0.000149   0.000000   0.000000   0.000000
    22  O    0.000000   0.121021   0.000000  -0.052823  -0.041372  -0.053738
    23  C    0.018777   0.000000   0.290057   0.000000   0.000000   0.000000
    24  H   -0.000171   0.000000  -0.005015   0.000000   0.000000   0.000000
    25  H    0.532650   0.000000  -0.005012   0.000000   0.000000   0.000000
    26  C    0.000000   5.277456   0.000000   0.391034   0.389219   0.390579
    27  H   -0.005012   0.000000   0.537132   0.000000   0.000000   0.000000
    28  H    0.000000   0.391034   0.000000   0.538537  -0.030779  -0.046026
    29  H    0.000000   0.389219   0.000000  -0.030779   0.506821  -0.030759
    30  H    0.000000   0.390579   0.000000  -0.046026  -0.030759   0.537078
 Mulliken charges:
               1
     1  C    0.992125
     2  C   -1.050350
     3  C    0.756454
     4  C    0.497734
     5  C   -1.133827
     6  C   -0.687245
     7  C   -0.575563
     8  C    0.317244
     9  C    0.324139
    10  H    0.200208
    11  C    0.244308
    12  H    0.201888
    13  C   -0.369950
    14  C   -0.508356
    15  C   -0.244777
    16  H    0.193944
    17  H    0.194178
    18  C    0.016558
    19  H    0.195126
    20  C    0.018140
    21  H    0.198978
    22  O   -0.385453
    23  C   -0.202960
    24  H    0.184425
    25  H    0.184214
    26  C   -0.345283
    27  H    0.181532
    28  H    0.197943
    29  H    0.205277
    30  H    0.199348
 Sum of Mulliken charges =   0.00000
 Mulliken charges with hydrogens summed into heavy atoms:
               1
     1  C    0.992125
     2  C   -1.050350
     3  C    0.756454
     4  C    0.497734
     5  C   -1.133827
     6  C   -0.487037
     7  C   -0.373674
     8  C    0.317244
     9  C    0.518083
    11  C    0.438486
    13  C   -0.174824
    14  C   -0.309378
    15  C   -0.244777
    18  C    0.200983
    20  C    0.202354
    22  O   -0.385453
    23  C   -0.021428
    26  C    0.257285
 Electronic spatial extent (au):  <R**2>=          11650.9953
 Charge=              0.0000 electrons
 Dipole moment (field-independent basis, Debye):
    X=              0.6292    Y=              0.3014    Z=              1.5050  Tot=              1.6589
 Quadrupole moment (field-independent basis, Debye-Ang):
   XX=            -77.6802   YY=            -94.0865   ZZ=           -111.4050
   XY=             -1.2978   XZ=            -10.7515   YZ=             -0.2704
 Traceless Quadrupole moment (field-independent basis, Debye-Ang):
   XX=             16.7104   YY=              0.3041   ZZ=            -17.0144
   XY=             -1.2978   XZ=            -10.7515   YZ=             -0.2704
 Octapole moment (field-independent basis, Debye-Ang**2):
  XXX=            103.3000  YYY=              0.8785  ZZZ=              2.2567  XYY=             -5.4530
  XXY=             12.4108  XXZ=             84.8703  XZZ=            -29.3704  YZZ=              0.8207
  YYZ=             -0.1149  XYZ=              7.7256
 Hexadecapole moment (field-independent basis, Debye-Ang**3):
 XXXX=         -13480.5312 YYYY=           -578.3837 ZZZZ=           -216.5458 XXXY=            -79.6684
 XXXZ=           -600.6582 YYYX=              3.0875 YYYZ=             -2.2186 ZZZX=            -19.2376
 ZZZY=             -0.1007 XXYY=          -2402.0947 XXZZ=          -2773.7516 YYZZ=           -152.4897
 XXYZ=             16.2859 YYXZ=              4.8247 ZZXY=             -2.5181
 N-N= 9.722951667042D+02 E-N=-3.636190636302D+03  KE= 7.226810671580D+02
 Calling FoFJK, ICntrl=      2127 FMM=F ISym2X=0 I1Cent= 0 IOpClX= 0 NMat=1 NMatS=1 NMatT=0.
 ***** Axes restored to original set *****
 -------------------------------------------------------------------
 Center     Atomic                   Forces (Hartrees/Bohr)
 Number     Number              X              Y              Z
 -------------------------------------------------------------------
      1        6          -0.059508051   -0.013397205    0.103399554
      2        6           0.035460003    0.008549039   -0.066317558
      3        6           0.069824252    0.015785487   -0.120383986
      4        6          -0.025748668   -0.006627607    0.052154766
      5        6          -0.052381532   -0.012270250    0.081537438
      6        6           0.013149743    0.001156967   -0.009092694
      7        6           0.001294835    0.002431903   -0.012455456
      8        6           0.029555225    0.006033001   -0.046714632
      9        6           0.007449646   -0.002564235    0.012248629
     10        1          -0.013235974    0.000891516   -0.000721648
     11        6          -0.015001126    0.000503313   -0.000330564
     12        1           0.006120564   -0.001664263    0.009498544
     13        6           0.002479661    0.001011287    0.013792480
     14        6          -0.006423802   -0.000494241    0.003862705
     15        6           0.006725681    0.004853279   -0.014603045
     16        1          -0.005017084    0.002307935   -0.011359518
     17        1           0.014398688   -0.000195794   -0.001535692
     18        6           0.018371214    0.001990366   -0.001556691
     19        1          -0.005227729    0.000005367   -0.011504601
     20        6          -0.007837676   -0.000485697   -0.014112048
     21        1           0.007475443    0.001196790   -0.000714302
     22        8          -0.016284687   -0.002258882    0.028045274
     23        6           0.006982199    0.000768432   -0.013080819
     24        1          -0.012293861   -0.001641339   -0.001500974
     25        1           0.006662609    0.000553313    0.011304347
     26        6          -0.001370383    0.011109165    0.006325257
     27        1          -0.006992751   -0.001220186    0.011716678
     28        1          -0.016079428   -0.010116202   -0.004638648
     29        1           0.008166799    0.007182215   -0.012477112
     30        1           0.009286190   -0.013393473    0.009214315
 -------------------------------------------------------------------
 Cartesian Forces:  Max     0.120383986 RMS     0.026178170

 GradGradGradGradGradGradGradGradGradGradGradGradGradGradGradGradGradGrad
 Berny optimization.
 FormGI is forming the generalized inverse of G from B-inverse, IUseBI=4.
 GSVD:  received Info=                   1 from GESDD.
 Internal  Forces:  Max     0.101370860 RMS     0.012908428
 Search for a local minimum.
 Step number   1 out of a maximum of  149
 All quantities printed in internal units (Hartrees-Bohrs-Radians)
 Mixed Optimization -- RFO/linear search
 Second derivative matrix not updated -- first step.
 ITU=  0
     Eigenvalues ---    0.00230   0.00230   0.00230   0.00235   0.00236
     Eigenvalues ---    0.00273   0.00290   0.01230   0.01260   0.01600
     Eigenvalues ---    0.01759   0.01905   0.02031   0.02040   0.02045
     Eigenvalues ---    0.02048   0.02057   0.02068   0.02075   0.02077
     Eigenvalues ---    0.02078   0.02086   0.02089   0.02090   0.02097
     Eigenvalues ---    0.02102   0.02127   0.04407   0.04786   0.10313
     Eigenvalues ---    0.10346   0.16000   0.16000   0.16000   0.16000
     Eigenvalues ---    0.16000   0.16000   0.16000   0.16000   0.16000
     Eigenvalues ---    0.16000   0.16000   0.16000   0.21999   0.21999
     Eigenvalues ---    0.22000   0.22980   0.23484   0.24000   0.24999
     Eigenvalues ---    0.24999   0.25000   0.25000   0.28361   0.28516
     Eigenvalues ---    0.28882   0.36594   0.36999   0.37095   0.37143
     Eigenvalues ---    0.37269   0.37330   0.37396   0.37429   0.37458
     Eigenvalues ---    0.37490   0.37584   0.37708   0.40295   0.40609
     Eigenvalues ---    0.41162   0.41260   0.41399   0.41855   0.45041
     Eigenvalues ---    0.45084   0.45298   0.45339   0.45398   0.45686
     Eigenvalues ---    0.45731   0.46145   1.02756   1.07348
 RFO step:  Lambda=-6.13872136D-02 EMin= 2.30000000D-03
 Linear search not attempted -- first point.
 Maximum step size (   0.300) exceeded in Quadratic search.
    -- Step size scaled by   0.725
 Iteration  1 RMS(Cart)=  0.09911714 RMS(Int)=  0.00137652
 Iteration  2 RMS(Cart)=  0.00408475 RMS(Int)=  0.00004309
 Iteration  3 RMS(Cart)=  0.00000143 RMS(Int)=  0.00004308
 Iteration  4 RMS(Cart)=  0.00000000 RMS(Int)=  0.00004308
 Variable       Old X    -DE/DX   Delta X   Delta X   Delta X     New X
                                 (Linear)    (Quad)   (Total)
    R1        2.27555   0.01868   0.00000   0.01243   0.01243   2.28798
    R2        2.91023  -0.10137   0.00000  -0.21198  -0.21198   2.69826
    R3        2.90251  -0.05700   0.00000  -0.11795  -0.11795   2.78456
    R4        2.25833   0.03868   0.00000   0.02470   0.02470   2.28303
    R5        2.63686   0.00577   0.00000   0.00847   0.00846   2.64532
    R6        2.64069   0.00478   0.00000   0.00728   0.00727   2.64796
    R7        2.91355  -0.05900   0.00000  -0.12392  -0.12392   2.78963
    R8        2.65386  -0.00804   0.00000  -0.01155  -0.01156   2.64230
    R9        2.01675   0.01325   0.00000   0.02196   0.02196   2.03871
   R10        2.64699  -0.00546   0.00000  -0.00752  -0.00752   2.63947
   R11        2.02143   0.01141   0.00000   0.01905   0.01905   2.04048
   R12        2.65300  -0.00229   0.00000  -0.00329  -0.00329   2.64971
   R13        2.64823   0.00056   0.00000   0.00096   0.00096   2.64919
   R14        2.65380  -0.00756   0.00000  -0.01140  -0.01138   2.64242
   R15        2.01954   0.01253   0.00000   0.02086   0.02086   2.04040
   R16        2.64822  -0.00479   0.00000  -0.00726  -0.00724   2.64098
   R17        2.01493   0.01440   0.00000   0.02380   0.02380   2.03873
   R18        2.65222  -0.00617   0.00000  -0.00894  -0.00894   2.64328
   R19        2.01861   0.01260   0.00000   0.02095   0.02095   2.03956
   R20        2.64294  -0.00251   0.00000  -0.00330  -0.00329   2.63965
   R21        2.03162   0.00753   0.00000   0.01278   0.01278   2.04440
   R22        2.71154  -0.03169   0.00000  -0.04945  -0.04945   2.66208
   R23        2.64809  -0.00152   0.00000  -0.00231  -0.00231   2.64579
   R24        2.02052   0.01244   0.00000   0.02074   0.02074   2.04127
   R25        2.64661  -0.00104   0.00000  -0.00142  -0.00142   2.64519
   R26        2.01905   0.01312   0.00000   0.02182   0.02182   2.04087
   R27        2.70734   0.00536   0.00000   0.00831   0.00831   2.71565
   R28        2.01814   0.01370   0.00000   0.02275   0.02275   2.04089
   R29        2.02331   0.01930   0.00000   0.03231   0.03231   2.05562
   R30        2.02403   0.01550   0.00000   0.02598   0.02598   2.05001
   R31        2.02548   0.01846   0.00000   0.03102   0.03102   2.05650
    A1        2.10765  -0.00251   0.00000  -0.00702  -0.00700   2.10065
    A2        2.08320   0.00153   0.00000   0.00239   0.00241   2.08561
    A3        2.09230   0.00098   0.00000   0.00463   0.00460   2.09690
    A4        2.09471  -0.00163   0.00000  -0.00309  -0.00311   2.09161
    A5        2.08839   0.00182   0.00000   0.00484   0.00485   2.09325
    A6        2.10008  -0.00019   0.00000  -0.00176  -0.00175   2.09833
    A7        2.10071  -0.00320   0.00000  -0.00638  -0.00639   2.09432
    A8        2.08813   0.00208   0.00000   0.00474   0.00475   2.09287
    A9        2.09435   0.00113   0.00000   0.00163   0.00164   2.09598
   A10        2.10368  -0.00303   0.00000  -0.00720  -0.00720   2.09648
   A11        2.08207   0.00132   0.00000   0.00293   0.00293   2.08500
   A12        2.09742   0.00171   0.00000   0.00427   0.00427   2.10169
   A13        2.09789  -0.00215   0.00000  -0.00663  -0.00661   2.09128
   A14        2.09042   0.00264   0.00000   0.00843   0.00842   2.09884
   A15        2.09487  -0.00049   0.00000  -0.00180  -0.00181   2.09306
   A16        2.09530  -0.00212   0.00000  -0.00579  -0.00577   2.08953
   A17        2.09272   0.00257   0.00000   0.00784   0.00783   2.10054
   A18        2.09516  -0.00045   0.00000  -0.00204  -0.00206   2.09311
   A19        2.08928  -0.00093   0.00000  -0.00279  -0.00279   2.08649
   A20        2.09611  -0.00035   0.00000  -0.00126  -0.00126   2.09484
   A21        2.09778   0.00128   0.00000   0.00407   0.00407   2.10185
   A22        2.09323  -0.00194   0.00000  -0.00419  -0.00419   2.08903
   A23        2.09544  -0.00004   0.00000  -0.00122  -0.00122   2.09422
   A24        2.09452   0.00198   0.00000   0.00541   0.00541   2.09993
   A25        2.08543   0.00812   0.00000   0.01725   0.01727   2.10270
   A26        2.10096  -0.00447   0.00000  -0.00957  -0.00960   2.09136
   A27        2.09679  -0.00365   0.00000  -0.00765  -0.00768   2.08911
   A28        2.09452   0.00130   0.00000   0.00272   0.00272   2.09724
   A29        2.09715  -0.00178   0.00000  -0.00505  -0.00505   2.09210
   A30        2.09151   0.00048   0.00000   0.00234   0.00234   2.09385
   A31        2.09600  -0.00001   0.00000   0.00052   0.00052   2.09653
   A32        2.09343  -0.00059   0.00000  -0.00223  -0.00223   2.09120
   A33        2.09375   0.00061   0.00000   0.00171   0.00171   2.09546
   A34        1.90265   0.01535   0.00000   0.03572   0.03572   1.93837
   A35        2.09562  -0.00010   0.00000  -0.00041  -0.00041   2.09521
   A36        2.09166   0.00027   0.00000   0.00093   0.00093   2.09258
   A37        2.09590  -0.00017   0.00000  -0.00051  -0.00051   2.09539
   A38        1.90790   0.00581   0.00000   0.01990   0.01979   1.92770
   A39        1.91599  -0.01099   0.00000  -0.03762  -0.03756   1.87843
   A40        1.90827   0.00563   0.00000   0.01920   0.01909   1.92736
   A41        1.90757   0.00083   0.00000   0.00118   0.00125   1.90882
   A42        1.91473  -0.00200   0.00000  -0.00323  -0.00349   1.91124
   A43        1.90935   0.00069   0.00000   0.00050   0.00056   1.90991
   A44        3.12260   0.00131   0.00000   0.01494   0.01495   3.13754
   A45        3.14166  -0.00059   0.00000  -0.00665  -0.00665   3.13501
   A46        3.11096   0.00296   0.00000   0.01961   0.01961   3.13057
   A47        3.14686  -0.00111   0.00000  -0.01266  -0.01266   3.13421
   A48        3.13955   0.00004   0.00000   0.00048   0.00048   3.14003
   A49        3.14159  -0.00017   0.00000  -0.00170  -0.00169   3.13990
   A50        3.14636  -0.00016   0.00000  -0.00111  -0.00112   3.14524
   A51        3.14153  -0.00041   0.00000  -0.00444  -0.00442   3.13711
    D1        0.21148   0.00009   0.00000   0.00064   0.00062   0.21209
    D2       -2.92025   0.00005   0.00000   0.00059   0.00060  -2.91965
    D3       -2.93577  -0.00008   0.00000  -0.00095  -0.00096  -2.93673
    D4        0.21568  -0.00012   0.00000  -0.00100  -0.00098   0.21471
    D5        3.13649   0.00014   0.00000   0.00104   0.00104   3.13753
    D6       -0.00413   0.00024   0.00000   0.00202   0.00202  -0.00211
    D7        0.00344   0.00004   0.00000   0.00046   0.00047   0.00391
    D8       -3.13719   0.00015   0.00000   0.00144   0.00146  -3.13573
    D9       -3.13566  -0.00014   0.00000  -0.00117  -0.00116  -3.13682
   D10        0.00367  -0.00019   0.00000  -0.00169  -0.00169   0.00199
   D11       -0.00249  -0.00006   0.00000  -0.00064  -0.00065  -0.00313
   D12        3.13685  -0.00011   0.00000  -0.00116  -0.00117   3.13568
   D13        0.00050   0.00000   0.00000   0.00006   0.00006   0.00057
   D14        3.13997   0.00036   0.00000   0.00323   0.00324  -3.13997
   D15        3.14112  -0.00011   0.00000  -0.00092  -0.00092   3.14020
   D16       -0.00259   0.00025   0.00000   0.00225   0.00226  -0.00034
   D17       -0.00244   0.00005   0.00000   0.00032   0.00031  -0.00212
   D18        3.14096  -0.00029   0.00000  -0.00269  -0.00270   3.13826
   D19        3.14142   0.00011   0.00000   0.00084   0.00083  -3.14093
   D20        0.00164  -0.00024   0.00000  -0.00217  -0.00218  -0.00054
   D21       -3.10961  -0.00070   0.00000  -0.00624  -0.00625  -3.11586
   D22        0.02523  -0.00039   0.00000  -0.00354  -0.00355   0.02168
   D23        0.02533  -0.00062   0.00000  -0.00550  -0.00549   0.01984
   D24       -3.12301  -0.00031   0.00000  -0.00279  -0.00280  -3.12581
   D25        3.11671   0.00052   0.00000   0.00467   0.00467   3.12138
   D26       -0.02142   0.00036   0.00000   0.00334   0.00336  -0.01806
   D27       -0.01832   0.00046   0.00000   0.00397   0.00396  -0.01435
   D28        3.12674   0.00030   0.00000   0.00265   0.00265   3.12939
   D29       -0.00538  -0.00005   0.00000  -0.00046  -0.00048  -0.00586
   D30        3.13345   0.00092   0.00000   0.00824   0.00825  -3.14149
   D31        3.13834  -0.00041   0.00000  -0.00365  -0.00366   3.13468
   D32       -0.00602   0.00056   0.00000   0.00505   0.00507  -0.00095
   D33        0.00634   0.00003   0.00000   0.00029   0.00030   0.00664
   D34       -3.13250  -0.00094   0.00000  -0.00840  -0.00841  -3.14091
   D35       -3.13707   0.00037   0.00000   0.00331   0.00331  -3.13375
   D36        0.00728  -0.00059   0.00000  -0.00537  -0.00540   0.00188
   D37       -0.01208   0.00033   0.00000   0.00288   0.00287  -0.00921
   D38        3.12825   0.00036   0.00000   0.00315   0.00315   3.13140
   D39        3.13627   0.00003   0.00000   0.00019   0.00019   3.13645
   D40       -0.00658   0.00006   0.00000   0.00047   0.00046  -0.00612
   D41       -0.00202   0.00001   0.00000   0.00021   0.00022  -0.00181
   D42       -3.13998  -0.00012   0.00000  -0.00096  -0.00095  -3.14093
   D43        3.13611   0.00016   0.00000   0.00151   0.00152   3.13763
   D44       -0.00184   0.00003   0.00000   0.00035   0.00036  -0.00149
   D45       -1.55622  -0.00048   0.00000  -0.00425  -0.00420  -1.56041
   D46        1.58260   0.00051   0.00000   0.00455   0.00450   1.58710
   D47       -0.00815   0.00016   0.00000   0.00134   0.00134  -0.00681
   D48        3.13692   0.00002   0.00000   0.00018   0.00018   3.13710
   D49        3.13470   0.00013   0.00000   0.00108   0.00107   3.13577
   D50       -0.00342  -0.00001   0.00000  -0.00008  -0.00008  -0.00351
   D51        0.01525  -0.00033   0.00000  -0.00289  -0.00289   0.01236
   D52       -3.12982  -0.00019   0.00000  -0.00173  -0.00173  -3.13155
   D53       -3.12998  -0.00021   0.00000  -0.00174  -0.00173  -3.13171
   D54        0.00813  -0.00007   0.00000  -0.00057  -0.00057   0.00756
   D55        1.04870   0.00221   0.00000   0.00975   0.01001   1.05871
   D56        3.14094   0.00010   0.00000   0.00048   0.00047   3.14141
   D57       -1.04760  -0.00230   0.00000  -0.01010  -0.01036  -1.05796
         Item               Value     Threshold  Converged?
 Maximum Force            0.101371     0.000450     NO 
 RMS     Force            0.012908     0.000300     NO 
 Maximum Displacement     0.309374     0.001800     NO 
 RMS     Displacement     0.102505     0.001200     NO 
 Predicted change in Energy=-3.115084D-02
 GradGradGradGradGradGradGradGradGradGradGradGradGradGradGradGradGradGrad

                          Input orientation:                          
 ---------------------------------------------------------------------
 Center     Atomic      Atomic             Coordinates (Angstroms)
 Number     Number       Type             X           Y           Z
 ---------------------------------------------------------------------
      1          6           0       -1.759439    1.870839   -2.847539
      2          6           0       -1.156625    2.007420   -3.888627
      3          6           0       -2.475421    1.709164   -1.622792
      4          6           0       -0.414694    2.170511   -5.151249
      5          6           0       -3.092923    1.573777   -0.593263
      6          6           0       -1.100041    2.401353   -6.349819
      7          6           0        0.984863    2.102388   -5.142825
      8          6           0       -3.838855    1.414532    0.670627
      9          6           0       -0.384879    2.559368   -7.540897
     10          1           0       -2.177358    2.458564   -6.351533
     11          6           0        1.698885    2.261225   -6.332719
     12          1           0        1.509982    1.929617   -4.215294
     13          6           0       -5.229187    1.234039    0.649139
     14          6           0       -3.146788    1.452470    1.889194
     15          6           0        1.011411    2.485285   -7.528678
     16          1           0       -0.906614    2.739187   -8.468952
     17          1           0        2.776652    2.212905   -6.332362
     18          6           0       -5.928072    1.115391    1.854965
     19          1           0       -5.753721    1.191202   -0.293142
     20          6           0       -3.850888    1.326616    3.089014
     21          1           0       -2.072600    1.580744    1.897244
     22          8           0        1.732024    2.644592   -8.728600
     23          6           0       -5.241285    1.165573    3.074006
     24          1           0       -7.000397    0.985669    1.844709
     25          1           0       -3.319826    1.356183    4.028940
     26          6           0        1.916018    1.383092   -9.391858
     27          1           0       -5.785703    1.077684    4.002588
     28          1           0        0.953939    0.941084   -9.641493
     29          1           0        2.473668    1.569538  -10.303503
     30          1           0        2.476742    0.698893   -8.758014
 ---------------------------------------------------------------------
                    Distance matrix (angstroms):
                    1          2          3          4          5
     1  C    0.000000
     2  C    1.210745   0.000000
     3  C    1.427857   2.638596   0.000000
     4  C    2.684254   1.473524   4.112109   0.000000
     5  C    2.635941   3.846650   1.208126   5.320172   0.000000
     6  C    3.603084   2.493161   4.971476   1.399842   6.147714
     7  C    3.585128   2.483546   4.951648   1.401240   6.132396
     8  C    4.112138   5.322844   2.684312   6.796368   1.476208
     9  C    4.938734   3.773502   6.333812   2.421264   7.521603
    10  H    3.577436   2.703948   4.797023   2.151892   5.897353
    11  C    4.925331   3.767219   6.317674   2.423080   7.508352
    12  H    3.544477   2.687667   4.759527   2.153700   5.867918
    13  C    4.967034   6.146154   3.601478   7.596106   2.494516
    14  C    4.953424   6.136117   3.584783   7.586023   2.486003
    15  C    5.474323   4.263649   6.902162   2.790166   8.110264
    16  H    5.751663   4.645145   7.098733   3.401842   8.256186
    17  H    5.730368   4.635162   7.072345   3.403163   8.233933
    18  C    6.329435   7.520058   4.936412   8.977619   3.773859
    19  H    4.789691   5.892963   3.575403   7.284604   2.704863
    20  C    6.317674   7.510661   4.923350   8.967805   3.767594
    21  H    4.763947   5.873446   3.545336   7.264828   2.691418
    22  O    6.883015   5.672356   8.310844   4.198881   9.518953
    23  C    6.905458   8.116120   5.477719   9.589614   4.269772
    24  H    7.090018   8.250139   5.746513   9.680845   4.643052
    25  H    7.070053   8.233555   5.725356   9.663271   4.632883
    26  C    7.521635   6.333756   8.930254   4.902552  10.126259
    27  H    7.985245   9.195871   6.557563  10.669336   5.349675
    28  H    7.374597   6.219889   8.755000   4.852519   9.932163
    29  H    8.579124   7.383861   9.993384   5.937131  11.192663
    30  H    7.365623   6.214864   8.743910   4.851270   9.922185
                    6          7          8          9         10
     6  C    0.000000
     7  C    2.427558   0.000000
     8  C    7.600104   7.585355   0.000000
     9  C    1.398246   2.799246   8.981632   0.000000
    10  H    1.078837   3.404039   7.291179   2.153539   0.000000
    11  C    2.802483   1.396748   8.968294   2.427068   3.881309
    12  H    3.404549   1.079775   7.262753   3.879011   4.294156
    13  C    8.209622   8.539045   1.402164   9.607315   7.734503
    14  C    8.542300   8.181822   1.401892   9.888376   8.358325
    15  C    2.419707   2.416529   9.586458   1.398308   3.399211
    16  H    2.154593   3.878959   9.689409   1.079735   2.485358
    17  H    3.881309   2.153537   9.666653   3.402333   4.960134
    18  C    9.606355   9.885944   2.420118  11.004285   9.122422
    19  H    7.733340   8.352137   2.155329   9.122845   7.148474
    20  C    9.890085   9.578595   2.420015  11.248462   9.654322
    21  H    8.344658   7.693033   2.156819   9.637666   8.296014
    22  O    3.706529   3.702705  10.995145   2.428823   4.579119
    23  C   10.367523  10.351755   2.793747  11.755999   9.995011
    24  H   10.196502  10.669445   3.399668  11.590134   9.623383
    25  H   10.664824  10.159156   3.398686  11.996779  10.501176
    26  C    4.403120   4.408936  11.591943   3.178649   5.211137
    27  H   11.440274  11.424936   3.873713  12.830290  11.051462
    28  H    4.145641   4.646246  11.381338   2.970485   4.788696
    29  H    5.393972   5.397506  12.661102   4.096712   6.167697
    30  H    4.635855   4.155129  11.370936   3.623757   5.527047
                   11         12         13         14         15
    11  C    0.000000
    12  H    2.151543   0.000000
    13  C    9.889370   8.340440   0.000000
    14  C    9.577812   7.692720   2.433482   0.000000
    15  C    1.397548   3.396447  10.362788  10.346673   0.000000
    16  H    3.403023   4.958725  10.202436  10.675449   2.151139
    17  H    1.078849   2.483281  10.667380  10.161663   2.149752
    18  C   11.248181   9.635126   1.398761   2.801845  11.750991
    19  H    9.652087   8.287938   1.079289   3.409832   9.989727
    20  C   10.974631   9.080498   2.803795   1.396841  11.735410
    21  H    9.078515   7.093640   3.412039   1.081849   9.958781
    22  O    2.426586   4.574979  11.763933  11.745702   1.408714
    23  C   11.741076   9.964801   2.425863   2.423429  12.379610
    24  H   12.007284  10.490053   2.151339   3.882033  12.421686
    25  H   11.548617   9.572005   3.883766   2.148890  12.394072
    26  C    3.190078   5.221147  12.324682  12.365231   2.346185
    27  H   12.815553  11.022086   3.402907   3.401584  13.459279
    28  H    3.639465   5.543467  12.008913  12.248846   2.617603
    29  H    4.104369   6.174515  13.394286  13.426283   3.267483
    30  H    2.987976   4.804750  12.172192  12.064618   2.617185
                   16         17         18         19         20
    16  H    0.000000
    17  H    4.290505   0.000000
    18  C   11.594612  12.000378   0.000000
    19  H    9.629880  10.501586   2.156504   0.000000
    20  C   12.010441  11.553014   2.425322   3.883052   0.000000
    21  H   10.495691   9.572946   3.883684   4.301184   2.155738
    22  O    2.653069   2.649445  13.153987  11.371266  13.136285
    23  C   12.430025  12.404192   1.400091   3.406014   1.399772
    24  H   12.107049  12.804736   1.080191   2.483314   3.403519
    25  H   12.803657  12.052287   3.403982   4.963009   1.079983
    26  C    3.264659   3.284782  13.714680  11.901611  13.748911
    27  H   13.494644  13.468996   2.152667   4.297349   2.154087
    28  H    2.840718   3.986246  13.400038  11.508559  13.612524
    29  H    4.019945   4.034312  14.785933  12.963040  14.812783
    30  H    3.961496   2.875059  13.544361  11.816808  13.445632
                   21         22         23         24         25
    21  H    0.000000
    22  O   11.336468   0.000000
    23  C    3.405539  13.788258   0.000000
    24  H    4.963874  13.813112   2.153604   0.000000
    25  H    2.479946  13.781729   2.154121   4.295898   0.000000
    26  C   11.974638   1.437062  14.376093  14.349942  14.405993
    27  H    4.297985  14.867904   1.079991   2.477981   2.481694
    28  H   11.946194   2.083441  14.146205  13.971624  14.328927
    29  H   13.020250   2.045995  15.448023  15.416804  15.460564
    30  H   11.619325   2.083558  14.134441  14.223788  14.054837
                   26         27         28         29         30
    26  C    0.000000
    27  H   15.453833   0.000000
    28  H    1.087789  15.218488   0.000000
    29  H    1.084819  16.526445   1.772791   0.000000
    30  H    1.088254  15.206724   1.777110   1.773856   0.000000
 Stoichiometry    C17H12O
 Framework group  C1[X(C17H12O)]
 Deg. of freedom    84
 Full point group                 C1      NOp   1
 Largest Abelian subgroup         C1      NOp   1
 Largest concise Abelian subgroup C1      NOp   1
                         Standard orientation:                         
 ---------------------------------------------------------------------
[...]
 00296,-0.00165951,0.00628963,0.00309417,-0.00042890,0.00006542,0.00079
 255,-0.00003354,-0.00001609,0.00005691,0.00000152,-0.00000239,-0.00000
 297,0.00000172,0.00000286,-0.00000263,0.05930569,-0.24651670,-0.117226
 58,0.00030584,0.00084097,-0.00018749,-0.00231986,-0.00362563,0.0033034
 0,0.00008936,0.00001799,-0.00007582,0.00004712,0.00000012,-0.00008183,
 0.00883511,-0.01832832,-0.01679355,-0.06347612,0.25988600,-0.00001979,
 0.00009560,0.00001010,0.00001268,0.00000383,-0.00000809,0.00006977,-0.
 00002075,-0.00031969,-0.00001800,-0.00000982,0.00002884,0.00039680,-0.
 00103065,-0.00023203,0.00000452,0.00002823,-0.00000729,0.00000698,-0.0
 0003287,-0.00001517,0.00520777,0.00170736,-0.00171020,0.00001274,0.000
 02158,-0.00002623,-0.00000265,0.00000483,0.00000742,0.00001503,-0.0000
 1035,-0.00002508,-0.00000271,-0.00000434,0.00000640,0.00650852,-0.0239
 2150,-0.00978061,-0.00001589,0.00080092,-0.00056930,-0.00004038,-0.000
 02030,0.00006828,0.00000403,-0.00000302,-0.00000598,0.00000428,0.00000
 335,-0.00000618,0.04768549,-0.11719917,-0.12730226,-0.00205629,0.00042
 711,-0.00057215,0.00323858,0.00232468,0.00142483,-0.00053019,-0.000070
 44,-0.00022044,0.00005496,0.00000132,-0.00009614,-0.00332733,0.0103792
 4,0.00964403,-0.05509891,0.12613364,0.12967885,-0.00001427,0.00006403,
 -0.00001150,0.00000278,-0.00000305,0.00001353,-0.00025173,-0.00004859,
 0.00006350,0.00000953,0.00000030,-0.00001710,0.00033057,-0.00064007,0.
 00032568,-0.00000380,-0.00001828,0.00000337,-0.00000561,0.00001363,0.0
 0000793,0.00412009,0.00025394,0.00536254,-0.00000711,-0.00000897,0.000
 01487,0.00000365,-0.00000126,-0.00000272,-0.00001021,0.00000648,0.0000
 1028,0.00000354,0.00000356,-0.00000198,-0.00068824,0.00039750,0.000086
 08,-0.00022977,-0.01527486,0.00479235,0.00002089,0.00000863,-0.0000354
 0,-0.00000136,0.00000156,0.00000466,-0.00000100,-0.00000192,0.00000334
 ,0.00480159,0.00133877,0.00370237,-0.00082182,-0.00000914,-0.00054141,
 -0.05772759,-0.06010838,0.03260683,-0.00297010,0.00032434,-0.00205341,
 -0.00003003,0.00000216,0.00004997,0.00544610,0.00839183,-0.00338187,0.
 00027016,0.00045345,-0.00008012,0.05045255,-0.00003018,-0.00000933,0.0
 0005358,0.00002151,0.00000265,-0.00003737,0.00003638,-0.00000411,-0.00
 004961,0.00000217,0.00000229,-0.00000414,-0.00004833,-0.00008012,0.000
 04304,0.00000400,-0.00002318,-0.00000968,0.00000222,0.00002250,-0.0000
 0181,0.00002460,0.00203594,-0.00039914,-0.00001643,-0.00002982,0.00002
 753,0.00000266,-0.00000103,-0.00000477,-0.00001426,0.00002257,0.000027
 03,0.00000223,0.00000342,-0.00000426,0.00039504,0.00037440,-0.00061350
 ,0.00030884,0.00125595,-0.00066246,0.00004209,0.00001874,-0.00007206,-
 0.00000275,0.00000332,0.00000515,-0.00000229,-0.00000306,0.00000309,0.
 00189912,-0.00228175,-0.00392188,-0.00001175,-0.00001856,0.00009697,-0
 .06012424,-0.29060799,0.08687452,-0.00003094,0.00084909,0.00039683,-0.
 00005861,0.00000236,0.00010224,-0.00727551,-0.01850315,0.01113442,-0.0
 0038837,-0.00103652,0.00058858,0.06489231,0.30730594,-0.00001871,-0.00
 011216,0.00000146,0.00001549,0.00000421,-0.00001560,0.00006965,0.00010
 089,-0.00032733,-0.00001708,0.00000089,0.00002910,0.00036648,0.0010667
 3,-0.00001999,0.00000512,0.00002932,-0.00000761,0.00000716,-0.00002264
 ,-0.00001613,0.00534752,-0.00079479,-0.00212339,0.00001411,0.00001361,
 -0.00002277,-0.00000233,0.00000240,0.00000649,0.00000887,-0.00001017,-
 0.00002107,-0.00000193,-0.00000555,0.00000593,0.00008607,-0.00061935,-
 0.00084591,0.00585883,0.02636194,-0.00522003,-0.00003304,-0.00001332,0
 .00005717,0.00000417,-0.00000177,-0.00000602,0.00000373,0.00000276,-0.
 00000439,0.00374062,-0.00294930,0.00019549,-0.00054197,0.00009269,-0.0
 0018834,0.03260617,0.08684769,-0.08715257,-0.00207779,-0.00021969,-0.0
 0057899,0.00004534,-0.00000353,-0.00008121,-0.00445463,-0.01603638,0.0
 0979169,-0.00013795,-0.00087116,0.00038510,-0.03889866,-0.09324172,0.0
 8653605,0.00013276,-0.00000053,-0.00042685,-0.00054449,0.00001009,0.00
 044807,-0.00000286,0.00001427,0.00022506,0.00062568,0.00020391,-0.0005
 7861,0.00004602,0.00000301,-0.00017655,0.00006277,0.00095488,0.0005544
 3,0.00081252,0.00059485,0.00145644,-0.00009155,-0.00001722,0.00017441,
 -0.00036278,0.00037153,-0.00165109,0.00012412,0.00004521,-0.00017613,0
 .00213800,-0.00268756,0.00134678,-0.00029702,-0.00007240,-0.00004497,0
 .00003198,0.00002453,-0.00006244,0.00003880,-0.00001444,-0.00006603,-0
 .01541032,0.01577321,0.01816553,-0.00067138,0.00040938,0.00097307,-0.0
 0049104,0.00023312,-0.00025788,-0.00000735,0.00002865,0.00001319,-0.00
 000388,0.00000413,0.00001294,-0.00001116,-0.00002756,0.00000588,-0.000
 00207,-0.00000596,0.00001275,-0.07481775,0.01877247,0.02701671,0.00003
 804,0.00000674,-0.00006686,0.00000884,-0.00001185,-0.00001202,0.000009
 13,0.00001420,-0.00001059,0.57601672,-0.00044337,-0.00009862,0.0007699
 9,0.00066175,-0.00003847,-0.00113078,0.00017918,0.00011561,-0.00031131
 ,-0.00089858,0.00039694,0.00156724,-0.00018403,-0.00008445,0.00031651,
 0.00071159,-0.00137749,-0.00135444,0.00012959,0.00016683,-0.00032764,0
 .00023249,0.00004830,-0.00039916,-0.00471477,0.00132777,0.00836563,-0.
 00021502,-0.00013552,0.00036199,-0.00276440,0.00102048,0.00465536,-0.0
 0017382,0.00006210,0.00032880,-0.00008779,-0.00007185,0.00014698,-0.00
 009529,0.00005154,0.00016747,0.00536326,0.00782142,-0.00836612,-0.0008
 2313,-0.00085724,0.00137701,0.00004835,0.00010241,-0.00003062,0.000018
 55,-0.00007357,-0.00003632,0.00001502,-0.00001330,-0.00002748,0.000016
 46,0.00007762,-0.00002263,0.00001586,0.00001337,-0.00002644,0.03415112
 ,-0.17716300,-0.06746769,-0.00009847,-0.00001765,0.00016932,-0.0000175
 2,0.00002734,0.00003183,-0.00001892,-0.00003761,0.00003031,0.04076864,
 0.51106180,-0.00045574,0.00000433,0.00067894,0.00049284,-0.00000345,-0
 .00114211,0.00023489,-0.00001890,-0.00028377,-0.00065687,-0.00034430,0
 .00139928,-0.00018790,-0.00001722,0.00026872,0.00053750,-0.00177881,-0
 .00071349,0.00142279,-0.00113213,-0.00091994,0.00019207,0.00003634,-0.
 00031929,-0.00200771,-0.00045639,0.00212114,-0.00019487,-0.00009169,0.
 00035259,0.00134054,0.00452308,0.00101314,-0.00005144,0.00015104,-0.00
 021962,-0.00007135,-0.00004741,0.00011605,-0.00007327,0.00002816,0.000
 12907,0.01743580,-0.02642662,-0.03768119,0.00088718,-0.00076321,-0.001
 71970,-0.00027053,-0.00035140,-0.00020372,0.00001513,-0.00005410,-0.00
 003042,0.00001333,-0.00000901,-0.00002101,0.00001088,0.00005575,-0.000
 02109,0.00001389,0.00001180,-0.00001800,0.02809411,-0.04078574,-0.1116
 0857,-0.00007545,-0.00001396,0.00012890,-0.00001268,0.00002210,0.00002
 545,-0.00001268,-0.00002792,0.00002253,0.00299967,-0.07528617,0.565618
 35,0.00007053,-0.00000142,0.00003110,-0.00000622,-0.00000220,-0.000006
 53,-0.00006258,0.00000283,0.00000494,0.00000451,0.00000130,-0.00000775
 ,-0.00065091,0.00002444,-0.00044505,-0.00000079,-0.00001035,-0.0000022
 8,-0.00000170,0.00001113,0.00000146,-0.00050944,0.00008274,-0.00071582
 ,-0.00000785,-0.00001092,0.00001142,0.00000266,-0.00000152,-0.00000204
 ,-0.00000710,0.00000871,0.00001079,0.00000244,0.00000224,-0.00000172,0
 .00543792,-0.00166806,0.00254291,0.00534703,0.00147620,0.00291059,0.00
 002207,0.00000885,-0.00003335,-0.00000046,0.00000115,0.00000258,-0.000
 00071,-0.00000187,0.00000227,-0.00019328,0.00062786,0.00597242,-0.0000
 4669,0.00007453,0.00032849,-0.00062670,-0.00202556,0.00654186,-0.00006
 573,-0.00014575,0.00034879,-0.00002890,0.00000097,0.00004827,-0.112036
 33,-0.01358533,0.13076560,-0.00270427,-0.00008380,-0.00201927,-0.00270
 623,0.00035776,-0.00198594,0.00000819,-0.00001696,-0.00001310,0.108762
 21,-0.00000180,-0.00001450,-0.00000443,0.00000029,-0.00000082,0.000000
 10,-0.00000198,0.00004006,0.00001087,0.00000084,0.00000122,-0.00000123
 ,0.00002949,0.00017252,0.00002226,0.00000006,-0.00000427,0.00000015,0.
 00000025,0.00000033,-0.00000033,0.00008099,-0.00119696,-0.00015858,-0.
 00000165,-0.00000062,0.00000246,-0.00000008,0.00000028,0.00000003,-0.0
 0000073,0.00000263,0.00000170,0.00000045,0.00000118,-0.00000089,-0.001
 12610,-0.00521480,0.00111787,0.00093238,-0.00425335,-0.00238496,0.0000
 0372,0.00000166,-0.00000643,-0.00000031,0.00000011,0.00000048,-0.00000
 021,-0.00000042,0.00000018,-0.01502068,0.00239878,0.02599280,-0.000750
 38,-0.00000936,0.00129120,0.01362231,0.00720117,-0.02335188,0.00067961
 ,0.00021401,-0.00117362,-0.00000513,0.00000036,0.00000913,-0.01358820,
 -0.06264629,0.02174698,0.00030525,0.00070325,-0.00021628,-0.00002613,0
 .00072247,0.00035941,0.00000135,-0.00000322,-0.00000249,0.01486672,0.0
 6188353,0.00003255,-0.00000492,0.00003540,-0.00000630,0.00000531,0.000
 00087,0.00000308,0.00000079,-0.00006931,-0.00000772,-0.00000153,0.0000
 1293,-0.00044440,0.00003307,-0.00013253,-0.00000237,0.00001804,0.00000
 181,0.00000069,-0.00001954,-0.00000402,-0.00071593,-0.00016257,0.00030
 439,0.00001270,0.00001806,-0.00001998,-0.00000192,0.00000241,0.0000051
 3,0.00000937,-0.00001469,-0.00001987,-0.00000140,-0.00000410,0.0000044
 4,0.00258144,0.00205873,0.00263717,0.00287236,-0.00332844,0.00175469,-
 0.00003366,-0.00001516,0.00005955,0.00000235,-0.00000194,-0.00000348,0
 .00000290,0.00000322,-0.00000299,0.00490044,-0.00114534,-0.00535166,0.
 00027169,-0.00013965,-0.00034167,0.00761324,0.00378468,-0.00971762,0.0
 0040547,0.00025791,-0.00054391,0.00004744,-0.00000168,-0.00008455,0.13
 076585,0.02174234,-0.26138501,-0.00199312,0.00045816,-0.00037853,-0.00
 201199,-0.00030652,-0.00039652,-0.00001215,0.00002915,0.00002385,-0.14
 429256,-0.02325504,0.27361544,0.00003367,0.00002873,-0.00003511,0.0000
 1823,0.00001600,0.00013081,-0.00002377,-0.00002493,0.00000808,0.000009
 14,-0.00042064,-0.00017531,0.00001398,0.00001374,-0.00001343,-0.000547
 39,0.00055920,0.00036301,0.00001739,0.00028490,-0.00026597,-0.00001419
 ,-0.00000424,0.00002283,0.00027823,-0.00134666,-0.00047296,0.00003924,
 0.00000010,-0.00001283,-0.00049896,0.00028439,-0.00009527,0.00003716,0
 .00000576,0.00000275,0.00000835,0.00000395,-0.00000746,0.00000460,-0.0
 0000368,-0.00001249,0.00167283,0.00030482,0.00019479,0.00016168,0.0004
 7378,0.00103064,0.00004114,0.00000951,0.00005443,-0.00000366,0.0000058
 6,0.00000307,-0.00000111,0.00000087,0.00000095,0.00000030,-0.00000693,
 0.00000445,-0.00000195,-0.00000023,0.00000072,0.01591348,0.00756327,0.
 00496662,0.00000732,0.00000140,-0.00001142,0.00000033,-0.00000156,-0.0
 0000186,0.00000059,0.00000243,-0.00000190,-0.22304195,-0.10531053,-0.0
 6155628,0.00000051,0.00000013,-0.00000164,0.23144534,0.00009220,0.0000
 0178,-0.00018354,-0.00014694,0.00001244,0.00024443,-0.00003616,-0.0000
 0818,0.00007960,0.00019146,0.00022763,-0.00037907,0.00003965,0.0000129
 0,-0.00006821,-0.00009124,0.00007533,0.00000835,-0.00004552,-0.0001099
 3,0.00050890,-0.00004625,-0.00001101,0.00007923,0.00068449,0.00063400,
 -0.00032158,0.00004593,0.00002634,-0.00004345,0.00095335,-0.00051238,-
 0.00089189,-0.00001287,-0.00001468,-0.00006505,0.00001749,0.00001323,-
 0.00003144,0.00002059,-0.00000810,-0.00003231,-0.00335204,-0.00068027,
 0.00481291,-0.00007543,0.00024614,0.00051272,-0.00019274,0.00014281,-0
 .00000684,-0.00000361,0.00001397,0.00000990,-0.00000348,0.00000294,0.0
 0000481,-0.00000367,-0.00001577,0.00000540,-0.00000373,-0.00000277,0.0
 0000457,-0.01350610,-0.02598160,-0.02052272,0.00001945,0.00000363,-0.0
 0003361,0.00000304,-0.00000545,-0.00000663,0.00000322,0.00000741,-0.00
 000556,-0.10188865,-0.11343492,-0.03503924,0.00000292,0.00000053,-0.00
 000560,0.11414852,0.13236814,0.00000394,0.00000513,-0.00005235,-0.0001
 1290,0.00004997,0.00004131,0.00000650,-0.00001038,0.00002854,0.0000437
 9,0.00080238,0.00000013,0.00000652,0.00000458,-0.00001659,0.00069588,0
 .00001354,-0.00034636,-0.00028991,-0.00045746,0.00086685,-0.00000608,-
 0.00000147,0.00001039,-0.00001668,0.00025753,-0.00018573,-0.00001633,-
 0.00000315,-0.00004103,0.00112394,-0.00052857,-0.00111144,-0.00003047,
 -0.00000010,-0.00003551,-0.00000029,-0.00000078,-0.00000436,0.00000472
 ,-0.00000031,-0.00000305,-0.00410301,-0.00167871,0.00378374,-0.0003630
 2,0.00074670,-0.00207182,-0.00015272,0.00015585,0.00001323,0.00000115,
 0.00000249,0.00000333,-0.00000051,0.00000022,-0.00000014,-0.00000226,-
 0.00000233,0.00000097,-0.00000037,0.00000056,0.00000014,-0.00949962,-0
 .01942940,-0.01288933,0.00000263,0.00000041,-0.00000490,0.,-0.00000041
 ,-0.00000030,0.00000031,0.00000079,-0.00000060,-0.05796334,-0.03358867
 ,-0.07389270,0.00000007,0.00000006,-0.00000038,0.06526799,0.04861784,0
 .07930678,-0.00004342,-0.00000587,0.00004057,0.00003730,-0.00000100,-0
 .00007019,0.00001691,0.00000836,-0.00001767,-0.00007177,-0.00000191,0.
 00000838,-0.00001260,-0.00000623,0.00001854,0.00015370,-0.00005844,0.0
 0005671,0.00001333,0.00018924,0.00000134,0.00001781,0.00000364,-0.0000
 2868,0.00027113,0.00008982,0.00009438,0.00001282,-0.00000784,0.0000307
 8,-0.00011346,-0.00020627,0.00057220,-0.00005865,-0.00000389,0.0000254
 4,-0.00000839,-0.00000629,0.00001026,-0.00000717,0.00000366,0.00001305
 ,0.00089844,0.00169587,-0.00043012,-0.00032171,0.00002851,-0.00024580,
 0.00001869,0.00001418,0.00000220,0.00000251,-0.00000456,-0.00000163,0.
 00000151,-0.00000052,-0.00000242,0.00000149,0.00000507,-0.00000224,0.0
 0000146,0.00000137,-0.00000197,-0.00627895,0.00006572,0.01188477,-0.00
 000765,-0.00000128,0.00001154,-0.00000125,0.00000231,0.00000277,-0.000
 00108,-0.00000261,0.00000212,-0.11136163,-0.05365509,0.09715565,-0.000
 00137,-0.00000033,0.00000275,-0.01041199,-0.01125258,0.02038646,0.1152
 4212,0.00000395,-0.00000256,-0.00000528,-0.00001923,0.00004930,0.00003
 689,-0.00000241,-0.00000215,0.00000330,-0.00003759,0.00016397,0.000081
 37,0.00000227,0.00000133,-0.00000405,0.00008935,0.00047795,-0.00013468
 ,-0.00009329,-0.00049608,0.00012665,0.00000092,-0.00000040,-0.00000090
 ,-0.00010172,-0.00127969,0.00006408,0.00002818,-0.00000411,-0.00005126
 ,0.00075464,0.00051597,-0.00128902,0.00006407,0.00002376,-0.00010628,-
 0.00000031,-0.00000079,0.00000072,-0.00000049,-0.00000054,0.00000030,0
 .00103977,-0.00400851,-0.00212586,-0.00017845,0.00078290,0.00039700,-0
 .00002590,-0.00001822,0.00004246,-0.00000080,0.00000103,0.00000144,0.0
 0000019,0.00000003,-0.00000053,0.00000017,-0.00000039,0.00000007,0.000
 00022,0.00000062,-0.00000052,0.01934692,0.00658173,-0.03314694,0.00000
 030,0.00000008,-0.00000057,-0.00000023,0.00000033,0.00000032,-0.000000
 08,-0.00000024,0.00000003,-0.06037574,-0.09994306,0.10148040,-0.000000
 40,-0.00000009,0.00000075,-0.00574667,-0.00507826,0.01293084,0.0548785
 3,0.10798126,0.00004117,0.00001160,-0.00009118,-0.00007178,0.00000395,
 0.00012178,-0.00001846,-0.00001222,0.00003826,0.00000559,0.00001964,-0
 .00007503,0.00002078,0.00000761,-0.00003641,0.00006706,0.00012098,0.00
 008077,-0.00001850,-0.00036299,0.00001349,-0.00003019,-0.00000529,0.00
 005110,0.00008143,-0.00026691,0.00016274,0.00003314,0.00001085,-0.0000
 2602,0.00063987,0.00037811,-0.00085857,0.00002997,0.00001148,-0.000095
 61,0.00001022,0.00001058,-0.00001952,0.00001266,-0.00000619,-0.0000211
 4,-0.00047683,-0.00326406,0.00117949,-0.00026030,0.00003766,-0.0000103
 8,-0.00000093,-0.00002726,0.00001836,-0.00000107,0.00000791,0.00000362
 ,-0.00000204,0.00000096,0.00000451,-0.00000224,-0.00000816,0.00000263,
 -0.00000193,-0.00000241,0.00000375,0.01323646,0.00030732,-0.02237500,0
 .00001152,0.00000214,-0.00002043,0.00000277,-0.00000397,-0.00000441,0.
 00000244,0.00000446,-0.00000361,0.09668501,0.08981970,-0.21466039,0.00
 000266,0.00000056,-0.00000454,-0.00489936,-0.00351063,0.01060663,-0.11
 263951,-0.09102276,0.23716602,-0.00003896,-0.00001891,0.00003915,0.000
 03201,-0.00004619,-0.00011505,0.00002038,0.00001595,-0.00001568,-0.000
 06789,-0.00046777,0.00004171,-0.00001218,-0.00000406,0.00001984,0.0000
 4707,-0.00030096,0.00033785,0.00040203,0.00023844,-0.00049259,0.000010
 11,0.00000042,-0.00001681,-0.00025581,0.00049361,0.00027818,-0.0000321
 0,0.00000622,0.00002191,-0.00047565,0.00027582,0.00106309,-0.00002589,
 -0.00000203,0.00000675,-0.00000301,-0.00000016,0.00000376,-0.00000308,
 0.00000159,0.00000623,0.00148223,0.00129923,-0.00366696,-0.00129566,-0
 .00080494,0.00042847,-0.00002413,-0.00012581,-0.00011052,0.00000136,-0
 .00000438,-0.00000027,-0.00000008,-0.00000005,-0.00000076,0.00000142,0
 .00000309,-0.00000077,-0.00000038,-0.00000071,-0.00000125,-0.00543778,
 0.01163811,0.00460159,-0.00000408,-0.00000037,0.00000716,-0.00000046,0
 .00000093,0.00000048,-0.00000120,-0.00000127,0.00000106,-0.15297634,0.
 08720586,-0.08520640,-0.00000081,-0.00000016,0.00000088,-0.01515853,0.
 01443871,-0.01498638,0.01201186,-0.00962620,0.00754037,0.16180558,0.00
 011508,0.00000357,-0.00017532,-0.00014382,0.00001194,0.00025821,-0.000
 05175,-0.00000378,0.00007190,0.00025235,0.00022605,-0.00035290,0.00004
 310,0.00000704,-0.00007308,0.00004013,0.00010265,0.00009926,-0.0004305
 5,-0.00009179,0.00030569,-0.00004879,-0.00000858,0.00008262,-0.0000070
 7,0.00059090,-0.00076305,0.00001719,0.00002730,-0.00006304,0.00029767,
 -0.00048534,-0.00131746,0.00006191,-0.00001703,-0.00002350,0.00001915,
 0.00001297,-0.00002932,0.00001752,-0.00000799,-0.00003292,-0.00262645,
 -0.00074995,0.00538360,-0.00037615,0.00031150,0.00032947,0.00010892,0.
 00013585,0.00017240,-0.00000484,0.00001408,0.00000626,-0.00000258,0.00
 000239,0.00000586,-0.00000353,-0.00001438,0.00000391,-0.00000240,-0.00
 000293,0.00000544,0.02265265,-0.02757249,-0.00016517,0.00001973,0.0000
 0344,-0.00003363,0.00000394,-0.00000569,-0.00000629,0.00000394,0.00000
 740,-0.00000578,0.08686774,-0.12894357,0.07633715,0.00000378,0.0000006
 4,-0.00000591,-0.01084128,0.01207412,-0.00788716,0.00822842,-0.0057452
 0,0.00773734,-0.10421401,0.15011688,0.00001140,-0.00002507,0.00002016,
 0.00011248,0.00000629,0.00002437,-0.00001752,0.00001394,-0.00001599,-0
 .00008239,0.00077849,0.00007755,0.00000016,-0.00000404,0.00001034,-0.0
 0001662,-0.00043940,-0.00096874,-0.00053755,-0.00046583,0.00046509,0.0
 0000691,0.00000064,-0.00001320,-0.00007058,0.00130732,0.00039294,0.000
 02993,-0.00000269,0.00002909,-0.00010770,-0.00048307,-0.00116176,0.000
 04272,-0.00000878,0.00003012,0.00000079,-0.00000295,0.00000612,-0.0000
 0527,0.00000285,0.00000326,0.00009954,-0.00128035,0.00404366,0.0018125
 7,-0.00011118,-0.00067934,0.00009890,0.00006600,0.00008494,-0.00000254
 ,-0.00000339,-0.00000167,0.00000041,-0.00000064,-0.00000078,0.00000265
 ,0.00000297,0.00000169,-0.00000024,0.00000023,-0.00000152,0.01836459,-
 0.01870484,0.01005278,-0.00000279,-0.00000041,0.00000597,-0.00000076,0
 .00000099,0.00000080,-0.00000122,-0.00000141,0.00000106,-0.08858442,0.
 08023817,-0.12844297,-0.00000082,-0.00000007,0.00000089,-0.00448789,0.
 00625872,-0.00400545,-0.01687970,0.01272206,-0.01115091,0.09021495,-0.
 07986457,0.13119150||-0.00000129,-0.00000069,-0.00000056,0.00000036,0.
 00000061,-0.00000050,0.00000258,0.00000083,0.00000189,-0.00000111,-0.0
 0000338,0.00000021,-0.00000043,-0.00000096,0.00000144,-0.00000071,0.00
 000110,0.00000097,0.00000151,0.00000243,-0.00000180,-0.00000168,0.0000
 0080,-0.00000335,0.00000022,0.00000164,-0.00000141,0.00000023,-0.00000
 011,0.00000004,-0.00000157,0.00000140,0.00000383,-0.00000023,-0.000000
 29,0.00000033,-0.00000077,0.00000041,0.00000125,0.00000101,-0.00000026
 ,-0.00000013,0.00000113,-0.00000296,-0.00000217,-0.00000025,0.00000003
 ,0.00000089,0.00000024,0.00000003,-0.00000078,0.00000034,-0.00000023,-
 0.00000092,0.00000050,-0.00000006,-0.00000001,0.00000031,0.00000046,0.
 00000053,0.00000007,-0.00000011,0.00000005,-0.00000097,0.00000264,0.00
 000311,-0.00000052,-0.00000122,-0.00000016,0.00000013,-0.00000014,0.00
 000011,0.,-0.00000029,-0.00000015,0.00000038,-0.00000321,-0.00000322,0
 .00000010,0.,0.00000005,0.00000040,0.00000043,0.00000013,0.00000004,0.
 00000032,0.00000025,-0.00000002,0.00000076,0.00000007|||@


 UNLESS WE CHANGE DIRECTIONS, WE WILL WIND UP WHERE WE ARE HEADED.
     -- CONFUCIUS
 Job cpu time:       0 days  0 hours 32 minutes  9.0 seconds.
 File lengths (MBytes):  RWF=    404 Int=      0 D2E=      0 Chk=     12 Scr=      1
 Normal termination of Gaussian 09 at Fri Aug 25 20:58:15 2023.
