 Entering Gaussian System, Link 0=C:\G09W\g09.exe
 Input=D:\machine learning\molecule_49.gjf
 Output=D:\machine learning\molecule_49.log
 Initial command:
 C:/G09W\l1.exe ".\Gau-4180.inp" "D:\machine learning\molecule_49.log" /scrdir=".\"
 Entering Link 1 = C:/G09W\l1.exe PID=      3112.
  
 Copyright (c) 1988,1990,1992,1993,1995,1998,2003,2009,2013,
            Gaussian, Inc.  All Rights Reserved.
  
 This is part of the Gaussian(R) 09 program.  It is based on
 the Gaussian(R) 03 system (copyright 2003, Gaussian, Inc.),
 the Gaussian(R) 98 system (copyright 1998, Gaussian, Inc.),
 the Gaussian(R) 94 system (copyright 1995, Gaussian, Inc.),
 the Gaussian 92(TM) system (copyright 1992, Gaussian, Inc.),
 the Gaussian 90(TM) system (copyright 1990, Gaussian, Inc.),
 the Gaussian 88(TM) system (copyright 1988, Gaussian, Inc.),
 the Gaussian 86(TM) system (copyright 1986, Carnegie Mellon
 University), and the Gaussian 82(TM) system (copyright 1983,
 Carnegie Mellon University). Gaussian is a federally registered
 trademark of Gaussian, Inc.
  
 This software contains proprietary and confidential information,
 including trade secrets, belonging to Gaussian, Inc.
  
 This software is provided under written license and may be
 used, copied, transmitted, or stored only in accord with that
 written license.
  
 The following legend is applicable only to US Government
 contracts under FAR:
  
                    RESTRICTED RIGHTS LEGEND
  
 Use, reproduction and disclosure by the US Government is
 subject to restrictions as set forth in subparagraphs (a)
 and (c) of the Commercial Computer Software - Restricted
 Rights clause in FAR 52.227-19.
  
 Gaussian, Inc.
 340 Quinnipiac St., Bldg. 40, Wallingford CT 06492
  
  
 ---------------------------------------------------------------
 Warning -- This program may not be used in any manner that
 competes with the business of Gaussian, Inc. or will provide
 assistance to any competitor of Gaussian, Inc.  The licensee
 of this program is prohibited from giving any competitor of
 Gaussian, Inc. access to this program.  By using this program,
 the user acknowledges that Gaussian, Inc. is engaged in the
 business of creating and licensing software in the field of
 computational chemistry and represents and warrants to the
 licensee that it is not a competitor of Gaussian, Inc. and that
 it will not use this program in any manner prohibited above.
 ---------------------------------------------------------------
  

 Cite this work as:
 Gaussian 09, Revision D.01,
 M. J. Frisch, G. W. Trucks, H. B. Schlegel, G. E. Scuseria, 
 M. A. Robb, J. R. Cheeseman, G. Scalmani, V. Barone, B. Mennucci, 
 G. A. Petersson, H. Nakatsuji, M. Caricato, X. Li, H. P. Hratchian, 
 A. F. Izmaylov, J. Bloino, G. Zheng, J. L. Sonnenberg, M. Hada, 
 M. Ehara, K. Toyota, R. Fukuda, J. Hasegawa, M. Ishida, T. Nakajima, 
 Y. Honda, O. Kitao, H. Nakai, T. Vreven, J. A. Montgomery, Jr., 
 J. E. Peralta, F. Ogliaro, M. Bearpark, J. J. Heyd, E. Brothers, 
 K. N. Kudin, V. N. Staroverov, T. Keith, R. Kobayashi, J. Normand, 
 K. Raghavachari, A. Rendell, J. C. Burant, S. S. Iyengar, J. Tomasi, 
 M. Cossi, N. Rega, J. M. Millam, M. Klene, J. E. Knox, J. B. Cross, 
 V. Bakken, C. Adamo, J. Jaramillo, R. Gomperts, R. E. Stratmann, 
 O. Yazyev, A. J. Austin, R. Cammi, C. Pomelli, J. W. Ochterski, 
 R. L. Martin, K. Morokuma, V. G. Zakrzewski, G. A. Voth, 
 P. Salvador, J. J. Dannenberg, S. Dapprich, A. D. Daniels, 
 O. Farkas, J. B. Foresman, J. V. Ortiz, J. Cioslowski, 
 and D. J. Fox, Gaussian, Inc., Wallingford CT, 2013.
 
 ******************************************
 Gaussian 09:  EM64W-G09RevD.01 13-Apr-2013
                26-Aug-2023 
 ******************************************
 %nprocshared=6
 Will use up to    6 processors via shared memory.
 %mem=6GB
 %chk=D:\machine learning\molecule_49.chk
 --------------------------------------------------------------------
 # opt freq b3lyp/6-31+g(d) geom=connectivity empiricaldispersion=gd3
 --------------------------------------------------------------------
 1/14=-1,18=20,19=15,26=3,38=1,57=2/1,3;
 2/9=110,12=2,17=6,18=5,40=1/2;
 3/5=1,6=6,7=11,11=2,16=1,25=1,30=1,71=1,74=-5,124=31/1,2,3;
 4//1;
 5/5=2,38=5/2;
 6/7=2,8=2,9=2,10=2,28=1/1;
 7//1,2,3,16;
 1/14=-1,18=20,19=15,26=3/3(2);
 2/9=110/2;
 99//99;
 2/9=110/2;
 3/5=1,6=6,7=11,11=2,16=1,25=1,30=1,71=1,74=-5,124=31/1,2,3;
 4/5=5,16=3,69=1/1;
 5/5=2,38=5/2;
 7//1,2,3,16;
 1/14=-1,18=20,19=15,26=3/3(-5);
 2/9=110/2;
 6/7=2,8=2,9=2,10=2,19=2,28=1/1;
 99/9=1/99;
 -------------------
 Title Card Required
 -------------------
 Symbolic Z-matrix:
 Charge =  0 Multiplicity = 1
 C                    -5.37458   1.98575   2.45777 
 C                    -4.2574    1.06039   0.51533 
 C                    -4.67097  -0.22638   0.88993 
 C                    -5.42333  -0.40857   2.06212 
 C                    -5.78312   0.69886   2.8411 
 H                    -5.65084   2.83314   3.04652 
 H                    -4.41455  -1.06712   0.28005 
 H                    -5.72232  -1.39067   2.3614 
 C                    -3.42983   1.27702  -0.77327 
 C                    -2.78845   1.43526  -1.77187 
 C                    -1.95818   1.63352  -3.06548 
 C                    -1.31249   1.78625  -4.07126 
 C                    -0.49654   1.97871  -5.34217 
 C                     0.20315   0.8915   -5.88024 
 C                     0.93707   1.05087  -7.06238 
 H                     0.17479  -0.06154  -5.38821 
 C                     0.3088    3.38558  -7.14818 
 C                     0.98866   2.29148  -7.7011 
 H                     1.45828   0.21996  -7.48167 
 H                     0.35847   4.3367   -7.62658 
 C                    -4.59993   2.16291   1.30339 
 H                    -4.26855   3.14241   1.02079 
 H                     1.5483    2.39869  -8.60988 
 H                    -6.36914   0.56189   3.72669 
 C                    -0.4373    3.22714  -5.97016 
 H                    -0.95589   4.06005  -5.55322 
 

 GradGradGradGradGradGradGradGradGradGradGradGradGradGradGradGradGradGrad
 Berny optimization.
 Initialization pass.
                           ----------------------------
                           !    Initial Parameters    !
                           ! (Angstroms and Degrees)  !
 --------------------------                            --------------------------
 ! Name  Definition              Value          Derivative Info.                !
 --------------------------------------------------------------------------------
 ! R1    R(1,5)                  1.4035         estimate D2E/DX2                !
 ! R2    R(1,6)                  1.0682         estimate D2E/DX2                !
 ! R3    R(1,21)                 1.4014         estimate D2E/DX2                !
 ! R4    R(2,3)                  1.4026         estimate D2E/DX2                !
 ! R5    R(2,9)                  1.5467         estimate D2E/DX2                !
 ! R6    R(2,21)                 1.3978         estimate D2E/DX2                !
 ! R7    R(3,4)                  1.4047         estimate D2E/DX2                !
 ! R8    R(3,7)                  1.0698         estimate D2E/DX2                !
 ! R9    R(4,5)                  1.4009         estimate D2E/DX2                !
 ! R10   R(4,8)                  1.0693         estimate D2E/DX2                !
 ! R11   R(5,24)                 1.0707         estimate D2E/DX2                !
 ! R12   R(9,10)                 1.1973         estimate D2E/DX2                !
 ! R13   R(10,11)                1.5499         estimate D2E/DX2                !
 ! R14   R(11,12)                1.2049         estimate D2E/DX2                !
 ! R15   R(12,13)                1.5225         estimate D2E/DX2                !
 ! R16   R(13,14)                1.4004         estimate D2E/DX2                !
 ! R17   R(13,25)                1.3987         estimate D2E/DX2                !
 ! R18   R(14,15)                1.4005         estimate D2E/DX2                !
 ! R19   R(14,16)                1.0729         estimate D2E/DX2                !
 ! R20   R(15,18)                1.3963         estimate D2E/DX2                !
 ! R21   R(15,19)                1.0667         estimate D2E/DX2                !
 ! R22   R(17,18)                1.4018         estimate D2E/DX2                !
 ! R23   R(17,20)                1.0658         estimate D2E/DX2                !
 ! R24   R(17,25)                1.4034         estimate D2E/DX2                !
 ! R25   R(18,23)                1.0726         estimate D2E/DX2                !
 ! R26   R(21,22)                1.072          estimate D2E/DX2                !
 ! R27   R(25,26)                1.0661         estimate D2E/DX2                !
 ! A1    A(5,1,6)              120.1024         estimate D2E/DX2                !
 ! A2    A(5,1,21)             120.1173         estimate D2E/DX2                !
 ! A3    A(6,1,21)             119.7801         estimate D2E/DX2                !
 ! A4    A(3,2,9)              120.5829         estimate D2E/DX2                !
 ! A5    A(3,2,21)             120.0528         estimate D2E/DX2                !
 ! A6    A(9,2,21)             119.3629         estimate D2E/DX2                !
 ! A7    A(2,3,4)              119.9859         estimate D2E/DX2                !
 ! A8    A(2,3,7)              119.8717         estimate D2E/DX2                !
 ! A9    A(4,3,7)              120.1422         estimate D2E/DX2                !
 ! A10   A(3,4,5)              119.935          estimate D2E/DX2                !
 ! A11   A(3,4,8)              120.1594         estimate D2E/DX2                !
 ! A12   A(5,4,8)              119.9056         estimate D2E/DX2                !
 ! A13   A(1,5,4)              119.8789         estimate D2E/DX2                !
 ! A14   A(1,5,24)             120.1657         estimate D2E/DX2                !
 ! A15   A(4,5,24)             119.9554         estimate D2E/DX2                !
 ! A16   A(12,13,14)           119.3638         estimate D2E/DX2                !
 ! A17   A(12,13,25)           120.6839         estimate D2E/DX2                !
 ! A18   A(14,13,25)           119.9519         estimate D2E/DX2                !
 ! A19   A(13,14,15)           119.8537         estimate D2E/DX2                !
 ! A20   A(13,14,16)           120.0133         estimate D2E/DX2                !
 ! A21   A(15,14,16)           120.1329         estimate D2E/DX2                !
 ! A22   A(14,15,18)           120.4353         estimate D2E/DX2                !
 ! A23   A(14,15,19)           119.946          estimate D2E/DX2                !
 ! A24   A(18,15,19)           119.6183         estimate D2E/DX2                !
 ! A25   A(18,17,20)           119.7926         estimate D2E/DX2                !
 ! A26   A(18,17,25)           120.055          estimate D2E/DX2                !
 ! A27   A(20,17,25)           120.1522         estimate D2E/DX2                !
 ! A28   A(15,18,17)           119.6773         estimate D2E/DX2                !
 ! A29   A(15,18,23)           119.7111         estimate D2E/DX2                !
 ! A30   A(17,18,23)           120.6116         estimate D2E/DX2                !
 ! A31   A(1,21,2)             120.0083         estimate D2E/DX2                !
 ! A32   A(1,21,22)            120.2346         estimate D2E/DX2                !
 ! A33   A(2,21,22)            119.7571         estimate D2E/DX2                !
 ! A34   A(13,25,17)           120.0097         estimate D2E/DX2                !
 ! A35   A(13,25,26)           120.0755         estimate D2E/DX2                !
 ! A36   A(17,25,26)           119.9144         estimate D2E/DX2                !
 ! A37   L(2,9,10,22,-1)       180.4536         estimate D2E/DX2                !
 ! A38   L(9,10,11,7,-1)       179.7552         estimate D2E/DX2                !
 ! A39   L(10,11,12,16,-1)     179.9331         estimate D2E/DX2                !
 ! A40   L(11,12,13,16,-1)     179.9806         estimate D2E/DX2                !
 ! A41   L(2,9,10,22,-2)       179.9246         estimate D2E/DX2                !
 ! A42   L(9,10,11,7,-2)       180.0188         estimate D2E/DX2                !
 ! A43   L(10,11,12,16,-2)     179.9817         estimate D2E/DX2                !
 ! A44   L(11,12,13,16,-2)     179.996          estimate D2E/DX2                !
 ! D1    D(6,1,5,4)            179.707          estimate D2E/DX2                !
 ! D2    D(6,1,5,24)            -0.2623         estimate D2E/DX2                !
 ! D3    D(21,1,5,4)            -0.4629         estimate D2E/DX2                !
 ! D4    D(21,1,5,24)          179.5677         estimate D2E/DX2                !
 ! D5    D(5,1,21,2)             1.4024         estimate D2E/DX2                !
 ! D6    D(5,1,21,22)         -178.6384         estimate D2E/DX2                !
 ! D7    D(6,1,21,2)          -178.767          estimate D2E/DX2                !
 ! D8    D(6,1,21,22)            1.1922         estimate D2E/DX2                !
 ! D9    D(9,2,3,4)           -179.9341         estimate D2E/DX2                !
 ! D10   D(9,2,3,7)             -0.0997         estimate D2E/DX2                !
 ! D11   D(21,2,3,4)            -0.3745         estimate D2E/DX2                !
 ! D12   D(21,2,3,7)           179.4599         estimate D2E/DX2                !
 ! D13   D(3,2,13,14)          -20.9905         estimate D2E/DX2                !
 ! D14   D(3,2,13,25)          159.1509         estimate D2E/DX2                !
 ! D15   D(21,2,13,14)         159.3821         estimate D2E/DX2                !
 ! D16   D(21,2,13,25)         -20.4765         estimate D2E/DX2                !
 ! D17   D(3,2,21,1)            -0.9815         estimate D2E/DX2                !
 ! D18   D(3,2,21,22)          179.0592         estimate D2E/DX2                !
 ! D19   D(9,2,21,1)           178.5834         estimate D2E/DX2                !
 ! D20   D(9,2,21,22)           -1.3759         estimate D2E/DX2                !
 ! D21   D(2,3,4,5)              1.3121         estimate D2E/DX2                !
 ! D22   D(2,3,4,8)           -178.6947         estimate D2E/DX2                !
 ! D23   D(7,3,4,5)           -178.5218         estimate D2E/DX2                !
 ! D24   D(7,3,4,8)              1.4714         estimate D2E/DX2                !
 ! D25   D(3,4,5,1)             -0.8923         estimate D2E/DX2                !
 ! D26   D(3,4,5,24)           179.0772         estimate D2E/DX2                !
 ! D27   D(8,4,5,1)            179.1146         estimate D2E/DX2                !
 ! D28   D(8,4,5,24)            -0.916          estimate D2E/DX2                !
 ! D29   D(12,13,14,15)        178.8315         estimate D2E/DX2                !
 ! D30   D(12,13,14,16)         -1.0483         estimate D2E/DX2                !
 ! D31   D(25,13,14,15)         -1.3808         estimate D2E/DX2                !
 ! D32   D(25,13,14,16)        178.7395         estimate D2E/DX2                !
 ! D33   D(12,13,25,17)       -179.3899         estimate D2E/DX2                !
 ! D34   D(12,13,25,26)          0.8115         estimate D2E/DX2                !
 ! D35   D(14,13,25,17)          0.8252         estimate D2E/DX2                !
 ! D36   D(14,13,25,26)       -178.9734         estimate D2E/DX2                !
 ! D37   D(13,14,15,18)          0.7293         estimate D2E/DX2                !
 ! D38   D(13,14,15,19)       -179.0565         estimate D2E/DX2                !
 ! D39   D(16,14,15,18)       -179.3911         estimate D2E/DX2                !
 ! D40   D(16,14,15,19)          0.823          estimate D2E/DX2                !
 ! D41   D(14,15,18,17)          0.4793         estimate D2E/DX2                !
 ! D42   D(14,15,18,23)       -179.5443         estimate D2E/DX2                !
 ! D43   D(19,15,18,17)       -179.7342         estimate D2E/DX2                !
 ! D44   D(19,15,18,23)          0.2423         estimate D2E/DX2                !
 ! D45   D(20,17,18,15)        179.1199         estimate D2E/DX2                !
 ! D46   D(20,17,18,23)         -0.8564         estimate D2E/DX2                !
 ! D47   D(25,17,18,15)         -1.0364         estimate D2E/DX2                !
 ! D48   D(25,17,18,23)        178.9873         estimate D2E/DX2                !
 ! D49   D(18,17,25,13)          0.3862         estimate D2E/DX2                !
 ! D50   D(18,17,25,26)       -179.8149         estimate D2E/DX2                !
 ! D51   D(20,17,25,13)       -179.7707         estimate D2E/DX2                !
 ! D52   D(20,17,25,26)          0.0282         estimate D2E/DX2                !
 --------------------------------------------------------------------------------
 Trust Radius=3.00D-01 FncErr=1.00D-07 GrdErr=1.00D-06
 Number of steps in this run=    133 maximum allowed number of steps=    156.
 GradGradGradGradGradGradGradGradGradGradGradGradGradGradGradGradGradGrad

                          Input orientation:                          
 ---------------------------------------------------------------------
 Center     Atomic      Atomic             Coordinates (Angstroms)
 Number     Number       Type             X           Y           Z
 ---------------------------------------------------------------------
      1          6           0       -5.374577    1.985749    2.457767
      2          6           0       -4.257397    1.060392    0.515332
      3          6           0       -4.670970   -0.226381    0.889928
      4          6           0       -5.423331   -0.408566    2.062125
      5          6           0       -5.783116    0.698863    2.841102
      6          1           0       -5.650839    2.833139    3.046523
      7          1           0       -4.414554   -1.067116    0.280055
      8          1           0       -5.722317   -1.390666    2.361405
      9          6           0       -3.429833    1.277025   -0.773269
     10          6           0       -2.788449    1.435255   -1.771874
     11          6           0       -1.958178    1.633518   -3.065483
     12          6           0       -1.312493    1.786246   -4.071256
     13          6           0       -0.496536    1.978715   -5.342170
     14          6           0        0.203145    0.891497   -5.880240
     15          6           0        0.937069    1.050872   -7.062375
     16          1           0        0.174786   -0.061542   -5.388205
     17          6           0        0.308800    3.385579   -7.148179
     18          6           0        0.988665    2.291485   -7.701095
     19          1           0        1.458279    0.219955   -7.481673
     20          1           0        0.358474    4.336699   -7.626576
     21          6           0       -4.599934    2.162914    1.303394
     22          1           0       -4.268548    3.142412    1.020794
     23          1           0        1.548300    2.398693   -8.609879
     24          1           0       -6.369138    0.561886    3.726688
     25          6           0       -0.437303    3.227144   -5.970158
     26          1           0       -0.955886    4.060050   -5.553218
 ---------------------------------------------------------------------
                    Distance matrix (angstroms):
                    1          2          3          4          5
     1  C    0.000000
     2  C    2.424342   0.000000
     3  C    2.801197   1.402551   0.000000
     4  C    2.427273   2.431010   1.404737   0.000000
     5  C    1.403540   2.804947   2.428997   1.400946   0.000000
     6  H    1.068187   3.389873   3.869330   3.395505   2.148215
     7  H    3.870925   2.146239   1.069827   2.151068   3.398618
     8  H    3.395642   3.400244   2.150845   1.069337   2.144747
     9  C    3.837176   1.546701   2.562591   3.854181   4.351539
    10  C    4.988083   2.744019   3.659250   5.004181   5.548860
    11  C    6.504010   4.293846   5.144292   6.516882   7.098695
    12  C    7.692104   5.498737   6.320077   7.702892   8.303587
    13  C    9.199693   7.021233   7.818400   9.208474   9.826082
    14  C   10.091122   7.799251   8.416759   9.819805  10.579898
    15  C   11.460540   9.187176   9.814306  11.217894  11.973456
    16  H    9.825789   7.466910   7.932432   9.325597  10.188048
    17  C   11.248755   9.218788  10.122031  11.492717  12.004816
    18  C   11.991114   9.825804  10.591355  11.988513  12.630573
    19  H   12.190095   9.865464  10.385115  11.782855  12.618511
    20  H   11.835912   9.916205  10.892559  12.240005  12.669856
    21  C    1.401441   1.397830   2.425847   2.804669   2.430619
    22  H    2.150828   2.142528   3.395267   3.876512   3.402700
    23  H   13.060994  10.898011  11.654041  13.052816  13.702702
    24  H    2.150976   3.875663   3.398875   2.146415   1.070723
    25  C    9.846201   7.832593   8.769923  10.128990  10.611702
    26  H    9.381015   7.531615   8.584257   9.895456  10.250090
                    6          7          8          9         10
     6  H    0.000000
     7  H    4.939002   0.000000
     8  H    4.279606   2.479304   0.000000
     9  C    4.684568   2.752119   4.711501   0.000000
    10  C    5.776185   3.621669   5.803224   1.197340   0.000000
    11  C    7.240957   4.951750   7.263990   2.747199   1.549865
    12  C    8.401191   6.057917   8.421309   3.952107   2.754777
    13  C    9.882664   7.499157   9.899827   5.474619   4.277292
    14  C   10.850171   7.944089  10.404042   6.279197   5.111162
    15  C   12.197001   9.329363  11.794751   7.659884   6.482024
    16  H   10.651842   7.362227   9.828472   6.006886   4.909075
    17  C   11.821778   9.864847  12.231887   7.685236   6.503950
    18  C   12.644671  10.206553  12.643157   8.279313   7.082046
    19  H   12.969626   9.817899  12.289884   8.367420   7.218965
    20  H   12.340485  10.700365  13.020694   8.407180   7.252519
    21  C    2.142919   3.393329   3.873895   2.542925   3.642560
    22  H    2.471833   4.276697   4.945653   2.720621   3.592224
    23  H   13.707227  11.251595  13.696357   9.351599   8.154380
    24  H    2.477331   4.284078   2.468772   5.422228   6.619539
    25  C   10.422895   8.562964  10.893598   6.306017   5.134622
    26  H    9.874383   8.501605  10.727089   6.059171   4.954432
                   11         12         13         14         15
    11  C    0.000000
    12  C    1.204912   0.000000
    13  C    2.727427   1.522515   0.000000
    14  C    3.625572   2.523918   1.400399   0.000000
    15  C    4.969615   3.814197   2.423886   1.400531   0.000000
    16  H    3.580196   2.713057   2.148358   1.072934   2.149740
    17  C    4.987716   3.828043   2.426829   2.799871   2.419286
    18  C    5.532242   4.327393   2.805027   2.427451   1.396333
    19  H    5.759607   4.664911   3.389987   2.142642   1.066720
    20  H    5.785986   4.683721   3.392586   3.865647   3.383749
    21  C    5.132857   6.311577   7.812510   8.734453  10.093618
    22  H    4.930744   6.042054   7.487962   8.525664   9.839239
    23  H    6.604636   5.399846   3.877585   3.395881   2.141260
    24  H    8.169367   9.374254  10.896744  11.644596  13.039312
    25  C    3.645524   2.539286   1.398733   2.423532   2.796068
    26  H    3.616832   2.737438   2.141845   3.389694   3.862122
                   16         17         18         19         20
    16  H    0.000000
    17  C    3.872740   0.000000
    18  C    3.398322   1.401776   0.000000
    19  H    2.471680   3.384331   2.135396   0.000000
    20  H    4.938478   1.065814   2.141400   4.263583   0.000000
    21  C    8.516083   9.849856  10.598575  10.846863  10.442965
    22  H    8.431122   9.367143  10.219282  10.659702   9.879912
    23  H    4.280009   2.155661   1.072648   2.455168   2.477587
    24  H   11.238011  13.070226  13.701205  13.675260  13.726127
    25  C    3.395406   1.403390   2.430018   3.862783   2.146647
    26  H    4.277052   2.144351   3.394478   4.928840   2.470402
                   21         22         23         24         25
    21  C    0.000000
    22  H    1.071959   0.000000
    23  H   11.667449  11.275580   0.000000
    24  H    3.400842   4.288759  14.773306   0.000000
    25  C    8.447760   7.972392   3.405448  11.675577   0.000000
    26  H    7.993206   7.418452   4.286517  11.298545   1.066067
                   26
    26  H    0.000000
 Stoichiometry    C16H10
 Framework group  C1[X(C16H10)]
 Deg. of freedom    72
 Full point group                 C1      NOp   1
 Largest Abelian subgroup         C1      NOp   1
 Largest concise Abelian subgroup C1      NOp   1
                         Standard orientation:                         
 ---------------------------------------------------------------------
 Center     Atomic      Atomic             Coordinates (Angstroms)
 Number     Number       Type             X           Y           Z
 ---------------------------------------------------------------------
      1          6           0        5.614267   -1.190598    0.196909
      2          6           0        3.513047    0.003909    0.008599
      3          6           0        4.212047    1.199179   -0.214737
      4          6           0        5.616781    1.201641   -0.213999
      5          6           0        6.317872    0.004774   -0.017454
      6          1           0        6.145151   -2.106014    0.342509
      7          1           0        3.673335    2.107084   -0.388019
      8          1           0        6.152502    2.114994   -0.363229
      9          6           0        1.966460   -0.014925    0.009250
     10          6           0        0.769131   -0.019961    0.009185
     11          6           0       -0.780734   -0.019917    0.008177
     12          6           0       -1.985645   -0.018458    0.007432
     13          6           0       -3.508158   -0.016091    0.006504
     14          6           0       -4.193115    1.185347    0.226724
     15          6           0       -5.593334    1.203901    0.203695
     16          1           0       -3.645420    2.089437    0.410674
     17          6           0       -5.626840   -1.178177   -0.217647
     18          6           0       -6.312677    0.028692   -0.022529
     19          1           0       -6.116300    2.121023    0.356292
     20          1           0       -6.174342   -2.078719   -0.376470
     21          6           0        4.213097   -1.186627    0.224195
     22          1           0        3.674251   -2.094609    0.409427
     23          1           0       -7.384701    0.057545   -0.045042
     24          1           0        7.388502    0.003800   -0.031566
     25          6           0       -4.223643   -1.198868   -0.206975
     26          1           0       -3.704308   -2.117464   -0.358540
 ---------------------------------------------------------------------
 Rotational constants (GHZ):      2.8409307      0.1248930      0.1199476
 Standard basis: 6-31+G(d) (6D, 7F)
 There are   324 symmetry adapted cartesian basis functions of A   symmetry.
 There are   324 symmetry adapted basis functions of A   symmetry.
   324 basis functions,   552 primitive gaussians,   324 cartesian basis functions
    53 alpha electrons       53 beta electrons
       nuclear repulsion energy       779.9673480112 Hartrees.
 NAtoms=   26 NActive=   26 NUniq=   26 SFac= 1.00D+00 NAtFMM=   60 NAOKFM=F Big=F
 Integral buffers will be    131072 words long.
 Raffenetti 2 integral format.
 Two-electron integral symmetry is turned on.
 Nuclear repulsion after empirical dispersion term =      779.9525603949 Hartrees.
 One-electron integrals computed using PRISM.
 NBasis=   324 RedAO= T EigKep=  1.20D-06  NBF=   324
 NBsUse=   320 1.00D-06 EigRej=  1.56D-07 NBFU=   320
 ExpMin= 4.38D-02 ExpMax= 3.05D+03 ExpMxC= 4.57D+02 IAcc=2 IRadAn=         4 AccDes= 0.00D+00
 Harris functional with IExCor=  402 and IRadAn=       4 diagonalized for initial guess.
 HarFok:  IExCor=  402 AccDes= 0.00D+00 IRadAn=         4 IDoV= 1 UseB2=F ITyADJ=14
 ICtDFT=  3500011 ScaDFX=  1.000000  1.000000  1.000000  1.000000
 FoFCou: FMM=F IPFlag=           0 FMFlag=      100000 FMFlg1=           0
         NFxFlg=           0 DoJE=T BraDBF=F KetDBF=T FulRan=T
         wScrn=  0.000000 ICntrl=     500 IOpCl=  0 I1Cent=   200000004 NGrid=           0
         NMat0=    1 NMatS0=      1 NMatT0=    0 NMatD0=    1 NMtDS0=    0 NMtDT0=    0
 Petite list used in FoFCou.
 Requested convergence on RMS density matrix=1.00D-08 within 128 cycles.
 Requested convergence on MAX density matrix=1.00D-06.
 Requested convergence on             energy=1.00D-06.
 No special actions if energy rises.
 SCF Done:  E(RB3LYP) =  -615.620897651     A.U. after   15 cycles
            NFock= 15  Conv=0.42D-08     -V/T= 2.0106

 **********************************************************************

            Population analysis using the SCF density.

 **********************************************************************

 Orbital symmetries:
       Occupied  (A) (A) (A) (A) (A) (A) (A) (A) (A) (A) (A) (A)
                 (A) (A) (A) (A) (A) (A) (A) (A) (A) (A) (A) (A)
                 (A) (A) (A) (A) (A) (A) (A) (A) (A) (A) (A) (A)
                 (A) (A) (A) (A) (A) (A) (A) (A) (A) (A) (A) (A)
                 (A) (A) (A) (A) (A)
       Virtual   (A) (A) (A) (A) (A) (A) (A) (A) (A) (A) (A) (A)
                 (A) (A) (A) (A) (A) (A) (A) (A) (A) (A) (A) (A)
                 (A) (A) (A) (A) (A) (A) (A) (A) (A) (A) (A) (A)
                 (A) (A) (A) (A) (A) (A) (A) (A) (A) (A) (A) (A)
                 (A) (A) (A) (A) (A) (A) (A) (A) (A) (A) (A) (A)
                 (A) (A) (A) (A) (A) (A) (A) (A) (A) (A) (A) (A)
                 (A) (A) (A) (A) (A) (A) (A) (A) (A) (A) (A) (A)
                 (A) (A) (A) (A) (A) (A) (A) (A) (A) (A) (A) (A)
                 (A) (A) (A) (A) (A) (A) (A) (A) (A) (A) (A) (A)
                 (A) (A) (A) (A) (A) (A) (A) (A) (A) (A) (A) (A)
                 (A) (A) (A) (A) (A) (A) (A) (A) (A) (A) (A) (A)
                 (A) (A) (A) (A) (A) (A) (A) (A) (A) (A) (A) (A)
                 (A) (A) (A) (A) (A) (A) (A) (A) (A) (A) (A) (A)
                 (A) (A) (A) (A) (A) (A) (A) (A) (A) (A) (A) (A)
                 (A) (A) (A) (A) (A) (A) (A) (A) (A) (A) (A) (A)
                 (A) (A) (A) (A) (A) (A) (A) (A) (A) (A) (A) (A)
                 (A) (A) (A) (A) (A) (A) (A) (A) (A) (A) (A) (A)
                 (A) (A) (A) (A) (A) (A) (A) (A) (A) (A) (A) (A)
                 (A) (A) (A) (A) (A) (A) (A) (A) (A) (A) (A) (A)
                 (A) (A) (A) (A) (A) (A) (A) (A) (A) (A) (A) (A)
                 (A) (A) (A) (A) (A) (A) (A) (A) (A) (A) (A) (A)
                 (A) (A) (A) (A) (A) (A) (A) (A) (A) (A) (A) (A)
                 (A) (A) (A)
 The electronic state is 1-A.
 Alpha  occ. eigenvalues --  -10.24141 -10.23911 -10.22939 -10.22804 -10.21572
 Alpha  occ. eigenvalues --  -10.21536 -10.21085 -10.20987 -10.20969 -10.20966
 Alpha  occ. eigenvalues --  -10.20856 -10.20811 -10.20771 -10.20767 -10.20719
 Alpha  occ. eigenvalues --  -10.20627  -0.87365  -0.87259  -0.79690  -0.78513
 Alpha  occ. eigenvalues --   -0.76283  -0.76272  -0.75834  -0.73504  -0.63440
 Alpha  occ. eigenvalues --   -0.62480  -0.62466  -0.62369  -0.57255  -0.54763
 Alpha  occ. eigenvalues --   -0.53352  -0.49316  -0.48736  -0.46717  -0.46640
 Alpha  occ. eigenvalues --   -0.45171  -0.44841  -0.43963  -0.43942  -0.39041
 Alpha  occ. eigenvalues --   -0.38799  -0.37243  -0.37116  -0.36688  -0.36607
 Alpha  occ. eigenvalues --   -0.34075  -0.33343  -0.30562  -0.27387  -0.26758
 Alpha  occ. eigenvalues --   -0.26745  -0.26159  -0.23615
 Alpha virt. eigenvalues --   -0.05686  -0.03012  -0.02574  -0.02525  -0.00522
 Alpha virt. eigenvalues --    0.00132   0.00347   0.02244   0.02314   0.02448
 Alpha virt. eigenvalues --    0.03187   0.03580   0.04570   0.04600   0.05144
 Alpha virt. eigenvalues --    0.05417   0.05476   0.05877   0.06722   0.07021
 Alpha virt. eigenvalues --    0.07858   0.08531   0.08791   0.08936   0.08991
 Alpha virt. eigenvalues --    0.09429   0.10436   0.10626   0.10715   0.10845
 Alpha virt. eigenvalues --    0.12600   0.12986   0.13648   0.13691   0.13979
 Alpha virt. eigenvalues --    0.14151   0.14263   0.14361   0.14802   0.14861
 Alpha virt. eigenvalues --    0.15107   0.15282   0.15936   0.16431   0.16531
 Alpha virt. eigenvalues --    0.16684   0.17104   0.18958   0.19130   0.19479
 Alpha virt. eigenvalues --    0.20126   0.20426   0.20772   0.20838   0.20932
 Alpha virt. eigenvalues --    0.21171   0.21641   0.21787   0.22353   0.22940
 Alpha virt. eigenvalues --    0.23041   0.23274   0.23722   0.24306   0.25426
 Alpha virt. eigenvalues --    0.26003   0.26223   0.26578   0.27394   0.27503
 Alpha virt. eigenvalues --    0.27724   0.27834   0.28283   0.29556   0.30510
 Alpha virt. eigenvalues --    0.31456   0.32153   0.32309   0.32503   0.33133
 Alpha virt. eigenvalues --    0.33494   0.34027   0.34450   0.34560   0.37001
 Alpha virt. eigenvalues --    0.39807   0.40446   0.43287   0.47142   0.47709
 Alpha virt. eigenvalues --    0.52799   0.56031   0.56413   0.58838   0.59004
 Alpha virt. eigenvalues --    0.64092   0.64472   0.65089   0.66270   0.67642
 Alpha virt. eigenvalues --    0.69566   0.69935   0.70304   0.70559   0.70895
 Alpha virt. eigenvalues --    0.70936   0.71018   0.71431   0.72043   0.72242
 Alpha virt. eigenvalues --    0.72752   0.73649   0.73870   0.74179   0.74283
 Alpha virt. eigenvalues --    0.74489   0.76071   0.76682   0.77560   0.78383
 Alpha virt. eigenvalues --    0.80578   0.80776   0.81000   0.81978   0.82925
 Alpha virt. eigenvalues --    0.84782   0.84915   0.85346   0.85980   0.91169
 Alpha virt. eigenvalues --    0.91763   0.91782   0.93940   0.94087   0.94393
 Alpha virt. eigenvalues --    0.95693   0.95931   0.96401   0.97579   1.00709
 Alpha virt. eigenvalues --    1.00990   1.01087   1.01903   1.03198   1.06773
 Alpha virt. eigenvalues --    1.07868   1.07968   1.11990   1.12530   1.15189
 Alpha virt. eigenvalues --    1.15698   1.16331   1.17988   1.18502   1.18680
 Alpha virt. eigenvalues --    1.21020   1.23529   1.23561   1.26393   1.26933
 Alpha virt. eigenvalues --    1.28062   1.28533   1.31681   1.32051   1.33448
 Alpha virt. eigenvalues --    1.41417   1.42050   1.42437   1.43029   1.43655
 Alpha virt. eigenvalues --    1.45126   1.45482   1.45790   1.46290   1.47510
 Alpha virt. eigenvalues --    1.48018   1.49034   1.49181   1.50336   1.51677
 Alpha virt. eigenvalues --    1.56591   1.58261   1.62101   1.62444   1.65531
 Alpha virt. eigenvalues --    1.76290   1.80755   1.81972   1.83119   1.85306
 Alpha virt. eigenvalues --    1.86025   1.87024   1.87903   1.90336   1.91091
 Alpha virt. eigenvalues --    1.91742   1.95813   1.96914   1.97627   1.97965
 Alpha virt. eigenvalues --    1.99946   2.00522   2.01718   2.05769   2.08287
 Alpha virt. eigenvalues --    2.09521   2.10758   2.11181   2.13304   2.13361
 Alpha virt. eigenvalues --    2.14806   2.15320   2.15936   2.17687   2.18248
 Alpha virt. eigenvalues --    2.23218   2.26071   2.28580   2.28687   2.28920
 Alpha virt. eigenvalues --    2.29240   2.30302   2.39393   2.47066   2.51489
 Alpha virt. eigenvalues --    2.53460   2.55805   2.56355   2.60982   2.61169
 Alpha virt. eigenvalues --    2.62437   2.62486   2.62810   2.65564   2.66268
 Alpha virt. eigenvalues --    2.72654   2.72899   2.73404   2.74159   2.78184
 Alpha virt. eigenvalues --    2.80858   2.83228   2.91401   2.93749   2.94896
 Alpha virt. eigenvalues --    3.07365   3.15459   3.20491   3.36315   3.43079
 Alpha virt. eigenvalues --    3.64297   4.06482   4.19479   4.20372   4.23450
 Alpha virt. eigenvalues --    4.23917   4.24777   4.26258   4.33708   4.34842
 Alpha virt. eigenvalues --    4.39740   4.41204   4.55286   4.57160   4.73565
 Alpha virt. eigenvalues --    4.78827   5.24056
          Condensed to atoms (all electrons):
               1          2          3          4          5          6
     1  C    9.554995   1.596064   5.614612  -2.128566   0.784300   0.318695
     2  C    1.596064  15.727427  -4.482100   1.584548   0.282974   0.003319
     3  C    5.614612  -4.482100  30.658708  -8.293106  -0.550221  -0.003665
     4  C   -2.128566   1.584548  -8.293106   9.212150   0.752300   0.008674
     5  C    0.784300   0.282974  -0.550221   0.752300   5.413170   0.014219
     6  H    0.318695   0.003319  -0.003665   0.008674   0.014219   0.532023
     7  H   -0.008231  -0.059064   0.334804  -0.078086   0.008259   0.000017
     8  H    0.008908   0.002972  -0.035808   0.316624   0.014507  -0.000170
     9  C   -0.937324  -4.905136   1.913210  -0.832140  -0.284256  -0.008524
    10  C    0.160201   2.056881  -0.630054   0.141499   0.052836  -0.000907
    11  C   -0.061546  -1.843867   0.171656  -0.055206  -0.015599  -0.000154
    12  C    0.000238  -0.039082  -0.009721  -0.003248   0.003080  -0.000011
    13  C   -0.001804  -0.235198   0.008312  -0.003001  -0.000147   0.000000
    14  C   -0.000566   0.005607  -0.002131   0.000723   0.000019   0.000000
    15  C    0.000024  -0.002709   0.000694   0.000014  -0.000005   0.000000
    16  H    0.000000   0.000120   0.000004   0.000000   0.000000   0.000000
    17  C    0.000007  -0.003376  -0.000604   0.000040  -0.000006   0.000000
    18  C   -0.000004   0.000060   0.000027  -0.000005   0.000001   0.000000
    19  H    0.000000   0.000000   0.000000   0.000000   0.000000   0.000000
    20  H    0.000000   0.000000   0.000000   0.000000   0.000000   0.000000
    21  C   -8.823330  -4.244751 -18.261405   5.398593  -0.603930  -0.038386
    22  H   -0.078438  -0.066196   0.023043  -0.007726   0.008419  -0.004745
    23  H    0.000000   0.000000   0.000000   0.000000   0.000000   0.000000
    24  H   -0.012541  -0.001906   0.013231  -0.012966   0.290891  -0.004859
    25  C    0.000655   0.007409   0.002185  -0.000618   0.000028   0.000000
    26  H    0.000000   0.000107  -0.000002   0.000000   0.000000   0.000000
               7          8          9         10         11         12
     1  C   -0.008231   0.008908  -0.937324   0.160201  -0.061546   0.000238
     2  C   -0.059064   0.002972  -4.905136   2.056881  -1.843867  -0.039082
     3  C    0.334804  -0.035808   1.913210  -0.630054   0.171656  -0.009721
     4  C   -0.078086   0.316624  -0.832140   0.141499  -0.055206  -0.003248
     5  C    0.008259   0.014507  -0.284256   0.052836  -0.015599   0.003080
     6  H    0.000017  -0.000170  -0.008524  -0.000907  -0.000154  -0.000011
     7  H    0.523816  -0.004604   0.050598   0.001268   0.005909   0.000862
     8  H   -0.004604   0.530969  -0.008560  -0.000815  -0.000156  -0.000010
     9  C    0.050598  -0.008560  12.069262  -1.851306   0.709476  -0.716781
    10  C    0.001268  -0.000815  -1.851306   9.770476  -3.146142   0.792707
    11  C    0.005909  -0.000156   0.709476  -3.146142  10.137613  -1.972010
    12  C    0.000862  -0.000010  -0.716781   0.792707  -1.972010  11.962997
    13  C    0.000104   0.000000  -0.092105  -1.734747   2.029523  -4.984271
    14  C    0.000003   0.000000  -0.014431   0.244953  -0.599396   2.526967
    15  C    0.000000   0.000000  -0.003840  -0.076270   0.125931  -1.056738
    16  H    0.000000   0.000000   0.001068   0.005909   0.002634   0.048549
    17  C    0.000000   0.000000  -0.005531  -0.056323   0.149002  -0.831137
    18  C    0.000000   0.000000   0.004135  -0.011820   0.063809  -0.261252
    19  H    0.000000   0.000000  -0.000011  -0.000131  -0.000859  -0.007404
    20  H    0.000000   0.000000  -0.000011  -0.000138  -0.000958  -0.007516
    21  C    0.027664  -0.004076   2.125628  -0.669736   0.174683  -0.023999
    22  H   -0.000153   0.000017   0.052211   0.002207   0.006083   0.000936
    23  H    0.000000   0.000000   0.000003   0.000027   0.000497   0.001970
    24  H   -0.000148  -0.004913   0.002017   0.000455   0.000027   0.000003
    25  C   -0.000002   0.000000  -0.011444   0.134716  -0.716431   1.748149
    26  H    0.000000   0.000000   0.000942   0.005566   0.001380   0.046836
              13         14         15         16         17         18
     1  C   -0.001804  -0.000566   0.000024   0.000000   0.000007  -0.000004
     2  C   -0.235198   0.005607  -0.002709   0.000120  -0.003376   0.000060
     3  C    0.008312  -0.002131   0.000694   0.000004  -0.000604   0.000027
     4  C   -0.003001   0.000723   0.000014   0.000000   0.000040  -0.000005
     5  C   -0.000147   0.000019  -0.000005   0.000000  -0.000006   0.000001
     6  H    0.000000   0.000000   0.000000   0.000000   0.000000   0.000000
     7  H    0.000104   0.000003   0.000000   0.000000   0.000000   0.000000
     8  H    0.000000   0.000000   0.000000   0.000000   0.000000   0.000000
     9  C   -0.092105  -0.014431  -0.003840   0.001068  -0.005531   0.004135
    10  C   -1.734747   0.244953  -0.076270   0.005909  -0.056323  -0.011820
    11  C    2.029523  -0.599396   0.125931   0.002634   0.149002   0.063809
    12  C   -4.984271   2.526967  -1.056738   0.048549  -0.831137  -0.261252
    13  C   15.983487  -4.717574   1.759902  -0.061859   1.698631   0.265073
    14  C   -4.717574  31.507589  -8.865275   0.334076   5.664949  -0.625614
    15  C    1.759902  -8.865275   9.514817  -0.073323  -2.166516   0.756212
    16  H   -0.061859   0.334076  -0.073323   0.523317  -0.008343   0.008988
    17  C    1.698631   5.664949  -2.166516  -0.008343   9.569609   0.725722
    18  C    0.265073  -0.625614   0.756212   0.008988   0.725722   5.432109
    19  H    0.000188  -0.033426   0.313218  -0.004775   0.009130   0.016365
    20  H   -0.000377  -0.007202   0.010822   0.000017   0.316172   0.012697
    21  C    0.001675   0.001858  -0.000584  -0.000002   0.000662   0.000020
    22  H    0.000109  -0.000002   0.000000   0.000000   0.000000   0.000000
    23  H   -0.001737   0.017147  -0.012947  -0.000148  -0.012384   0.289096
    24  H    0.000000   0.000000   0.000000   0.000000   0.000000   0.000000
    25  C   -4.501821 -18.928793   5.766260   0.025782  -8.975518  -0.522624
    26  H   -0.056901   0.028873  -0.009250  -0.000152  -0.081279   0.009219
              19         20         21         22         23         24
     1  C    0.000000   0.000000  -8.823330  -0.078438   0.000000  -0.012541
     2  C    0.000000   0.000000  -4.244751  -0.066196   0.000000  -0.001906
     3  C    0.000000   0.000000 -18.261405   0.023043   0.000000   0.013231
     4  C    0.000000   0.000000   5.398593  -0.007726   0.000000  -0.012966
     5  C    0.000000   0.000000  -0.603930   0.008419   0.000000   0.290891
     6  H    0.000000   0.000000  -0.038386  -0.004745   0.000000  -0.004859
     7  H    0.000000   0.000000   0.027664  -0.000153   0.000000  -0.000148
     8  H    0.000000   0.000000  -0.004076   0.000017   0.000000  -0.004913
     9  C   -0.000011  -0.000011   2.125628   0.052211   0.000003   0.002017
    10  C   -0.000131  -0.000138  -0.669736   0.002207   0.000027   0.000455
    11  C   -0.000859  -0.000958   0.174683   0.006083   0.000497   0.000027
    12  C   -0.007404  -0.007516  -0.023999   0.000936   0.001970   0.000003
    13  C    0.000188  -0.000377   0.001675   0.000109  -0.001737   0.000000
    14  C   -0.033426  -0.007202   0.001858  -0.000002   0.017147   0.000000
    15  C    0.313218   0.010822  -0.000584   0.000000  -0.012947   0.000000
    16  H   -0.004775   0.000017  -0.000002   0.000000  -0.000148   0.000000
    17  C    0.009130   0.316172   0.000662   0.000000  -0.012384   0.000000
    18  C    0.016365   0.012697   0.000020   0.000000   0.289096   0.000000
    19  H    0.534273  -0.000180   0.000000   0.000000  -0.005157   0.000000
    20  H   -0.000180   0.532381   0.000000   0.000000  -0.004820   0.000000
    21  C    0.000000   0.000000  31.112472   0.342850   0.000000   0.012663
    22  H    0.000000   0.000000   0.342850   0.523330   0.000000  -0.000145
    23  H   -0.005157  -0.004820   0.000000   0.000000   0.536283   0.000000
    24  H    0.000000   0.000000   0.012663  -0.000145   0.000000   0.535973
    25  C   -0.004670  -0.030288  -0.001957   0.000004   0.010007   0.000000
    26  H    0.000018  -0.004745   0.000003   0.000000  -0.000146   0.000000
              25         26
     1  C    0.000655   0.000000
     2  C    0.007409   0.000107
     3  C    0.002185  -0.000002
     4  C   -0.000618   0.000000
     5  C    0.000028   0.000000
     6  H    0.000000   0.000000
     7  H   -0.000002   0.000000
     8  H    0.000000   0.000000
     9  C   -0.011444   0.000942
    10  C    0.134716   0.005566
    11  C   -0.716431   0.001380
    12  C    1.748149   0.046836
    13  C   -4.501821  -0.056901
    14  C  -18.928793   0.028873
    15  C    5.766260  -0.009250
    16  H    0.025782  -0.000152
    17  C   -8.975518  -0.081279
    18  C   -0.522624   0.009219
    19  H   -0.004670   0.000018
    20  H   -0.030288  -0.004745
    21  C   -0.001957   0.000003
    22  H    0.000004   0.000000
    23  H    0.010007  -0.000146
    24  H    0.000000   0.000000
    25  C   32.148155   0.338184
    26  H    0.338184   0.525080
 Mulliken charges:
               1
     1  C    0.013649
     2  C    0.615899
     3  C   -0.471668
     4  C   -0.000496
     5  C   -0.170840
     6  H    0.184475
     7  H    0.196984
     8  H    0.185116
     9  C   -1.257149
    10  C    0.808687
    11  C    0.834104
    12  C   -1.220116
    13  C    0.644538
    14  C   -0.538354
    15  C    0.019565
    16  H    0.198141
    17  C    0.007095
    18  C   -0.162213
    19  H    0.183421
    20  H    0.184147
    21  C   -0.526611
    22  H    0.198196
    23  H    0.182311
    24  H    0.182218
    25  C   -0.487366
    26  H    0.196268
 Sum of Mulliken charges =   0.00000
 Mulliken charges with hydrogens summed into heavy atoms:
               1
     1  C    0.198124
     2  C    0.615899
     3  C   -0.274685
     4  C    0.184619
     5  C    0.011378
     9  C   -1.257149
    10  C    0.808687
    11  C    0.834104
    12  C   -1.220116
    13  C    0.644538
    14  C   -0.340213
    15  C    0.202986
    17  C    0.191242
    18  C    0.020098
    21  C   -0.328415
    25  C   -0.291098
 Electronic spatial extent (au):  <R**2>=           8335.3347
 Charge=              0.0000 electrons
 Dipole moment (field-independent basis, Debye):
    X=              0.0158    Y=              0.0304    Z=             -0.0118  Tot=              0.0363
 Quadrupole moment (field-independent basis, Debye-Ang):
   XX=            -59.8966   YY=            -83.2426   ZZ=           -100.2076
   XY=              0.0068   XZ=              0.0328   YZ=             -0.0250
 Traceless Quadrupole moment (field-independent basis, Debye-Ang):
   XX=             21.2190   YY=             -2.1270   ZZ=            -19.0920
   XY=              0.0068   XZ=              0.0328   YZ=             -0.0250
 Octapole moment (field-independent basis, Debye-Ang**2):
  XXX=              0.4060  YYY=              0.1560  ZZZ=              0.0218  XYY=              0.2906
  XXY=              0.7096  XXZ=             -2.3906  XZZ=             -0.2556  YZZ=              0.0433
  YYZ=              0.1302  XYZ=            -14.9472
 Hexadecapole moment (field-independent basis, Debye-Ang**3):
 XXXX=          -9345.7873 YYYY=           -556.1461 ZZZZ=           -143.9673 XXXY=             -1.0156
 XXXZ=              4.9705 YYYX=              0.8004 YYYZ=             -0.1520 ZZZX=              0.0043
 ZZZY=             -0.0185 XXYY=          -1732.0319 XXZZ=          -2090.3649 YYZZ=           -133.8279
 XXYZ=              0.5350 YYXZ=             -0.4212 ZZXY=             -0.1862
 N-N= 7.799525603949D+02 E-N=-2.983382577999D+03  KE= 6.091542910900D+02
 Calling FoFJK, ICntrl=      2127 FMM=F ISym2X=0 I1Cent= 0 IOpClX= 0 NMat=1 NMatS=1 NMatT=0.
 ***** Axes restored to original set *****
 -------------------------------------------------------------------
 Center     Atomic                   Forces (Hartrees/Bohr)
 Number     Number              X              Y              Z
 -------------------------------------------------------------------
      1        6           0.005099816   -0.014551813   -0.009521165
      2        6           0.030216574    0.006275004   -0.048376023
      3        6          -0.005019228    0.005054925    0.009677167
      4        6           0.006543955    0.016374205   -0.007768929
      5        6           0.008013945    0.003315196   -0.011860535
      6        1          -0.002890684    0.010656973    0.007362590
      7        1           0.003468431   -0.008788786   -0.006530486
      8        1          -0.003507150   -0.011692371    0.002131256
      9        6          -0.049660505   -0.014644414    0.078202703
     10        6           0.073698687    0.017458894   -0.115117524
     11        6          -0.065343341   -0.015267761    0.101598909
     12        6           0.036778835    0.010203181   -0.056748120
     13        6          -0.026255260   -0.008895010    0.043379875
     14        6           0.003623451    0.004557663   -0.008819265
     15        6          -0.008553402    0.009387108    0.008622404
     16        1          -0.001095357   -0.007963258    0.004324877
     17        6          -0.001777957   -0.017218128    0.009442294
     18        6          -0.006941168    0.001627375    0.010104449
     19        1           0.006974577   -0.011988138   -0.004674990
     20        1          -0.000279359    0.013899163   -0.005975126
     21        6          -0.006167653   -0.004280275    0.007754781
     22        1           0.002498372    0.009063406   -0.003104965
     23        1           0.005306390    0.002130982   -0.008397024
     24        1          -0.006182801   -0.001178555    0.009686798
     25        6           0.008981991   -0.004183656   -0.011457961
     26        1          -0.007531157    0.010648088    0.006064009
 -------------------------------------------------------------------
 Cartesian Forces:  Max     0.115117524 RMS     0.027045673

 GradGradGradGradGradGradGradGradGradGradGradGradGradGradGradGradGradGrad
 Berny optimization.
 FormGI is forming the generalized inverse of G from B-inverse, IUseBI=4.
 Internal  Forces:  Max     0.104733223 RMS     0.012902849
 Search for a local minimum.
 Step number   1 out of a maximum of  133
 All quantities printed in internal units (Hartrees-Bohrs-Radians)
 Mixed Optimization -- RFO/linear search
 Second derivative matrix not updated -- first step.
 ITU=  0
     Eigenvalues ---    0.00230   0.00230   0.00230   0.00388   0.00466
     Eigenvalues ---    0.01496   0.01692   0.02039   0.02045   0.02050
     Eigenvalues ---    0.02054   0.02055   0.02060   0.02064   0.02064
     Eigenvalues ---    0.02075   0.02083   0.02087   0.02090   0.02097
     Eigenvalues ---    0.02099   0.02104   0.02115   0.03719   0.04484
     Eigenvalues ---    0.04677   0.04765   0.16000   0.16000   0.16000
     Eigenvalues ---    0.16000   0.16000   0.16000   0.16000   0.16000
     Eigenvalues ---    0.16000   0.16000   0.21998   0.21999   0.21999
     Eigenvalues ---    0.22000   0.23485   0.23485   0.24999   0.25000
     Eigenvalues ---    0.27663   0.27933   0.30126   0.36862   0.36897
     Eigenvalues ---    0.36984   0.37139   0.37252   0.37314   0.37460
     Eigenvalues ---    0.37648   0.37732   0.37764   0.41056   0.41241
     Eigenvalues ---    0.41519   0.41766   0.45031   0.45121   0.45253
     Eigenvalues ---    0.45366   0.45429   0.45640   0.45792   0.46073
     Eigenvalues ---    1.02393   1.06171
 RFO step:  Lambda=-5.67649392D-02 EMin= 2.30000000D-03
 Linear search not attempted -- first point.
 Maximum step size (   0.300) exceeded in Quadratic search.
    -- Step size scaled by   0.742
 Iteration  1 RMS(Cart)=  0.09212254 RMS(Int)=  0.00300216
 Iteration  2 RMS(Cart)=  0.00771910 RMS(Int)=  0.00000607
 Iteration  3 RMS(Cart)=  0.00000151 RMS(Int)=  0.00000603
 Iteration  4 RMS(Cart)=  0.00000000 RMS(Int)=  0.00000603
 Variable       Old X    -DE/DX   Delta X   Delta X   Delta X     New X
                                 (Linear)    (Quad)   (Total)
    R1        2.65231  -0.00355   0.00000  -0.00538  -0.00537   2.64693
    R2        2.01858   0.01326   0.00000   0.02282   0.02282   2.04140
    R3        2.64834  -0.00504   0.00000  -0.00717  -0.00717   2.64117
    R4        2.65044  -0.00151   0.00000  -0.00202  -0.00202   2.64842
    R5        2.92284  -0.06071   0.00000  -0.13410  -0.13410   2.78874
    R6        2.64152   0.00347   0.00000   0.00532   0.00532   2.64683
    R7        2.65457  -0.00747   0.00000  -0.01113  -0.01113   2.64343
    R8        2.02168   0.01146   0.00000   0.01982   0.01982   2.04150
    R9        2.64740  -0.00100   0.00000  -0.00179  -0.00179   2.64561
   R10        2.02075   0.01232   0.00000   0.02127   0.02127   2.04202
   R11        2.02337   0.01155   0.00000   0.02002   0.02002   2.04339
   R12        2.26264   0.03307   0.00000   0.02195   0.02195   2.28459
   R13        2.92882  -0.10473   0.00000  -0.23322  -0.23322   2.69561
   R14        2.27695   0.01703   0.00000   0.01170   0.01170   2.28865
   R15        2.87714  -0.05135   0.00000  -0.10647  -0.10647   2.77067
   R16        2.64637   0.00254   0.00000   0.00395   0.00395   2.65032
   R17        2.64322   0.00320   0.00000   0.00471   0.00470   2.64793
   R18        2.64662  -0.00429   0.00000  -0.00605  -0.00605   2.64057
   R19        2.02755   0.00909   0.00000   0.01586   0.01586   2.04341
   R20        2.63869   0.00296   0.00000   0.00414   0.00414   2.64283
   R21        2.01581   0.01458   0.00000   0.02499   0.02499   2.04080
   R22        2.64897  -0.00159   0.00000  -0.00258  -0.00258   2.64639
   R23        2.01410   0.01507   0.00000   0.02576   0.02576   2.03986
   R24        2.65202  -0.00641   0.00000  -0.00956  -0.00956   2.64246
   R25        2.02701   0.01010   0.00000   0.01760   0.01760   2.04461
   R26        2.02571   0.00987   0.00000   0.01718   0.01718   2.04289
   R27        2.01458   0.01435   0.00000   0.02455   0.02455   2.03913
    A1        2.09618   0.00032   0.00000   0.00107   0.00107   2.09725
    A2        2.09644  -0.00002   0.00000   0.00003   0.00002   2.09647
    A3        2.09056  -0.00030   0.00000  -0.00109  -0.00109   2.08947
    A4        2.10457  -0.00318   0.00000  -0.00820  -0.00819   2.09638
    A5        2.09532   0.00217   0.00000   0.00626   0.00625   2.10156
    A6        2.08328   0.00101   0.00000   0.00195   0.00195   2.08523
    A7        2.09415  -0.00242   0.00000  -0.00629  -0.00630   2.08785
    A8        2.09216   0.00073   0.00000   0.00150   0.00150   2.09365
    A9        2.09688   0.00169   0.00000   0.00479   0.00480   2.10167
   A10        2.09326   0.00160   0.00000   0.00349   0.00349   2.09675
   A11        2.09718  -0.00198   0.00000  -0.00581  -0.00581   2.09137
   A12        2.09275   0.00039   0.00000   0.00231   0.00231   2.09506
   A13        2.09228   0.00109   0.00000   0.00206   0.00207   2.09435
   A14        2.09729  -0.00087   0.00000  -0.00214  -0.00214   2.09515
   A15        2.09362  -0.00022   0.00000   0.00007   0.00007   2.09369
   A16        2.08329   0.00104   0.00000   0.00216   0.00216   2.08545
   A17        2.10633  -0.00280   0.00000  -0.00715  -0.00714   2.09919
   A18        2.09356   0.00177   0.00000   0.00499   0.00499   2.09854
   A19        2.09184  -0.00165   0.00000  -0.00349  -0.00350   2.08834
   A20        2.09463   0.00016   0.00000  -0.00054  -0.00054   2.09409
   A21        2.09671   0.00149   0.00000   0.00404   0.00404   2.10075
   A22        2.10199  -0.00096   0.00000  -0.00232  -0.00232   2.09967
   A23        2.09345  -0.00073   0.00000  -0.00299  -0.00299   2.09046
   A24        2.08773   0.00169   0.00000   0.00531   0.00531   2.09305
   A25        2.09078   0.00095   0.00000   0.00388   0.00388   2.09466
   A26        2.09535   0.00075   0.00000   0.00129   0.00129   2.09664
   A27        2.09705  -0.00170   0.00000  -0.00517  -0.00517   2.09188
   A28        2.08876   0.00168   0.00000   0.00393   0.00393   2.09269
   A29        2.08935   0.00024   0.00000   0.00174   0.00174   2.09109
   A30        2.10507  -0.00192   0.00000  -0.00567  -0.00567   2.09940
   A31        2.09454  -0.00239   0.00000  -0.00537  -0.00537   2.08917
   A32        2.09849   0.00133   0.00000   0.00314   0.00314   2.10163
   A33        2.09016   0.00106   0.00000   0.00223   0.00223   2.09239
   A34        2.09456  -0.00158   0.00000  -0.00426  -0.00427   2.09030
   A35        2.09571  -0.00006   0.00000  -0.00078  -0.00078   2.09493
   A36        2.09290   0.00164   0.00000   0.00505   0.00505   2.09795
   A37        3.14951  -0.00081   0.00000  -0.00577  -0.00577   3.14374
   A38        3.13732   0.00079   0.00000   0.00994   0.00995   3.14726
   A39        3.14043  -0.00023   0.00000  -0.00162  -0.00163   3.13880
   A40        3.14125  -0.00027   0.00000  -0.00323  -0.00323   3.13802
   A41        3.14028   0.00028   0.00000   0.00200   0.00199   3.14226
   A42        3.14192   0.00001   0.00000   0.00008   0.00009   3.14201
   A43        3.14127   0.00002   0.00000   0.00012   0.00013   3.14140
   A44        3.14152  -0.00020   0.00000  -0.00250  -0.00249   3.13903
    D1        3.13648   0.00003   0.00000   0.00049   0.00050   3.13698
    D2       -0.00458   0.00004   0.00000   0.00053   0.00054  -0.00404
    D3       -0.00808   0.00020   0.00000   0.00217   0.00219  -0.00589
    D4        3.13405   0.00020   0.00000   0.00222   0.00223   3.13628
    D5        0.02448  -0.00065   0.00000  -0.00603  -0.00602   0.01846
    D6       -3.11783  -0.00044   0.00000  -0.00411  -0.00411  -3.12194
    D7       -3.12007  -0.00048   0.00000  -0.00435  -0.00433  -3.12441
    D8        0.02081  -0.00027   0.00000  -0.00243  -0.00242   0.01839
    D9       -3.14044   0.00000   0.00000   0.00005   0.00005  -3.14040
   D10       -0.00174  -0.00005   0.00000  -0.00036  -0.00036  -0.00210
   D11       -0.00654   0.00019   0.00000   0.00179   0.00178  -0.00475
   D12        3.13217   0.00014   0.00000   0.00138   0.00138   3.13354
   D13       -0.36635   0.00009   0.00000   0.00107   0.00107  -0.36529
   D14        2.77771  -0.00003   0.00000  -0.00029  -0.00030   2.77741
   D15        2.78174   0.00005   0.00000   0.00050   0.00051   2.78225
   D16       -0.35738  -0.00007   0.00000  -0.00086  -0.00085  -0.35824
   D17       -0.01713   0.00042   0.00000   0.00398   0.00397  -0.01316
   D18        3.12517   0.00021   0.00000   0.00207   0.00207   3.12724
   D19        3.11687   0.00059   0.00000   0.00565   0.00566   3.12253
   D20       -0.02401   0.00038   0.00000   0.00374   0.00375  -0.02026
   D21        0.02290  -0.00058   0.00000  -0.00550  -0.00550   0.01740
   D22       -3.11881  -0.00045   0.00000  -0.00415  -0.00414  -3.12295
   D23       -3.11579  -0.00053   0.00000  -0.00508  -0.00508  -3.12088
   D24        0.02568  -0.00040   0.00000  -0.00373  -0.00373   0.02196
   D25       -0.01557   0.00033   0.00000   0.00341   0.00342  -0.01215
   D26        3.12549   0.00032   0.00000   0.00336   0.00338   3.12887
   D27        3.12614   0.00020   0.00000   0.00206   0.00206   3.12820
   D28       -0.01599   0.00019   0.00000   0.00201   0.00202  -0.01397
   D29        3.12120   0.00044   0.00000   0.00415   0.00415   3.12534
   D30       -0.01830   0.00025   0.00000   0.00236   0.00237  -0.01593
   D31       -0.02410   0.00058   0.00000   0.00556   0.00556  -0.01854
   D32        3.11959   0.00039   0.00000   0.00377   0.00378   3.12337
   D33       -3.13094  -0.00018   0.00000  -0.00172  -0.00172  -3.13267
   D34        0.01416  -0.00025   0.00000  -0.00233  -0.00234   0.01183
   D35        0.01440  -0.00033   0.00000  -0.00317  -0.00317   0.01123
   D36       -3.12367  -0.00039   0.00000  -0.00378  -0.00378  -3.12746
   D37        0.01273  -0.00034   0.00000  -0.00321  -0.00320   0.00952
   D38       -3.12513  -0.00042   0.00000  -0.00392  -0.00391  -3.12904
   D39       -3.13097  -0.00015   0.00000  -0.00143  -0.00142  -3.13239
   D40        0.01436  -0.00023   0.00000  -0.00214  -0.00213   0.01223
   D41        0.00836  -0.00018   0.00000  -0.00163  -0.00163   0.00674
   D42       -3.13364  -0.00011   0.00000  -0.00094  -0.00094  -3.13458
   D43       -3.13695  -0.00011   0.00000  -0.00094  -0.00093  -3.13789
   D44        0.00423  -0.00003   0.00000  -0.00025  -0.00025   0.00398
   D45        3.12623   0.00027   0.00000   0.00262   0.00261   3.12885
   D46       -0.01495   0.00020   0.00000   0.00192   0.00192  -0.01303
   D47       -0.01809   0.00041   0.00000   0.00398   0.00398  -0.01411
   D48        3.12392   0.00033   0.00000   0.00328   0.00329   3.12721
   D49        0.00674  -0.00017   0.00000  -0.00161  -0.00161   0.00513
   D50       -3.13836  -0.00010   0.00000  -0.00101  -0.00101  -3.13937
   D51       -3.13759  -0.00003   0.00000  -0.00023  -0.00023  -3.13782
   D52        0.00049   0.00004   0.00000   0.00037   0.00037   0.00086
         Item               Value     Threshold  Converged?
 Maximum Force            0.104733     0.000450     NO 
 RMS     Force            0.012903     0.000300     NO 
 Maximum Displacement     0.213451     0.001800     NO 
 RMS     Displacement     0.099591     0.001200     NO 
 Predicted change in Energy=-2.906609D-02
 GradGradGradGradGradGradGradGradGradGradGradGradGradGradGradGradGradGrad

                          Input orientation:                          
 ---------------------------------------------------------------------
 Center     Atomic      Atomic             Coordinates (Angstroms)
 Number     Number       Type             X           Y           Z
 ---------------------------------------------------------------------
      1          6           0       -5.303259    2.007899    2.353138
      2          6           0       -4.196247    1.070875    0.416237
      3          6           0       -4.609920   -0.214245    0.792387
      4          6           0       -5.360605   -0.384836    1.960350
      5          6           0       -5.713924    0.724998    2.737156
      6          1           0       -5.577974    2.866604    2.948223
      7          1           0       -4.351037   -1.065307    0.179400
      8          1           0       -5.666528   -1.376152    2.262642
      9          6           0       -3.405181    1.263415   -0.814597
     10          6           0       -2.757758    1.418666   -1.823710
     11          6           0       -1.993308    1.609769   -3.012770
     12          6           0       -1.343436    1.768738   -4.022305
     13          6           0       -0.557642    1.955411   -5.245967
     14          6           0        0.144279    0.868977   -5.788127
     15          6           0        0.878450    1.038132   -6.964952
     16          1           0        0.115087   -0.093232   -5.295620
     17          6           0        0.238227    3.373550   -7.040314
     18          6           0        0.924266    2.285914   -7.594882
     19          1           0        1.410185    0.199996   -7.390471
     20          1           0        0.281990    4.340265   -7.518588
     21          6           0       -4.534774    2.182092    1.198796
     22          1           0       -4.199933    3.167940    0.907841
     23          1           0        1.489886    2.406365   -8.509328
     24          1           0       -6.304293    0.591106    3.633139
     25          6           0       -0.505841    3.210065   -5.867724
     26          1           0       -1.036591    4.046814   -5.440496
 ---------------------------------------------------------------------
                    Distance matrix (angstroms):
                    1          2          3          4          5
     1  C    0.000000
     2  C    2.419727   0.000000
     3  C    2.802604   1.401481   0.000000
     4  C    2.425439   2.420560   1.398845   0.000000
     5  C    1.400697   2.794574   2.425517   1.399999   0.000000
     6  H    1.080263   3.397759   3.882833   3.405144   2.156272
     7  H    3.882843   2.154838   1.080315   2.157325   3.406578
     8  H    3.404697   3.399836   2.151301   1.080591   2.154587
     9  C    3.767161   1.475740   2.493446   3.773691   4.270262
    10  C    4.926746   2.684691   3.597341   4.934221   5.479196
    11  C    6.317219   4.111135   4.965169   6.328432   6.905610
    12  C    7.508906   5.322236   6.146820   7.521149   8.116703
    13  C    8.959354   6.788401   7.588812   8.970853   9.582871
    14  C    9.861695   7.574633   8.190174   9.587215  10.345034
    15  C   11.224116   8.957431   9.584725  10.982333  11.734068
    16  H    9.606078   7.250383   7.707409   9.094906   9.958532
    17  C   10.991361   8.975913   9.885747  11.246525  11.749121
    18  C   11.739781   9.585092  10.354916  11.744571  12.379541
    19  H   11.969827   9.650658  10.167223  11.559561  12.393441
    20  H   11.579548   9.680133  10.665208  12.000655  12.417787
    21  C    1.397648   1.400644   2.431717   2.801978   2.424886
    22  H    2.156829   2.153919   3.408900   3.882931   3.406836
    23  H   12.817908  10.666833  11.427910  12.819289  13.461251
    24  H    2.155869   3.875886   3.404315   2.154353   1.081317
    25  C    9.593905   7.594959   8.539698   9.887911  10.360678
    26  H    9.116050   7.289784   8.353091   9.649308   9.989290
                    6          7          8          9         10
     6  H    0.000000
     7  H    4.963032   0.000000
     8  H    4.298703   2.483352   0.000000
     9  C    4.631421   2.702891   4.642241   0.000000
    10  C    5.729004   3.566666   5.741970   1.208953   0.000000
    11  C    7.068444   4.785902   7.087894   2.635396   1.426453
    12  C    8.229513   5.893369   8.251061   3.846496   2.637552
    13  C    9.652914   7.276619   9.673636   5.312662   4.103711
    14  C   10.632898   7.717558  10.179438   6.122929   4.943742
    15  C   11.970788   9.100206  11.567799   7.498474   6.308660
    16  H   10.446651   7.132113   9.602097   5.857674   4.753234
    17  C   11.569618   9.637897  11.998782   7.515760   6.325382
    18  C   12.400540   9.974916  12.410482   8.109370   6.900424
    19  H   12.760633   9.596646  12.072559   8.219533   7.060151
    20  H   12.085735  10.485427  12.795888   8.246559   7.085722
    21  C    2.148795   3.408597   3.882491   2.484693   3.588335
    22  H    2.480517   4.298121   4.963382   2.688054   3.549816
    23  H   13.470038  11.030089  13.474309   9.191131   7.982200
    24  H    2.484862   4.299678   2.480950   5.351561   6.560485
    25  C   10.176710   8.344582  10.666252   6.142452   4.963295
    26  H    9.611850   8.288701  10.496819   5.895462   4.790691
                   11         12         13         14         15
    11  C    0.000000
    12  C    1.211101   0.000000
    13  C    2.677270   1.466174   0.000000
    14  C    3.580595   2.478103   1.402487   0.000000
    15  C    4.918689   3.758954   2.420469   1.397332   0.000000
    16  H    3.543578   2.686178   2.156842   1.081324   2.156241
    17  C    4.930698   3.766359   2.421613   2.801728   2.422755
    18  C    5.474044   4.263009   2.796907   2.424964   1.398525
    19  H    5.721493   4.624708   3.398929   2.148850   1.079944
    20  H    5.738902   4.634519   3.399606   3.881147   3.400936
    21  C    4.952160   6.133139   7.576538   8.510870   9.861968
    22  H    4.761121   5.867169   7.252989   8.306226   9.607648
    23  H    6.555864   5.344872   3.878821   3.402815   2.151979
    24  H    7.986887   9.197975  10.664138  11.420225  12.810588
    25  C    3.595034   2.486878   1.401222   2.430984   2.799547
    26  H    3.570484   2.700935   2.154344   3.407924   3.878597
                   16         17         18         19         20
    16  H    0.000000
    17  C    3.883001   0.000000
    18  C    3.406129   1.400409   0.000000
    19  H    2.480254   3.401108   2.151500   0.000000
    20  H    4.962393   1.079445   2.153764   4.293142   0.000000
    21  C    8.305164   9.596043  10.350878  10.632344  10.190766
    22  H    8.230283   9.105641   9.966527  10.447204   9.615960
    23  H    4.297205   2.158726   1.081964   2.475127   2.486071
    24  H   11.018144  12.824553  13.460791  13.460539  13.483187
    25  C    3.409490   1.398331   2.425352   3.879488   2.150205
    26  H    4.299689   2.153569   3.403983   4.958540   2.478555
                   21         22         23         24         25
    21  C    0.000000
    22  H    1.081050   0.000000
    23  H   11.427794  11.028920   0.000000
    24  H    3.404183   4.300658  14.542485   0.000000
    25  C    8.199069   7.717277   3.406894  11.434483   0.000000
    26  H    7.732702   7.147064   4.300219  11.046332   1.079059
                   26
    26  H    0.000000
 Stoichiometry    C16H10
 Framework group  C1[X(C16H10)]
 Deg. of freedom    72
 Full point group                 C1      NOp   1
 Largest Abelian subgroup         C1      NOp   1
 Largest concise Abelian subgroup C1      NOp   1
                         Standard orientation:                         
 ---------------------------------------------------------------------
 Center     Atomic      Atomic             Coordinates (Angstroms)
 Number     Number       Type             X           Y           Z
 ---------------------------------------------------------------------
      1          6           0        5.485878   -1.196872    0.202074
      2          6           0        3.395905    0.006862    0.006852
      3          6           0        4.095733    1.200488   -0.215959
      4          6           0        5.494554    1.192385   -0.215215
      5          6           0        6.190374   -0.005636   -0.013782
      6          1           0        6.020008   -2.123548    0.353554
      7          1           0        3.554184    2.118928   -0.389949
      8          1           0        6.037447    2.113881   -0.369452
      9          6           0        1.920170    0.002764    0.006871
     10          6           0        0.711218    0.001840    0.005764
     11          6           0       -0.715207   -0.007135    0.006306
     12          6           0       -1.926300   -0.011405    0.007254
     13          6           0       -3.392474   -0.010866    0.006412
     14          6           0       -4.082512    1.190254    0.225795
     15          6           0       -5.479684    1.198373    0.206327
     16          1           0       -3.533082    2.103504    0.408453
     17          6           0       -5.497433   -1.186801   -0.218377
     18          6           0       -6.189149    0.014436   -0.019114
     19          1           0       -6.012841    2.124298    0.363446
     20          1           0       -6.043380   -2.103732   -0.380799
     21          6           0        4.088413   -1.191111    0.223870
     22          1           0        3.540165   -2.104432    0.408093
     23          1           0       -7.270803    0.031019   -0.039013
     24          1           0        7.271616   -0.010652   -0.025506
     25          6           0       -4.099209   -1.201451   -0.209121
     26          1           0       -3.564978   -2.126005   -0.364573
 ---------------------------------------------------------------------
 Rotational constants (GHZ):      2.8280864      0.1310512      0.1255962
 Standard basis: 6-31+G(d) (6D, 7F)
 There are   324 symmetry adapted cartesian basis functions of A   symmetry.
 There are   324 symmetry adapted basis functions of A   symmetry.
   324 basis functions,   552 primitive gaussians,   324 cartesian basis functions
    53 alpha electrons       53 beta electrons
       nuclear repulsion energy       789.3876420066 Hartrees.
 NAtoms=   26 NActive=   26 NUniq=   26 SFac= 1.00D+00 NAtFMM=   60 NAOKFM=F Big=F
 Integral buffers will be    131072 words long.
 Raffenetti 2 integral format.
 Two-electron integral symmetry is turned on.
 Nuclear repulsion after empirical dispersion term =      789.3726809654 Hartrees.
 One-electron integrals computed using PRISM.
 NBasis=   324 RedAO= T EigKep=  1.02D-06  NBF=   324
 NBsUse=   319 1.00D-06 EigRej=  7.07D-07 NBFU=   319
 Initial guess from the checkpoint file:  "D:\machine learning\molecule_49.chk"
 B after Tr=     0.000000    0.000000    0.000000
         Rot=    1.000000    0.000219    0.000038   -0.000078 Ang=   0.03 deg.
 ExpMin= 4.38D-02 ExpMax= 3.05D+03 ExpMxC= 4.57D+02 IAcc=2 IRadAn=         4 AccDes= 0.00D+00
 Harris functional with IExCor=  402 and IRadAn=       4 diagonalized for initial guess.
 HarFok:  IExCor=  402 AccDes= 0.00D+00 IRadAn=         4 IDoV= 1 UseB2=F ITyADJ=14
 ICtDFT=  3500011 ScaDFX=  1.000000  1.000000  1.000000  1.000000
 FoFCou: FMM=F IPFlag=           0 FMFlag=      100000 FMFlg1=           0
         NFxFlg=           0 DoJE=T BraDBF=F KetDBF=T FulRan=T
         wScrn=  0.000000 ICntrl=     500 IOpCl=  0 I1Cent=   200000004 NGrid=           0
         NMat0=    1 NMatS0=      1 NMatT0=    0 NMatD0=    1 NMtDS0=    0 NMtDT0=    0
 Petite list used in FoFCou.
 Requested convergence on RMS density matrix=1.00D-08 within 128 cycles.
 Requested convergence on MAX density matrix=1.00D-06.
 Requested convergence on             energy=1.00D-06.
 No special actions if energy rises.
 SCF Done:  E(RB3LYP) =  -615.652768089     A.U. after   15 cycles
            NFock= 15  Conv=0.36D-08     -V/T= 2.0102
 Calling FoFJK, ICntrl=      2127 FMM=F ISym2X=0 I1Cent= 0 IOpClX= 0 NMat=1 NMatS=1 NMatT=0.
 ***** Axes restored to original set *****
 -------------------------------------------------------------------
 Center     Atomic                   Forces (Hartrees/Bohr)
 Number     Number              X              Y              Z
 -------------------------------------------------------------------
      1        6           0.002204900   -0.004768400   -0.003700550
      2        6           0.019953850    0.004904264   -0.031707662
      3        6          -0.004501673   -0.000992922    0.007188589
      4        6           0.002507152    0.005412678   -0.003033589
      5        6           0.002422049    0.000916319   -0.003647247
      6        1          -0.000851904    0.003528646    0.002745615
      7        1           0.001588730   -0.002613726   -0.002237938
      8        1          -0.001612254   -0.003974531    0.000673327
      9        6          -0.025214666   -0.007314690    0.039875973
     10        6           0.035779125    0.009639115   -0.055686269
     11        6          -0.033605317   -0.008957265    0.052109380
     12        6           0.020678220    0.005926364   -0.031785461
     13        6          -0.016581397   -0.005447569    0.027547947
     14        6           0.003972430    0.000787546   -0.006987374
     15        6          -0.003177008    0.002932643    0.003266846
     16        1          -0.000908062   -0.002497464    0.001622196
     17        6          -0.000732249   -0.006145008    0.003426173
     18        6          -0.002239058    0.000456801    0.003256842
     19        1           0.002464268   -0.003898741   -0.001550156
     20        1          -0.000199047    0.004655224   -0.002135733
     21        6          -0.004735304   -0.000129593    0.007062284
     22        1           0.000708770    0.002790109   -0.001616244
     23        1           0.001908172    0.000970522   -0.002717553
     24        1          -0.001995126   -0.000400578    0.003298183
     25        6           0.004968194    0.001200006   -0.007641935
     26        1          -0.002802796    0.003020249    0.002374353
 -------------------------------------------------------------------
 Cartesian Forces:  Max     0.055686269 RMS     0.014011365

 GradGradGradGradGradGradGradGradGradGradGradGradGradGradGradGradGradGrad
 Berny optimization.
 Using GEDIIS/GDIIS optimizer.
 FormGI is forming the generalized inverse of G from B-inverse, IUseBI=4.
 Internal  Forces:  Max     0.049004854 RMS     0.006192495
 Search for a local minimum.
 Step number   2 out of a maximum of  133
 All quantities printed in internal units (Hartrees-Bohrs-Radians)
 Mixed Optimization -- RFO/linear search
 Update second derivatives using D2CorX and points    1    2
 DE= -3.19D-02 DEPred=-2.91D-02 R= 1.10D+00
 TightC=F SS=  1.41D+00  RLast= 3.01D-01 DXNew= 5.0454D-01 9.0227D-01
 Trust test= 1.10D+00 RLast= 3.01D-01 DXMaxT set to 5.05D-01
 ITU=  1  0
 Use linear search instead of GDIIS.
     Eigenvalues ---    0.00230   0.00230   0.00230   0.00387   0.00467
     Eigenvalues ---    0.01496   0.01697   0.02039   0.02045   0.02050
     Eigenvalues ---    0.02054   0.02055   0.02060   0.02064   0.02064
     Eigenvalues ---    0.02074   0.02083   0.02087   0.02090   0.02097
     Eigenvalues ---    0.02099   0.02104   0.02115   0.03699   0.04484
     Eigenvalues ---    0.04677   0.04766   0.15972   0.16000   0.16000
     Eigenvalues ---    0.16000   0.16000   0.16000   0.16000   0.16000
     Eigenvalues ---    0.16000   0.16009   0.21778   0.21999   0.22000
     Eigenvalues ---    0.22001   0.22022   0.23486   0.24987   0.25000
     Eigenvalues ---    0.25571   0.27893   0.29829   0.36871   0.36915
     Eigenvalues ---    0.37007   0.37161   0.37275   0.37348   0.37496
     Eigenvalues ---    0.37676   0.37749   0.38016   0.41099   0.41256
     Eigenvalues ---    0.41556   0.41959   0.45028   0.45202   0.45248
     Eigenvalues ---    0.45388   0.45555   0.45646   0.45872   0.46076
     Eigenvalues ---    1.01836   1.05377
 RFO step:  Lambda=-2.34486076D-03 EMin= 2.29999686D-03
 Quartic linear search produced a step of  0.60148.
 Iteration  1 RMS(Cart)=  0.14098815 RMS(Int)=  0.02339480
 Iteration  2 RMS(Cart)=  0.19248138 RMS(Int)=  0.00787570
 Iteration  3 RMS(Cart)=  0.07218540 RMS(Int)=  0.00057602
 Iteration  4 RMS(Cart)=  0.00194183 RMS(Int)=  0.00013235
 Iteration  5 RMS(Cart)=  0.00000019 RMS(Int)=  0.00013235
 Variable       Old X    -DE/DX   Delta X   Delta X   Delta X     New X
                                 (Linear)    (Quad)   (Total)
    R1        2.64693  -0.00115  -0.00323   0.00063  -0.00262   2.64431
    R2        2.04140   0.00453   0.01373  -0.00450   0.00923   2.05063
    R3        2.64117  -0.00187  -0.00431   0.00063  -0.00369   2.63749
    R4        2.64842   0.00374  -0.00122   0.01581   0.01461   2.66302
    R5        2.78874  -0.02985  -0.08066  -0.01660  -0.09726   2.69148
    R6        2.64683   0.00495   0.00320   0.01260   0.01581   2.66265
    R7        2.64343  -0.00272  -0.00670   0.00129  -0.00541   2.63802
    R8        2.04150   0.00371   0.01192  -0.00482   0.00710   2.04860
    R9        2.64561  -0.00056  -0.00108  -0.00089  -0.00198   2.64363
   R10        2.04202   0.00429   0.01279  -0.00387   0.00893   2.05095
   R11        2.04339   0.00387   0.01204  -0.00431   0.00774   2.05113
   R12        2.28459   0.01788   0.01320   0.00827   0.02147   2.30606
   R13        2.69561  -0.04900  -0.14027  -0.01414  -0.15442   2.54119
   R14        2.28865   0.01364   0.00703   0.01131   0.01835   2.30700
   R15        2.77067  -0.02472  -0.06404  -0.01192  -0.07596   2.69471
   R16        2.65032   0.00405   0.00237   0.01087   0.01326   2.66357
   R17        2.64793   0.00448   0.00283   0.01142   0.01426   2.66219
   R18        2.64057  -0.00174  -0.00364  -0.00001  -0.00364   2.63693
   R19        2.04341   0.00299   0.00954  -0.00370   0.00584   2.04925
   R20        2.64283   0.00080   0.00249  -0.00180   0.00068   2.64351
   R21        2.04080   0.00485   0.01503  -0.00548   0.00955   2.05035
   R22        2.64639  -0.00088  -0.00155  -0.00113  -0.00269   2.64370
   R23        2.03986   0.00511   0.01549  -0.00523   0.01026   2.05012
   R24        2.64246  -0.00241  -0.00575   0.00086  -0.00489   2.63757
   R25        2.04461   0.00340   0.01059  -0.00373   0.00685   2.05147
   R26        2.04289   0.00320   0.01033  -0.00419   0.00614   2.04903
   R27        2.03913   0.00466   0.01477  -0.00585   0.00892   2.04804
[...]
 -0.00000355,-0.00000728,-0.00000013,-0.00000360,0.00000430,0.00000807,
 -0.00000295,0.00000365,0.00000668,0.00000290,0.00000457,-0.00000285,-0
 .00000121,-0.00000428,0.00000443,0.00001506,-0.00004307,0.00001981,-0.
 00003065,-0.00003033,-0.00004129,-0.00021412,0.00000936,0.00011376,0.0
 0014959,0.00062828,0.00041838,0.00378498,-0.00096684,0.00538084,-0.002
 67809,0.01452687,0.00743843,-0.08133885,0.08274776,0.05998915,-0.00272
 074,-0.00045271,-0.00216571,0.00487968,-0.00101918,0.00316808,0.005457
 84,-0.00521798,-0.00295020,0.07624259,-0.00001554,-0.00001368,0.000034
 96,-0.00002274,0.00000554,0.00001401,0.00002147,0.00002737,0.00001410,
 -0.00002076,-0.00002958,0.00000242,0.00002514,0.00002375,-0.00003039,0
 .00000620,-0.00001258,-0.00000621,-0.00000251,-0.00000125,-0.00000115,
 0.00000731,0.00001179,-0.00000844,0.00005026,-0.00011702,-0.00004745,-
 0.00000100,0.00005814,-0.00001395,-0.00009950,0.00001111,0.00013660,-0
 .00002365,0.00013572,0.00006686,-0.00072331,0.00148601,0.00169450,-0.0
 0252683,0.00714219,0.00341163,0.08277389,-0.23695396,-0.10621708,-0.00
 006974,0.00083125,-0.00040958,-0.00163409,-0.00384015,0.00358417,0.011
 91451,-0.01801875,-0.01607223,-0.08932135,0.24953242,-0.00001373,-0.00
 002079,0.00002762,-0.00004484,0.00000015,0.00004618,0.00003559,0.00001
 463,-0.00000807,-0.00001804,-0.00002291,0.00000029,0.00002586,0.000022
 28,-0.00003109,0.00000568,-0.00000591,-0.00000490,-0.00000407,-0.00000
 164,0.00000393,0.00000877,0.00000883,-0.00001056,0.00008336,-0.0000984
 0,-0.00008064,-0.00006860,0.00013106,0.00002986,0.00007740,0.00006497,
 -0.00026515,0.00049126,-0.00105508,-0.00018086,0.00534746,0.00214513,-
 0.00117255,0.00918019,-0.02263849,-0.00863491,0.05999539,-0.10622515,-
 0.11759870,-0.00220920,0.00017865,-0.00080379,0.00321381,0.00264964,0.
 00167584,-0.00469964,0.01015982,0.00933715,-0.06855233,0.11385245,0.11
 882080,-0.00000703,-0.00001120,0.00002141,0.00001533,0.00000425,-0.000
 03790,-0.00000616,0.00002566,0.00003160,-0.00001761,-0.00001215,0.0000
 0248,0.00000328,0.00001093,-0.00000214,0.00000221,-0.00000794,0.000000
 12,0.00000335,0.00000207,-0.00000469,0.00000302,0.00000482,-0.00000047
 ,0.00002826,-0.00005476,0.00000463,-0.00004267,0.00008165,-0.00003681,
 -0.00023191,-0.00001913,0.00014531,0.00030424,-0.00071465,0.00031556,0
 .00348645,0.00056680,0.00568602,-0.00077517,0.00032408,0.00013134,0.00
 397440,0.00217653,0.00425686,-0.00075160,-0.00008503,-0.00058365,-0.05
 140944,-0.04177073,0.02687667,0.00557098,0.01147241,-0.00481975,0.0002
 5994,0.00061634,-0.00015929,0.04407056,0.00003098,0.00004620,-0.000076
 01,0.00004548,-0.00002389,-0.00001968,-0.00004564,-0.00006942,-0.00004
 171,0.00004814,0.00006357,-0.00000351,-0.00004942,-0.00005310,0.000054
 75,-0.00000958,0.00001915,0.00000825,0.00000587,0.00000044,0.00000301,
 -0.00001403,-0.00001824,0.00001582,-0.00012346,0.00026063,0.00012901,0
 .00002158,-0.00013396,-0.00001878,0.00008717,-0.00017299,-0.00012767,-
 0.00000030,0.00009268,0.00004320,0.00029660,0.00196784,0.00008894,0.00
 035693,0.00040974,-0.00052699,0.00275805,-0.00197604,-0.00341030,-0.00
 009302,-0.00003595,0.00003835,-0.04175102,-0.29744966,0.09061620,-0.00
 566083,-0.01823399,0.01085972,-0.00029997,-0.00100371,0.00058939,0.044
 49504,0.31453481,-0.00001515,-0.00003594,0.00004513,-0.00005114,0.0000
 2370,0.00004064,0.00004327,0.00003758,0.00000941,-0.00002982,-0.000038
 68,-0.00000779,0.00003274,0.00003339,-0.00003449,0.00000269,0.00000067
 ,0.00000031,-0.00000538,0.00000147,0.00000408,0.00000847,0.00000408,-0
 .00000940,0.00011278,-0.00018445,-0.00010841,-0.00006219,0.00001642,0.
 00003214,0.00006235,0.00015956,-0.00025411,0.00025354,0.00095762,-0.00
 002091,0.00570356,-0.00023240,-0.00147952,0.00012172,-0.00059823,-0.00
 087913,0.00420147,-0.00243753,0.00076446,-0.00058189,0.00002148,-0.000
 24301,0.02684572,0.09059728,-0.08704025,-0.00307235,-0.01537137,0.0094
 4284,-0.00005950,-0.00083034,0.00038000,-0.03298198,-0.09764505,0.0859
 7808,-0.14361775,0.00566570,0.12576113,-0.10091554,0.04247491,0.052814
 03,0.02258005,0.02091177,-0.02305498,-0.02193349,0.01261438,0.02271896
 ,0.00400486,-0.04495872,0.00945914,-0.00268449,-0.00250617,0.00921482,
 0.00416387,-0.00168343,0.00299040,-0.00076636,0.00032198,0.00014183,-0
 .01470937,0.01171337,0.02305731,0.00468992,0.00188488,-0.00386177,-0.0
 0119903,-0.00089869,0.00270015,0.00046392,-0.00000624,-0.00148181,-0.0
 0017489,0.00009244,0.00042020,0.00003758,-0.00015993,-0.00012231,0.000
 02489,-0.00004637,0.00011653,-0.00000309,-0.00002554,-0.00000895,-0.00
 014339,0.00001088,0.00004097,-0.00000128,0.00001094,-0.00001202,-0.000
 00918,0.00000439,0.00002006,-0.00001404,-0.00001489,0.00002649,0.29629
 144,-0.02873880,-0.13346376,0.05146162,0.06677404,-0.24254253,-0.08378
 905,0.00026930,-0.05104784,0.00580704,0.01175080,-0.00996085,-0.017627
 63,-0.01978255,0.01812795,0.02917156,0.01449207,0.00720605,-0.02260000
 ,-0.00104190,-0.00359979,0.00258845,0.00031519,0.00037245,-0.00059778,
 0.00746749,0.01159454,-0.01250315,-0.00551961,-0.00302365,0.00900922,0
 .00216304,0.00027560,-0.00330040,-0.00124292,-0.00038463,0.00190934,0.
 00045156,0.00028070,-0.00073881,-0.00020099,0.00013171,0.00018117,0.00
 008630,0.00005078,-0.00010757,0.00001633,-0.00010091,0.00002447,0.0000
 0543,-0.00004419,-0.00009185,-0.00013549,0.00000254,0.00013536,-0.0000
 0589,0.00002823,0.00004592,-0.00000537,-0.00007130,0.00006701,-0.00277
 920,0.71062058,0.12926806,-0.00122356,-0.25889224,0.05036622,-0.046611
 47,-0.13577746,-0.02102109,-0.02581955,0.04358683,0.02282989,-0.018913
 61,-0.03912898,0.00685163,0.06771294,-0.01037167,0.00749464,0.00334391
 ,-0.00866153,0.00293820,0.00354164,0.00114553,0.00015845,-0.00054799,-
 0.00082731,0.02350181,-0.01899651,-0.03292648,-0.00310374,-0.00232728,
 0.00727081,0.00233598,0.00136724,-0.00318755,-0.00136727,-0.00000673,0
 .00155896,0.00045742,-0.00024772,-0.00050878,0.00000786,0.00018295,0.0
 0024558,0.00000561,0.00007023,-0.00004599,-0.00002557,0.00014018,-0.00
 005475,0.00012944,-0.00002563,-0.00012704,0.00009139,-0.00003690,-0.00
 000494,0.00000356,-0.00003831,-0.00006561,0.00000484,0.00009879,-0.000
 09744,-0.25097985,-0.05540872,0.52222389,0.00125651,-0.01635988,0.0052
 9317,0.00508188,0.01164723,-0.00390788,0.00326454,0.00201478,0.0039715
 7,-0.00070594,0.00029527,0.00004648,0.00339856,0.00067419,0.00592976,-
 0.00271910,-0.00007087,-0.00220950,0.00045702,0.00062240,-0.00011002,-
 0.00075099,-0.00009843,-0.00057799,-0.00219288,0.00039742,-0.00222422,
 0.00005906,-0.00002156,0.00013113,0.00007616,-0.00010215,0.00007457,0.
 00001274,0.00006087,-0.00001695,-0.00002670,-0.00002892,0.00002175,0.0
 0000563,0.00001052,-0.00000665,0.00000391,-0.00000094,-0.00000216,-0.0
 0000218,0.00000545,0.00000069,-0.00000532,0.00000198,-0.00001242,0.000
 00690,-0.00000077,-0.00000527,0.00000411,-0.00000111,-0.00000367,0.000
 00470,0.00000303,-0.00000499,-0.05152089,-0.04354592,0.02759981,0.0443
 0055,0.00065312,0.00111643,-0.00076861,-0.00525605,-0.01837650,0.01033
 603,0.00264783,-0.00189974,-0.00337134,0.00033841,0.00050165,-0.000552
 19,0.00007441,0.00169076,0.00043492,-0.00045107,0.00082436,0.00017065,
 -0.00026873,-0.00097428,0.00056734,-0.00010472,-0.00003111,0.00004069,
 -0.00095318,0.00071435,0.00097428,0.00050486,-0.00003463,-0.00075021,0
 .00003300,-0.00009122,-0.00002408,0.00002430,0.00019241,-0.00005540,0.
 00002203,-0.00012842,-0.00001087,0.00002988,-0.00003525,0.00011539,-0.
 00003826,0.00002148,-0.00004514,0.00000710,0.00000671,-0.00001217,0.00
 004211,0.00000870,-0.00000786,0.00000738,-0.00000792,0.00001008,-0.000
 00495,0.00000937,0.00000537,0.00000744,-0.00001232,-0.00000446,-0.0426
 3716,-0.29893240,0.09241454,0.04531150,0.31541783,0.00354556,0.0253052
 6,-0.00441383,-0.00217468,-0.01559330,0.00822735,0.00392674,-0.0022727
 6,0.00027289,0.00003201,-0.00057129,-0.00068143,0.00599515,-0.00045433
 ,-0.00179948,-0.00217175,-0.00040101,-0.00079865,-0.00002014,-0.000807
 03,0.00053718,-0.00057816,0.00003352,-0.00025267,-0.00208454,-0.001047
 43,-0.00030419,0.00007801,0.00004624,0.00001895,0.00006522,0.00017556,
 -0.00000355,-0.00001244,-0.00010629,0.00003803,0.00001043,0.00005803,-
 0.00004483,-0.00003546,-0.00001119,-0.00001815,0.00001881,0.00000095,0
 .00001524,0.00000225,-0.00001484,0.00000268,-0.00002906,-0.00000538,-0
 .00000172,-0.00001525,0.00000313,0.00000849,-0.00000131,0.00000308,0.0
 0000954,-0.00000354,-0.00000792,0.00001316,0.02749666,0.09372672,-0.08
 821639,-0.03428099,-0.09931711,0.08768130,-0.00001672,-0.00003727,0.00
 004402,0.00000006,0.00002775,-0.00003287,0.00001406,0.00005241,0.00004
 825,-0.00002891,-0.00003429,-0.00000347,0.00001760,0.00002925,-0.00001
 187,-0.00000222,0.00000210,0.00000766,-0.00000078,0.00000782,-0.000003
 84,0.00000463,-0.00000051,-0.00000253,0.00006064,-0.00017945,-0.000066
 69,0.00004345,0.00010411,0.00004162,-0.00008645,0.00008093,0.00008909,
 -0.00062953,-0.00017924,-0.00049695,-0.00044669,0.00022493,-0.00072609
 ,0.00532374,-0.00071284,0.00253934,0.00078986,0.00059625,0.00387295,-0
 .00002796,0.00008015,0.00021625,-0.00251217,-0.00296663,0.00919561,-0.
 12405492,-0.01789044,0.13604615,-0.00246526,-0.00045117,-0.00210184,-0
 .00248536,0.00003123,-0.00212330,0.00000154,0.00003349,-0.00005514,0.0
 0000130,-0.00000493,0.00000386,0.12194383,-0.00000145,-0.00000231,0.00
 000368,0.00000189,0.00000375,-0.00000595,0.00000114,0.00000298,0.00000
 453,-0.00000186,-0.00000134,-0.00000140,0.00000058,0.00000198,0.000000
 67,-0.00000119,0.00000165,0.00000203,0.00000023,0.00000217,-0.00000086
 ,0.00000002,-0.00000128,0.00000024,0.00000372,-0.00001663,-0.00000309,
 0.00000668,-0.00000872,-0.00000127,-0.00001657,0.00006111,0.00001661,-
 0.00005319,0.00013797,-0.00003107,0.00014441,-0.00116856,-0.00019493,-
 0.00014924,-0.00533081,0.00147862,-0.01649053,0.00138382,0.02544928,-0
 .00081744,-0.00005649,0.00127018,0.01413412,0.00796030,-0.02211736,-0.
 01789691,-0.06473346,0.03029459,-0.00003238,0.00068794,-0.00041523,-0.
 00038836,0.00071561,0.00012690,-0.00000032,0.00000029,-0.00000390,-0.0
 0000023,-0.00000137,0.00000089,0.01884579,0.06412792,0.00000319,0.0000
 1385,-0.00001091,-0.00001868,-0.00001262,0.00003966,0.00000467,-0.0000
 1876,-0.00002814,0.00000732,0.00000545,0.00000129,0.00000223,-0.000006
 01,-0.00000839,0.00000398,-0.00000387,-0.00000573,-0.00000048,-0.00000
 519,0.00000456,0.00000125,0.00000416,-0.00000218,-0.00001124,0.0000507
 9,-0.00000368,0.00002327,-0.00002915,0.00004685,0.00004263,-0.00001279
 ,-0.00008366,-0.00050115,0.00000241,-0.00019929,-0.00072526,-0.0002184
 0,0.00023381,0.00254897,0.00236228,0.00287943,0.00558586,-0.00072516,-
 0.00517365,0.00030302,-0.00011162,-0.00033554,0.00745095,0.00405926,-0
 .00849137,0.13605477,0.03029319,-0.24776175,-0.00214449,0.00021921,-0.
 00060965,-0.00208471,-0.00050886,-0.00062548,0.00000588,-0.00000072,0.
 00000182,-0.00000157,0.00000429,0.00000278,-0.15024194,-0.03284253,0.2
 5843215,0.00077529,0.00061269,0.00382922,-0.00042691,0.00013377,-0.000
 73121,0.00468303,0.00256112,0.00325692,-0.00248763,-0.00295014,0.00920
 769,-0.12404445,-0.01788593,0.13604873,-0.00246061,-0.00046044,-0.0021
 0992,-0.00017447,-0.00019334,0.00046804,-0.00247912,0.00003136,-0.0021
 2981,-0.00065192,-0.00000502,-0.00048545,-0.00003434,-0.00003728,0.000
 02306,0.00007148,-0.00002133,0.00001648,-0.00001859,0.00003032,0.00000
 726,0.00002895,-0.00003091,-0.00003264,0.00000034,-0.00001706,0.000034
 87,-0.00001080,-0.00000128,0.00000178,0.00000307,0.00001441,-0.0000114
 6,0.00001263,0.00000386,0.00000002,0.00000526,-0.00000580,0.00000750,-
 0.00000313,-0.00000135,-0.00000142,-0.00000171,0.00000663,-0.00000599,
 0.00533527,-0.00073292,0.00263204,-0.00002233,0.00009943,0.00020390,-0
 .00000897,-0.00000125,0.00000486,0.12193436,-0.01649197,0.00138943,0.0
 2544468,0.00015188,-0.00118557,-0.00019771,0.00199119,-0.00401930,-0.0
 0192557,0.01413641,0.00796781,-0.02211278,-0.01788324,-0.06473422,0.03
 029661,-0.00003032,0.00067892,-0.00042304,0.00071710,0.00024760,-0.001
 11097,-0.00038893,0.00072145,0.00012328,-0.00006361,0.00017991,-0.0000
 2379,-0.00001011,0.00003761,0.00000814,0.00001036,-0.00003621,-0.00000
 206,-0.00000464,0.00001947,0.00000168,0.00001271,-0.00002217,-0.000012
 35,0.00000327,-0.00001104,0.00002004,-0.00000784,0.00000167,0.00000316
 ,0.00000008,0.00001171,-0.00000680,0.00000901,0.00000260,-0.00000008,0
 .00000670,-0.00000354,0.00000114,-0.00000185,-0.00000213,-0.00000244,-
 0.00000099,0.00000629,-0.00000588,-0.00014940,-0.00534217,0.00150917,-
 0.00081547,-0.00004487,0.00126491,-0.00000607,-0.00000057,0.00000223,0
 .01882807,0.06412594,0.00559414,-0.00074002,-0.00516175,-0.00074066,-0
 .00017774,0.00023659,0.00333583,-0.00278338,0.00221029,0.00743095,0.00
 403751,-0.00849396,0.13605602,0.03030644,-0.24778089,-0.00215102,0.000
 23130,-0.00059835,0.00037411,0.00028111,-0.00048523,-0.00208649,-0.000
 51795,-0.00062246,-0.00047110,-0.00011261,-0.00022429,0.00002108,0.000
 05337,-0.00005693,0.00000642,0.00004413,0.00006123,0.00001360,-0.00005
 183,-0.00002135,-0.00004013,0.00004552,0.00004906,-0.00000323,0.000024
 07,-0.00005485,0.00001481,0.00000152,0.00000096,-0.00000262,-0.0000174
 4,0.00001680,-0.00001903,-0.00000665,0.00000022,-0.00000549,0.00000799
 ,-0.00001320,0.00000571,0.00000051,0.00000145,0.00000302,-0.00000632,0
 .00000769,0.00255540,0.00239262,0.00281584,0.00029947,-0.00013056,-0.0
 0032615,0.00001240,0.00000179,-0.00000632,-0.15024060,-0.03285051,0.25
 845434,-0.00007198,-0.00003492,-0.00001244,-0.00004651,-0.00001309,0.0
 0022919,0.00000795,0.00014881,0.00003803,0.00002569,-0.00001661,0.0000
 2951,-0.00000438,-0.00000817,0.00003914,-0.00005562,0.00009129,0.00007
 598,-0.00001092,0.00004610,-0.00000622,-0.00002921,-0.00006719,0.00003
 682,0.00012510,0.00003000,-0.00096539,-0.00075758,0.00050206,0.0019007
 6,0.00341580,0.00011626,-0.00174383,-0.00838481,-0.01913867,0.01654107
 ,-0.08280275,-0.00850086,0.03032426,0.02253559,0.00028314,-0.02107079,
 -0.01514916,-0.01612957,0.01535106,0.00327710,0.00257987,0.00397119,-0
 .14375980,-0.02841133,0.12936265,-0.00915805,0.03448300,0.02133948,-0.
 00055024,-0.00050966,-0.00005380,0.00074223,0.00030210,0.00374530,0.00
 008519,-0.00010145,-0.00011698,0.00000521,-0.00009204,0.00001941,0.004
 74448,0.00199687,0.00330861,-0.00002753,-0.00001314,0.00003962,0.30799
 180,-0.00006335,-0.00005836,0.00008227,-0.00055536,-0.00016687,0.00090
 983,0.00011656,0.00020467,-0.00026991,-0.00006193,0.00008035,0.0001376
 0,0.00006214,0.00000105,-0.00011796,0.00003328,-0.00005086,-0.00004960
 ,0.00000208,-0.00004063,0.00000094,0.00001250,0.00003572,-0.00001796,0
 .00146050,0.00053310,-0.00235963,-0.00266225,-0.00070384,0.00419285,0.
 00734142,-0.00048302,-0.01094584,-0.01463839,-0.00106974,0.02262284,-0
 .03294630,-0.27931103,0.07251860,0.02086695,-0.05110238,-0.02568440,-0
 .01525243,-0.02346542,0.02506434,0.00202430,-0.00175653,-0.00233512,0.
 00608389,-0.13327533,-0.00186141,0.00929981,0.04446698,-0.01799309,-0.
 00054628,-0.00002001,0.00074240,-0.01666794,0.00030279,0.02577536,0.00
 015495,-0.00018443,-0.00016796,0.00000605,0.00005442,-0.00001538,0.002
 53695,-0.00401720,-0.00279604,0.00001917,0.00000949,-0.00002803,-0.051
 15549,0.68704978,0.00002976,0.00006237,-0.00014411,0.00025414,0.000134
 71,-0.00027669,0.00003165,-0.00027025,-0.00003443,0.00010908,-0.000006
 61,-0.00008701,0.00000003,-0.00001451,0.00000458,0.00000958,0.00001318
 ,-0.00001867,-0.00002328,-0.00001659,0.00002732,0.00000880,0.00000102,
 -0.00002045,-0.00115768,-0.00021951,0.00127745,0.00221474,-0.00064460,
 -0.00281172,-0.00237242,0.00019013,0.00590466,0.01607766,0.02950495,-0
 .02649617,0.03273595,0.03525920,-0.11726747,-0.02308040,0.00579535,0.0
 4363226,0.01531737,0.02645795,-0.03239192,0.00398329,-0.00333713,0.000
 26646,0.12584936,0.05088240,-0.25897630,0.02387980,-0.05656556,-0.0236
 5695,-0.00008278,0.00077019,-0.00059005,0.00543837,-0.00030267,-0.0051
 0940,-0.00001209,0.00024815,0.00003182,-0.00001513,-0.00001759,0.00003
 515,0.00327854,-0.00192328,0.00219154,0.00000938,0.00000108,-0.0000150
 4,-0.26383687,0.02150700,0.53389341,-0.00001631,-0.00000444,-0.0000047
 0,-0.00002891,-0.00000585,0.00001801,0.00000020,-0.00000094,-0.0000182
 4,0.00000508,0.00000052,0.00000784,0.00000653,0.00000458,-0.00000974,0
 .00000606,-0.00000657,-0.00000522,-0.00000154,-0.00000376,0.00000091,0
 .00000506,0.00000608,-0.00000331,0.00003360,-0.00002293,-0.00003780,0.
 00003889,0.00005844,0.00011282,0.00015514,0.00001377,-0.00001944,-0.00
 221661,-0.00064997,-0.00207521,0.00514456,-0.00555071,-0.00224357,0.00
 416664,-0.00104012,0.00292280,-0.00052743,-0.00048442,-0.00015518,0.00
 045555,-0.00026889,-0.00002096,-0.00202747,0.01424130,0.00718523,0.003
 70093,-0.00110099,0.00565923,-0.00077495,0.00000481,-0.00055435,-0.002
 72625,-0.00042668,-0.00216638,0.00001426,0.00000795,-0.00000720,0.0000
 0754,0.00000830,0.00000933,-0.00017925,0.00071548,0.00037806,0.0000028
 5,0.00000081,-0.00000223,-0.08214759,0.08452916,0.06135315,0.07690341,
 0.00000068,-0.00000114,-0.00000339,-0.00001233,-0.00000437,0.00001906,
 0.00001381,-0.00002109,-0.00002343,0.00000124,0.00001230,-0.00000014,0
 .00000076,-0.00000040,-0.00000235,0.00000476,-0.00000526,-0.00000671,-
 0.00000190,-0.00000473,0.00000318,0.00000413,0.00000609,-0.00000612,-0
 .00002091,-0.00003631,0.00003557,0.00002315,0.00011339,-0.00003548,-0.
 00045175,-0.00009786,0.00071698,0.00053142,0.00050557,-0.00123598,0.01
 139043,-0.01847081,-0.01521074,-0.00169506,-0.00362809,0.00358743,-0.0
 0049054,0.00006306,0.00067493,0.00062371,-0.00096060,-0.00081574,-0.00
 274719,0.00767662,0.00379576,-0.00052890,0.00115274,0.00144476,0.00000
 258,0.00002197,-0.00012464,-0.00004979,0.00083482,-0.00043818,0.000005
 49,0.00000704,-0.00000577,-0.00000442,0.00001157,0.00000697,-0.0001903
 0,0.00025123,0.00027460,0.00000320,0.00000191,-0.00000484,0.08361267,-
 0.23703269,-0.10750940,-0.09002492,0.24960504,-0.00001380,-0.00000612,
 0.00000392,0.00001829,0.00001087,-0.00005113,-0.00001981,0.00001785,0.
 00002727,0.00000046,-0.00001051,0.00000395,-0.00000237,0.00000363,0.00
 000688,-0.00000343,0.00000368,0.00000760,0.00000152,0.00000538,-0.0000
 0454,-0.00000101,-0.00000427,0.00000494,-0.00001504,-0.00001082,0.0000
 3429,0.00011003,-0.00006033,-0.00004529,0.00000892,0.00002802,0.000125
 77,-0.00219344,0.00053715,-0.00031116,-0.00397437,0.01073792,0.0082929
 2,0.00298667,0.00257510,0.00115345,-0.00015656,0.00066491,-0.00048185,
 -0.00011031,0.00056031,0.00053856,0.00891516,-0.02222028,-0.00777040,0
 .00560119,0.00231525,-0.00149417,-0.00055157,-0.00012954,-0.00027611,-
 0.00220329,0.00015005,-0.00080860,-0.00000618,-0.00000297,0.00001309,0
 .00001100,-0.00000599,-0.00000172,0.00047081,-0.00110913,-0.00048817,-
 0.00000328,-0.00000213,0.00000631,0.06145424,-0.10891169,-0.11936828,-
 0.07032384,0.11486366,0.12088248||-0.00000003,-0.00000171,-0.00000011,
 -0.00000048,0.00000820,0.00000447,-0.00000074,-0.00000263,0.00000091,0
 .00000190,0.00000090,-0.00000187,0.00000006,0.00000182,-0.00000065,0.0
 0000006,0.00000093,0.00000013,0.00000037,-0.00000065,-0.00000062,-0.00
 000012,-0.00000092,-0.00000040,0.00000032,-0.00000316,-0.00000407,0.00
 000166,0.00000197,-0.00000247,0.00000107,-0.00000080,0.00000236,-0.000
 00400,0.00000398,-0.00000031,0.00000555,-0.00001947,0.00000062,-0.0000
 0621,0.00000842,0.00000612,0.00000241,0.00000594,-0.00000512,0.0000004
 1,-0.00000178,-0.00000052,-0.00000489,0.00000203,0.00000769,0.00000099
 ,-0.00000861,0.00000021,-0.00000028,-0.00000159,0.00000069,0.00000002,
 0.00000084,-0.00000074,0.,-0.00000462,-0.00000114,-0.00000008,0.000001
 27,-0.00000006,0.00000031,0.00000094,-0.00000039,-0.00000034,0.0000001
 4,0.00000068,0.00000315,0.00000839,-0.00000635,-0.00000111,0.00000018,
 0.00000095|||@


 MEMORIES ARE LIKE AN ENGLISH GRAMMER LESSON -
 PRESENT TENSE, AND PAST PERFECT.
 Job cpu time:       0 days  0 hours 24 minutes 52.0 seconds.
 File lengths (MBytes):  RWF=    507 Int=      0 D2E=      0 Chk=      9 Scr=      1
 Normal termination of Gaussian 09 at Sat Aug 26 02:20:30 2023.
