 Entering Link 1 = C:\G09W\l1.exe PID=      1932.
  
 Copyright (c) 1988,1990,1992,1993,1995,1998,2003,2009,2013,
            Gaussian, Inc.  All Rights Reserved.
  
 This is part of the Gaussian(R) 09 program.  It is based on
 the Gaussian(R) 03 system (copyright 2003, Gaussian, Inc.),
 the Gaussian(R) 98 system (copyright 1998, Gaussian, Inc.),
 the Gaussian(R) 94 system (copyright 1995, Gaussian, Inc.),
 the Gaussian 92(TM) system (copyright 1992, Gaussian, Inc.),
 the Gaussian 90(TM) system (copyright 1990, Gaussian, Inc.),
 the Gaussian 88(TM) system (copyright 1988, Gaussian, Inc.),
 the Gaussian 86(TM) system (copyright 1986, Carnegie Mellon
 University), and the Gaussian 82(TM) system (copyright 1983,
 Carnegie Mellon University). Gaussian is a federally registered
 trademark of Gaussian, Inc.
  
 This software contains proprietary and confidential information,
 including trade secrets, belonging to Gaussian, Inc.
  
 This software is provided under written license and may be
 used, copied, transmitted, or stored only in accord with that
 written license.
  
 The following legend is applicable only to US Government
 contracts under FAR:
  
                    RESTRICTED RIGHTS LEGEND
  
 Use, reproduction and disclosure by the US Government is
 subject to restrictions as set forth in subparagraphs (a)
 and (c) of the Commercial Computer Software - Restricted
 Rights clause in FAR 52.227-19.
  
 Gaussian, Inc.
 340 Quinnipiac St., Bldg. 40, Wallingford CT 06492
  
  
 ---------------------------------------------------------------
 Warning -- This program may not be used in any manner that
 competes with the business of Gaussian, Inc. or will provide
 assistance to any competitor of Gaussian, Inc.  The licensee
 of this program is prohibited from giving any competitor of
 Gaussian, Inc. access to this program.  By using this program,
 the user acknowledges that Gaussian, Inc. is engaged in the
 business of creating and licensing software in the field of
 computational chemistry and represents and warrants to the
 licensee that it is not a competitor of Gaussian, Inc. and that
 it will not use this program in any manner prohibited above.
 ---------------------------------------------------------------
  

 Cite this work as:
 Gaussian 09, Revision D.01,
 M. J. Frisch, G. W. Trucks, H. B. Schlegel, G. E. Scuseria, 
 M. A. Robb, J. R. Cheeseman, G. Scalmani, V. Barone, B. Mennucci, 
 G. A. Petersson, H. Nakatsuji, M. Caricato, X. Li, H. P. Hratchian, 
 A. F. Izmaylov, J. Bloino, G. Zheng, J. L. Sonnenberg, M. Hada, 
 M. Ehara, K. Toyota, R. Fukuda, J. Hasegawa, M. Ishida, T. Nakajima, 
 Y. Honda, O. Kitao, H. Nakai, T. Vreven, J. A. Montgomery, Jr., 
 J. E. Peralta, F. Ogliaro, M. Bearpark, J. J. Heyd, E. Brothers, 
 K. N. Kudin, V. N. Staroverov, T. Keith, R. Kobayashi, J. Normand, 
 K. Raghavachari, A. Rendell, J. C. Burant, S. S. Iyengar, J. Tomasi, 
 M. Cossi, N. Rega, J. M. Millam, M. Klene, J. E. Knox, J. B. Cross, 
 V. Bakken, C. Adamo, J. Jaramillo, R. Gomperts, R. E. Stratmann, 
 O. Yazyev, A. J. Austin, R. Cammi, C. Pomelli, J. W. Ochterski, 
 R. L. Martin, K. Morokuma, V. G. Zakrzewski, G. A. Voth, 
 P. Salvador, J. J. Dannenberg, S. Dapprich, A. D. Daniels, 
 O. Farkas, J. B. Foresman, J. V. Ortiz, J. Cioslowski, 
 and D. J. Fox, Gaussian, Inc., Wallingford CT, 2013.
 
 ******************************************
 Gaussian 09:  EM64W-G09RevD.01 13-Apr-2013
                11-Sep-2023 
 ******************************************
 %nprocshared=6
 Will use up to    6 processors via shared memory.
 %mem=6GB
 %chk=D:\User Dont delete\Downloads\molecule_25.chk
 ----------------------------------------------
 # opt freq b3lyp/6-31g empiricaldispersion=gd3
 ----------------------------------------------
 1/14=-1,18=20,19=15,26=3,38=1/1,3;
 2/9=110,12=2,17=6,18=5,40=1/2;
 3/5=1,6=6,11=2,16=1,25=1,30=1,71=1,74=-5,124=31/1,2,3;
 4//1;
 5/5=2,38=5/2;
 6/7=2,8=2,9=2,10=2,28=1/1;
 7//1,2,3,16;
 1/14=-1,18=20,19=15,26=3/3(2);
 2/9=110/2;
 99//99;
 2/9=110/2;
 3/5=1,6=6,11=2,16=1,25=1,30=1,71=1,74=-5,124=31/1,2,3;
 4/5=5,16=3,69=1/1;
 5/5=2,38=5/2;
 7//1,2,3,16;
 1/14=-1,18=20,19=15,26=3/3(-5);
 2/9=110/2;
 6/7=2,8=2,9=2,10=2,19=2,28=1/1;
 99/9=1/99;
 -------------------
 Title Card Required
 -------------------
 Symbolic Z-matrix:
 Charge =  0 Multiplicity = 1
 C                    -5.30642  -0.95004   1.13808 
 C                    -3.91026  -0.97885   1.0873 
 C                    -3.24353  -0.49817  -0.05029 
 C                    -3.96927  -0.06568  -1.15526 
 C                    -5.36722  -0.03465  -1.10341 
 C                    -6.03529  -0.47585   0.04315 
 H                    -5.82877  -1.29526   2.03458 
 H                    -3.33932  -1.35081   1.9443 
 H                    -3.4475    0.28095  -2.05001 
 H                    -5.9376    0.33606  -1.95976 
 C                    -1.70232  -0.51098  -0.00174 
 C                    -0.50316  -0.51544   0.00061 
 C                     1.03814  -0.52118   0.00361 
 C                     1.73324  -0.49899   1.21632 
 C                     1.73531  -0.50038  -1.20582 
 C                     3.13124  -0.50192   1.21672 
 H                     1.18549  -0.5016    2.1622 
 C                     3.13359  -0.50384  -1.20525 
 H                     1.18944  -0.5035   -2.1542 
 C                     3.82894  -0.50274   0.00634 
 H                     3.67742  -0.50148   2.16417 
 H                     3.6812   -0.50459  -2.15173 
 C                     5.36894  -0.50335   0.00776 
 H                     5.7252   -1.5123    0.01065 
 H                     5.72661  -0.00131  -0.86684 
 H                     5.725     0.00313   0.88046 
 F                    -7.384    -0.44393   0.09284 
 

 GradGradGradGradGradGradGradGradGradGradGradGradGradGradGradGradGradGrad
 Berny optimization.
 Initialization pass.
                           ----------------------------
                           !    Initial Parameters    !
                           ! (Angstroms and Degrees)  !
 --------------------------                            --------------------------
 ! Name  Definition              Value          Derivative Info.                !
 --------------------------------------------------------------------------------
 ! R1    R(1,2)                  1.3974         estimate D2E/DX2                !
 ! R2    R(1,6)                  1.3982         estimate D2E/DX2                !
 ! R3    R(1,7)                  1.0935         estimate D2E/DX2                !
 ! R4    R(2,3)                  1.4035         estimate D2E/DX2                !
 ! R5    R(2,8)                  1.0949         estimate D2E/DX2                !
 ! R6    R(3,4)                  1.3909         estimate D2E/DX2                !
 ! R7    R(3,11)                 1.542          estimate D2E/DX2                !
 ! R8    R(4,5)                  1.3993         estimate D2E/DX2                !
 ! R9    R(4,9)                  1.0922         estimate D2E/DX2                !
 ! R10   R(5,6)                  1.3984         estimate D2E/DX2                !
 ! R11   R(5,10)                 1.0937         estimate D2E/DX2                !
 ! R12   R(6,27)                 1.35           estimate D2E/DX2                !
 ! R13   R(11,12)                1.1992         estimate D2E/DX2                !
 ! R14   R(12,13)                1.5413         estimate D2E/DX2                !
 ! R15   R(13,14)                1.398          estimate D2E/DX2                !
 ! R16   R(13,15)                1.3961         estimate D2E/DX2                !
 ! R17   R(14,16)                1.398          estimate D2E/DX2                !
 ! R18   R(14,17)                1.093          estimate D2E/DX2                !
 ! R19   R(15,18)                1.3983         estimate D2E/DX2                !
 ! R20   R(15,19)                1.0943         estimate D2E/DX2                !
 ! R21   R(16,20)                1.3971         estimate D2E/DX2                !
 ! R22   R(16,21)                1.0936         estimate D2E/DX2                !
 ! R23   R(18,20)                1.3969         estimate D2E/DX2                !
 ! R24   R(18,22)                1.0935         estimate D2E/DX2                !
 ! R25   R(20,23)                1.54           estimate D2E/DX2                !
 ! R26   R(23,24)                1.07           estimate D2E/DX2                !
 ! R27   R(23,25)                1.07           estimate D2E/DX2                !
 ! R28   R(23,26)                1.07           estimate D2E/DX2                !
 ! A1    A(2,1,6)              119.958          estimate D2E/DX2                !
 ! A2    A(2,1,7)              120.0372         estimate D2E/DX2                !
 ! A3    A(6,1,7)              120.0045         estimate D2E/DX2                !
 ! A4    A(1,2,3)              119.8047         estimate D2E/DX2                !
 ! A5    A(1,2,8)              119.971          estimate D2E/DX2                !
 ! A6    A(3,2,8)              120.204          estimate D2E/DX2                !
 ! A7    A(2,3,4)              120.1683         estimate D2E/DX2                !
 ! A8    A(2,3,11)             116.5157         estimate D2E/DX2                !
 ! A9    A(4,3,11)             123.304          estimate D2E/DX2                !
 ! A10   A(3,4,5)              119.9162         estimate D2E/DX2                !
 ! A11   A(3,4,9)              120.0131         estimate D2E/DX2                !
 ! A12   A(5,4,9)              120.0388         estimate D2E/DX2                !
 ! A13   A(4,5,6)              120.0444         estimate D2E/DX2                !
 ! A14   A(4,5,10)             119.9699         estimate D2E/DX2                !
 ! A15   A(6,5,10)             119.9857         estimate D2E/DX2                !
 ! A16   A(1,6,5)              120.0015         estimate D2E/DX2                !
 ! A17   A(1,6,27)             119.9992         estimate D2E/DX2                !
 ! A18   A(5,6,27)             119.9992         estimate D2E/DX2                !
 ! A19   A(12,13,14)           119.9238         estimate D2E/DX2                !
 ! A20   A(12,13,15)           119.8422         estimate D2E/DX2                !
 ! A21   A(14,13,15)           120.1945         estimate D2E/DX2                !
 ! A22   A(13,14,16)           119.8308         estimate D2E/DX2                !
 ! A23   A(13,14,17)           120.098          estimate D2E/DX2                !
 ! A24   A(16,14,17)           120.0575         estimate D2E/DX2                !
 ! A25   A(13,15,18)           119.9314         estimate D2E/DX2                !
 ! A26   A(13,15,19)           120.108          estimate D2E/DX2                !
 ! A27   A(18,15,19)           119.947          estimate D2E/DX2                !
 ! A28   A(14,16,20)           119.944          estimate D2E/DX2                !
 ! A29   A(14,16,21)           119.9792         estimate D2E/DX2                !
 ! A30   A(20,16,21)           120.0767         estimate D2E/DX2                !
 ! A31   A(15,18,20)           119.8756         estimate D2E/DX2                !
 ! A32   A(15,18,22)           120.0284         estimate D2E/DX2                !
 ! A33   A(20,18,22)           120.0958         estimate D2E/DX2                !
 ! A34   A(16,20,18)           120.1873         estimate D2E/DX2                !
 ! A35   A(16,20,23)           119.9076         estimate D2E/DX2                !
 ! A36   A(18,20,23)           119.9051         estimate D2E/DX2                !
 ! A37   A(20,23,24)           109.4712         estimate D2E/DX2                !
 ! A38   A(20,23,25)           109.4712         estimate D2E/DX2                !
 ! A39   A(20,23,26)           109.4712         estimate D2E/DX2                !
 ! A40   A(24,23,25)           109.4713         estimate D2E/DX2                !
 ! A41   A(24,23,26)           109.4712         estimate D2E/DX2                !
 ! A42   A(25,23,26)           109.4712         estimate D2E/DX2                !
 ! A43   L(3,11,12,8,-1)       181.6583         estimate D2E/DX2                !
 ! A44   L(11,12,13,19,-1)     179.9996         estimate D2E/DX2                !
 ! A45   L(3,11,12,8,-2)       179.4663         estimate D2E/DX2                !
 ! A46   L(11,12,13,19,-2)     179.9998         estimate D2E/DX2                !
 ! D1    D(6,1,2,3)              1.6809         estimate D2E/DX2                !
 ! D2    D(6,1,2,8)           -179.9557         estimate D2E/DX2                !
 ! D3    D(7,1,2,3)           -178.1363         estimate D2E/DX2                !
 ! D4    D(7,1,2,8)              0.227          estimate D2E/DX2                !
 ! D5    D(2,1,6,5)              0.1967         estimate D2E/DX2                !
 ! D6    D(2,1,6,27)          -179.8033         estimate D2E/DX2                !
 ! D7    D(7,1,6,5)           -179.986          estimate D2E/DX2                !
 ! D8    D(7,1,6,27)             0.014          estimate D2E/DX2                !
 ! D9    D(1,2,3,4)             -3.6992         estimate D2E/DX2                !
 ! D10   D(1,2,3,11)           177.5162         estimate D2E/DX2                !
 ! D11   D(8,2,3,4)            177.9414         estimate D2E/DX2                !
 ! D12   D(8,2,3,11)            -0.8433         estimate D2E/DX2                !
 ! D13   D(2,3,4,5)              3.816          estimate D2E/DX2                !
 ! D14   D(2,3,4,9)           -178.2399         estimate D2E/DX2                !
 ! D15   D(11,3,4,5)          -177.4853         estimate D2E/DX2                !
 ! D16   D(11,3,4,9)             0.4589         estimate D2E/DX2                !
 ! D17   D(2,3,13,14)          -24.1431         estimate D2E/DX2                !
 ! D18   D(2,3,13,15)          158.2445         estimate D2E/DX2                !
 ! D19   D(4,3,13,14)          157.4038         estimate D2E/DX2                !
 ! D20   D(4,3,13,15)          -20.2086         estimate D2E/DX2                !
 ! D21   D(3,4,5,6)             -1.9249         estimate D2E/DX2                !
 ! D22   D(3,4,5,10)           178.0            estimate D2E/DX2                !
 ! D23   D(9,4,5,6)           -179.8685         estimate D2E/DX2                !
 ! D24   D(9,4,5,10)             0.0564         estimate D2E/DX2                !
 ! D25   D(4,5,6,1)             -0.0841         estimate D2E/DX2                !
 ! D26   D(4,5,6,27)           179.9159         estimate D2E/DX2                !
 ! D27   D(10,5,6,1)           179.991          estimate D2E/DX2                !
 ! D28   D(10,5,6,27)           -0.009          estimate D2E/DX2                !
 ! D29   D(12,13,14,16)       -179.8905         estimate D2E/DX2                !
 ! D30   D(12,13,14,17)          1.4544         estimate D2E/DX2                !
 ! D31   D(15,13,14,16)         -2.1768         estimate D2E/DX2                !
 ! D32   D(15,13,14,17)        179.1681         estimate D2E/DX2                !
 ! D33   D(12,13,15,18)        179.9195         estimate D2E/DX2                !
 ! D34   D(12,13,15,19)         -1.4191         estimate D2E/DX2                !
 ! D35   D(14,13,15,18)          2.2039         estimate D2E/DX2                !
 ! D36   D(14,13,15,19)       -179.1347         estimate D2E/DX2                !
 ! D37   D(13,14,16,20)          1.1475         estimate D2E/DX2                !
 ! D38   D(13,14,16,21)       -178.9793         estimate D2E/DX2                !
 ! D39   D(17,14,16,20)        179.8032         estimate D2E/DX2                !
 ! D40   D(17,14,16,21)         -0.3236         estimate D2E/DX2                !
 ! D41   D(13,15,18,20)         -1.1998         estimate D2E/DX2                !
 ! D42   D(13,15,18,22)        178.9699         estimate D2E/DX2                !
 ! D43   D(19,15,18,20)       -179.8633         estimate D2E/DX2                !
 ! D44   D(19,15,18,22)          0.3064         estimate D2E/DX2                !
 ! D45   D(14,16,20,18)         -0.1518         estimate D2E/DX2                !
 ! D46   D(14,16,20,23)        179.8876         estimate D2E/DX2                !
 ! D47   D(21,16,20,18)        179.9751         estimate D2E/DX2                !
 ! D48   D(21,16,20,23)          0.0145         estimate D2E/DX2                !
 ! D49   D(15,18,20,16)          0.1766         estimate D2E/DX2                !
 ! D50   D(15,18,20,23)       -179.8628         estimate D2E/DX2                !
 ! D51   D(22,18,20,16)       -179.9932         estimate D2E/DX2                !
 ! D52   D(22,18,20,23)         -0.0326         estimate D2E/DX2                !
 ! D53   D(16,20,23,24)         89.8801         estimate D2E/DX2                !
 ! D54   D(16,20,23,25)       -150.1199         estimate D2E/DX2                !
 ! D55   D(16,20,23,26)        -30.1199         estimate D2E/DX2                !
 ! D56   D(18,20,23,24)        -90.0806         estimate D2E/DX2                !
 ! D57   D(18,20,23,25)         29.9194         estimate D2E/DX2                !
 ! D58   D(18,20,23,26)        149.9194         estimate D2E/DX2                !
 --------------------------------------------------------------------------------
 Trust Radius=3.00D-01 FncErr=1.00D-07 GrdErr=1.00D-06
 Number of steps in this run=    142 maximum allowed number of steps=    162.
 GradGradGradGradGradGradGradGradGradGradGradGradGradGradGradGradGradGrad

                          Input orientation:                          
 ---------------------------------------------------------------------
 Center     Atomic      Atomic             Coordinates (Angstroms)
 Number     Number       Type             X           Y           Z
 ---------------------------------------------------------------------
      1          6           0       -5.306420   -0.950037    1.138085
      2          6           0       -3.910257   -0.978854    1.087296
      3          6           0       -3.243530   -0.498173   -0.050288
      4          6           0       -3.969271   -0.065678   -1.155262
      5          6           0       -5.367223   -0.034654   -1.103412
      6          6           0       -6.035290   -0.475849    0.043153
      7          1           0       -5.828773   -1.295255    2.034578
      8          1           0       -3.339319   -1.350808    1.944296
      9          1           0       -3.447499    0.280946   -2.050008
     10          1           0       -5.937596    0.336059   -1.959755
     11          6           0       -1.702325   -0.510980   -0.001736
     12          6           0       -0.503164   -0.515444    0.000607
     13          6           0        1.038137   -0.521178    0.003607
     14          6           0        1.733241   -0.498994    1.216317
     15          6           0        1.735313   -0.500380   -1.205823
     16          6           0        3.131236   -0.501924    1.216721
     17          1           0        1.185494   -0.501600    2.162198
     18          6           0        3.133594   -0.503838   -1.205245
     19          1           0        1.189441   -0.503497   -2.154202
     20          6           0        3.828940   -0.502741    0.006338
     21          1           0        3.677424   -0.501477    2.164168
     22          1           0        3.681197   -0.504590   -2.151735
     23          6           0        5.368939   -0.503352    0.007760
     24          1           0        5.725203   -1.512295    0.010652
     25          1           0        5.726612   -0.001311   -0.866839
     26          1           0        5.725000    0.003127    0.880457
     27          9           0       -7.383998   -0.443928    0.092838
 ---------------------------------------------------------------------
                    Distance matrix (angstroms):
                    1          2          3          4          5
     1  C    0.000000
     2  C    1.397384   0.000000
     3  C    2.423205   1.403451   0.000000
     4  C    2.798124   2.422073   1.390941   0.000000
     5  C    2.421968   2.795257   2.415365   1.399257   0.000000
     6  C    1.398207   2.420541   2.793413   2.423402   1.398420
     7  H    1.093494   2.162905   3.415478   3.891618   3.413082
     8  H    2.163349   1.094883   2.171296   3.414038   3.890139
     9  H    3.890352   3.412318   2.155808   1.092229   2.163558
    10  H    3.413069   3.888910   3.405877   2.164002   1.093653
    11  C    3.805452   2.505965   1.542023   2.582240   3.856430
    12  C    4.955199   3.606095   2.740893   3.681334   5.010897
    13  C    6.459440   5.086300   4.282068   5.159902   6.518499
    14  C    7.054530   5.665332   5.135421   6.191187   7.484206
    15  C    7.435193   6.112265   5.111179   5.721346   7.118525
    16  C    8.449913   7.058812   6.499459   7.498920   8.821857
    17  H    6.587476   5.229709   4.950895   6.145499   7.336235
    18  C    8.770639   7.422750   6.480869   7.116542   8.514363
    19  H    7.296215   6.061368   4.906905   5.272748   6.656861
    20  C    9.216058   7.828813   7.072698   7.896355   9.274699
    21  H    9.053370   7.678571   7.266598   8.347484   9.628117
    22  H    9.581158   8.267189   7.236571   7.727564   9.121058
    23  C   10.744321   9.353875   8.612666   9.420527  10.803682
    24  H   11.103330   9.710088   9.026092   9.870910  11.245731
    25  H   11.253782   9.881471   9.020925   9.700385  11.096407
    26  H   11.075519   9.687376   9.030622   9.905947  11.268300
    27  F    2.380130   3.652666   4.143296   3.655296   2.380316
                    6          7          8          9         10
     6  C    0.000000
     7  H    2.163297   0.000000
     8  H    3.412940   2.491710   0.000000
     9  H    3.413316   4.983846   4.316107   0.000000
    10  H    2.163419   4.315986   4.983792   2.492341   0.000000
    11  C    4.333341   4.667894   2.678077   2.805031   4.742240
    12  C    5.532432   5.753890   3.538295   3.675373   5.839617
    13  C    7.073683   7.202672   4.859699   4.998166   7.297294
    14  C    7.856649   7.647721   5.194844   6.173917   8.344249
    15  C    7.870376   8.267250   6.033106   5.308923   7.755100
    16  C    9.241382   9.032166   6.566433   7.386755   9.645513
    17  H    7.525340   7.060178   4.608966   6.310283   8.272277
    18  C    9.253525   9.562783   7.248142   6.681339   9.141181
    19  H    7.551548   8.211460   6.166464   4.703979   7.178949
    20  C    9.864335   9.900164   7.473876   7.601926   9.997716
    21  H    9.941639   9.540161   7.071378   8.314806  10.495562
    22  H    9.961349  10.420647   8.171976   7.172567   9.657366
    23  C   11.404317  11.407184   8.961144   9.087305  11.507104
    24  H   11.806120  11.731911   9.269876   9.570815  11.971624
    25  H   11.806593  11.984133   9.587217   9.254398  11.720155
    26  H   11.799786  11.683641   9.226417   9.633252  12.008072
    27  F    1.350000   2.629418   4.539797   4.540182   2.629373
                   11         12         13         14         15
    11  C    0.000000
    12  C    1.199171   0.000000
    13  C    2.740486   1.541315   0.000000
    14  C    3.645121   2.545531   1.397972   0.000000
    15  C    3.642429   2.542927   1.396141   2.422141   0.000000
    16  C    4.984779   3.832490   2.419314   1.397998   2.795948
    17  H    3.608627   2.743033   2.163703   1.093035   3.412604
    18  C    4.983432   3.831478   2.419207   2.797315   1.398285
    19  H    3.604924   2.740120   2.163180   3.414109   1.094262
    20  C    5.531276   4.332126   2.790865   2.419920   2.419217
    21  H    5.799390   4.707283   3.410902   2.162932   3.889555
    22  H    5.796968   4.705483   3.410504   3.890801   2.163615
    23  C    7.071274   5.872120   4.330841   3.831308   3.830931
    24  H    7.494728   6.307643   4.790715   4.291406   4.292203
    25  H    7.496484   6.310856   4.796847   4.531472   4.036638
    26  H    7.497181   6.311346   4.796921   4.037210   4.530308
    27  F    5.682856   6.881824   8.422962   9.186365   9.211490
                   16         17         18         19         20
    16  C    0.000000
    17  H    2.163294   0.000000
    18  C    2.421968   3.890343   0.000000
    19  H    3.890205   4.316402   2.163389   0.000000
    20  C    1.397075   3.411091   1.396940   3.410995   0.000000
    21  H    1.093608   2.491931   3.413020   4.983813   2.163144
    22  H    3.413057   4.983830   1.093486   2.491757   2.163125
    23  C    2.543404   4.705616   2.543256   4.705559   1.540000
    24  H    3.033829   5.124414   3.035100   5.126149   2.148263
    25  H    3.365682   5.481525   2.662855   4.742934   2.148263
    26  H    2.663788   4.743915   3.364901   5.480614   2.148263
    27  F   10.575284   8.815995  10.597563   8.863216  11.213426
                   21         22         23         24         25
    21  H    0.000000
    22  H    4.315906   0.000000
    23  C    2.740679   2.740784   0.000000
    24  H    3.138914   3.141552   1.070000   0.000000
    25  H    3.692742   2.467382   1.070000   1.747303   0.000000
    26  H    2.468827   3.691761   1.070000   1.747303   1.747303
    27  F   11.253834  11.290718  12.753359  13.152920  13.153136
                   26         27
    26  H    0.000000
    27  F   13.140245   0.000000
 Stoichiometry    C15H11F
 Framework group  C1[X(C15H11F)]
 Deg. of freedom    75
 Full point group                 C1      NOp   1
 Largest Abelian subgroup         C1      NOp   1
 Largest concise Abelian subgroup C1      NOp   1
                         Standard orientation:                         
 ---------------------------------------------------------------------
 Center     Atomic      Atomic             Coordinates (Angstroms)
 Number     Number       Type             X           Y           Z
 ---------------------------------------------------------------------
      1          6           0        4.229992   -1.190200    0.238469
      2          6           0        2.833666   -1.147732    0.272373
      3          6           0        2.166075    0.059938    0.016382
      4          6           0        2.890877    1.228236   -0.194466
      5          6           0        4.289001    1.185152   -0.230734
      6          6           0        4.958054   -0.023773   -0.015214
      7          1           0        4.753115   -2.135500    0.407229
      8          1           0        2.263359   -2.060847    0.471722
      9          1           0        2.368343    2.172090   -0.364938
     10          1           0        4.858741    2.097384   -0.428993
     11          6           0        0.624934    0.007772    0.015131
     12          6           0       -0.574228    0.003016    0.015541
     13          6           0       -2.115530   -0.003085    0.016066
     14          6           0       -2.808300   -1.190048   -0.239888
     15          6           0       -2.814914    1.187029    0.225116
     16          6           0       -4.206295   -1.192874   -0.241196
     17          1           0       -2.258790   -2.118204   -0.416783
     18          6           0       -4.213195    1.183932    0.224292
     19          1           0       -2.270829    2.118001    0.411319
     20          6           0       -4.906265   -0.005963   -0.010751
     21          1           0       -4.750704   -2.123443   -0.424601
     22          1           0       -4.762570    2.112042    0.404599
     23          6           0       -6.446255   -0.009534   -0.014948
     24          1           0       -6.805163   -0.205985    0.973734
     25          1           0       -6.804246    0.944517   -0.341337
     26          1           0       -6.799349   -0.769613   -0.680157
     27          9           0        6.306931   -0.064627   -0.052093
 ---------------------------------------------------------------------
 Rotational constants (GHZ):      2.7820193      0.1459693      0.1393253
 Standard basis: 6-31G (6D, 7F)
 There are   166 symmetry adapted cartesian basis functions of A   symmetry.
 There are   166 symmetry adapted basis functions of A   symmetry.
   166 basis functions,   396 primitive gaussians,   166 cartesian basis functions
    55 alpha electrons       55 beta electrons
       nuclear repulsion energy       866.6321393456 Hartrees.
 NAtoms=   27 NActive=   27 NUniq=   27 SFac= 1.00D+00 NAtFMM=   60 NAOKFM=F Big=F
 Integral buffers will be    131072 words long.
 Raffenetti 2 integral format.
 Two-electron integral symmetry is turned on.
 Nuclear repulsion after empirical dispersion term =      866.6146412177 Hartrees.
 One-electron integrals computed using PRISM.
 NBasis=   166 RedAO= T EigKep=  1.92D-04  NBF=   166
 NBsUse=   166 1.00D-06 EigRej= -1.00D+00 NBFU=   166
 ExpMin= 1.61D-01 ExpMax= 7.00D+03 ExpMxC= 1.05D+03 IAcc=1 IRadAn=         1 AccDes= 0.00D+00
 Harris functional with IExCor=  402 and IRadAn=       1 diagonalized for initial guess.
 HarFok:  IExCor=  402 AccDes= 0.00D+00 IRadAn=         1 IDoV= 1 UseB2=F ITyADJ=14
 ICtDFT=  3500011 ScaDFX=  1.000000  1.000000  1.000000  1.000000
 FoFCou: FMM=F IPFlag=           0 FMFlag=      100000 FMFlg1=           0
         NFxFlg=           0 DoJE=T BraDBF=F KetDBF=T FulRan=T
         wScrn=  0.000000 ICntrl=     500 IOpCl=  0 I1Cent=   200000004 NGrid=           0
         NMat0=    1 NMatS0=      1 NMatT0=    0 NMatD0=    1 NMtDS0=    0 NMtDT0=    0
 Petite list used in FoFCou.
 Keep R1 ints in memory in canonical form, NReq=98502739.
 Requested convergence on RMS density matrix=1.00D-08 within 128 cycles.
 Requested convergence on MAX density matrix=1.00D-06.
 Requested convergence on             energy=1.00D-06.
 No special actions if energy rises.
 Integral accuracy reduced to 1.0D-05 until final iterations.
 Initial convergence to 1.0D-05 achieved.  Increase integral accuracy.
 SCF Done:  E(RB3LYP) =  -677.862019036     A.U. after   15 cycles
            NFock= 15  Conv=0.71D-08     -V/T= 2.0058

 **********************************************************************

            Population analysis using the SCF density.

 **********************************************************************

 Orbital symmetries:
       Occupied  (A) (A) (A) (A) (A) (A) (A) (A) (A) (A) (A) (A)
                 (A) (A) (A) (A) (A) (A) (A) (A) (A) (A) (A) (A)
                 (A) (A) (A) (A) (A) (A) (A) (A) (A) (A) (A) (A)
                 (A) (A) (A) (A) (A) (A) (A) (A) (A) (A) (A) (A)
                 (A) (A) (A) (A) (A) (A) (A)
       Virtual   (A) (A) (A) (A) (A) (A) (A) (A) (A) (A) (A) (A)
                 (A) (A) (A) (A) (A) (A) (A) (A) (A) (A) (A) (A)
                 (A) (A) (A) (A) (A) (A) (A) (A) (A) (A) (A) (A)
                 (A) (A) (A) (A) (A) (A) (A) (A) (A) (A) (A) (A)
                 (A) (A) (A) (A) (A) (A) (A) (A) (A) (A) (A) (A)
                 (A) (A) (A) (A) (A) (A) (A) (A) (A) (A) (A) (A)
                 (A) (A) (A) (A) (A) (A) (A) (A) (A) (A) (A) (A)
                 (A) (A) (A) (A) (A) (A) (A) (A) (A) (A) (A) (A)
                 (A) (A) (A) (A) (A) (A) (A) (A) (A) (A) (A) (A)
                 (A) (A) (A)
 The electronic state is 1-A.
 Alpha  occ. eigenvalues --  -24.70549 -10.28080 -10.22962 -10.22194 -10.20721
 Alpha  occ. eigenvalues --  -10.20618 -10.20489 -10.20387 -10.20130 -10.19499
 Alpha  occ. eigenvalues --  -10.19497 -10.19146 -10.19034 -10.19032 -10.18897
 Alpha  occ. eigenvalues --  -10.17527  -1.22982  -0.87784  -0.86937  -0.79244
 Alpha  occ. eigenvalues --   -0.77565  -0.76769  -0.75376  -0.73780  -0.69390
 Alpha  occ. eigenvalues --   -0.63488  -0.62382  -0.61608  -0.59410  -0.55206
 Alpha  occ. eigenvalues --   -0.53461  -0.50990  -0.49949  -0.47313  -0.46364
 Alpha  occ. eigenvalues --   -0.46056  -0.45701  -0.44057  -0.43108  -0.43024
 Alpha  occ. eigenvalues --   -0.42717  -0.40546  -0.39750  -0.39429  -0.37912
 Alpha  occ. eigenvalues --   -0.36933  -0.35410  -0.35083  -0.34709  -0.30620
 Alpha  occ. eigenvalues --   -0.28038  -0.26843  -0.25783  -0.25710  -0.22140
 Alpha virt. eigenvalues --   -0.03283  -0.01530  -0.00525   0.00514   0.06501
 Alpha virt. eigenvalues --    0.07973   0.08927   0.10318   0.12115   0.12955
 Alpha virt. eigenvalues --    0.13274   0.14680   0.14939   0.16195   0.16735
 Alpha virt. eigenvalues --    0.17371   0.18215   0.18584   0.19500   0.19755
 Alpha virt. eigenvalues --    0.20627   0.22090   0.23863   0.28880   0.31040
 Alpha virt. eigenvalues --    0.32141   0.32662   0.32890   0.33875   0.34161
 Alpha virt. eigenvalues --    0.36322   0.48102   0.49796   0.50067   0.50316
 Alpha virt. eigenvalues --    0.51246   0.51507   0.52556   0.53678   0.55581
 Alpha virt. eigenvalues --    0.55973   0.56630   0.57256   0.58318   0.58965
 Alpha virt. eigenvalues --    0.59423   0.59673   0.60394   0.60797   0.61041
 Alpha virt. eigenvalues --    0.61644   0.61983   0.63630   0.64734   0.65105
 Alpha virt. eigenvalues --    0.65598   0.66457   0.66838   0.69713   0.70700
 Alpha virt. eigenvalues --    0.71671   0.74847   0.75197   0.75813   0.76711
 Alpha virt. eigenvalues --    0.77398   0.78784   0.79919   0.83602   0.84164
 Alpha virt. eigenvalues --    0.85060   0.86662   0.86728   0.87636   0.88398
 Alpha virt. eigenvalues --    0.89353   0.89540   0.95197   0.95826   0.97574
 Alpha virt. eigenvalues --    0.98780   0.99204   0.99713   1.00000   1.02119
 Alpha virt. eigenvalues --    1.04595   1.06731   1.13491   1.14524   1.15731
 Alpha virt. eigenvalues --    1.18365   1.19027   1.20439   1.21563   1.22744
 Alpha virt. eigenvalues --    1.24553   1.25020   1.27844   1.28822   1.29230
 Alpha virt. eigenvalues --    1.35719   1.43903   1.44078   1.47151   1.47769
 Alpha virt. eigenvalues --    1.52348   1.57140   1.76530   1.84634   1.91150
 Alpha virt. eigenvalues --    2.36155
          Condensed to atoms (all electrons):
               1          2          3          4          5          6
     1  C    5.237126   0.414591  -0.031109  -0.034898  -0.101341   0.405554
     2  C    0.414591   4.984811   0.503329  -0.075247  -0.035809  -0.013437
     3  C   -0.031109   0.503329   4.810797   0.513633  -0.017338  -0.032797
     4  C   -0.034898  -0.075247   0.513633   4.971418   0.401776  -0.013265
     5  C   -0.101341  -0.035809  -0.017338   0.401776   5.248863   0.405432
     6  C    0.405554  -0.013437  -0.032797  -0.013265   0.405432   4.733537
     7  H    0.350952  -0.030681   0.004167   0.000224   0.005924  -0.037948
     8  H   -0.029892   0.352972  -0.029107   0.004822   0.000158   0.003370
     9  H    0.000203   0.004649  -0.029588   0.354878  -0.031741   0.003470
    10  H    0.005938   0.000262   0.003731  -0.029879   0.350773  -0.037336
    11  C    0.008377  -0.019577   0.266231  -0.027525   0.010126   0.001034
    12  C    0.000478   0.001473  -0.116141  -0.002752   0.000632   0.000026
    13  C    0.000002   0.000021   0.000508  -0.000027   0.000002   0.000000
    14  C    0.000000  -0.000002  -0.000005   0.000001   0.000000   0.000000
    15  C    0.000000   0.000001   0.000003  -0.000002   0.000000   0.000000
    16  C    0.000000   0.000000   0.000002   0.000000   0.000000   0.000000
    17  H    0.000000   0.000002  -0.000041   0.000000   0.000000   0.000000
    18  C    0.000000   0.000000   0.000001   0.000000   0.000000   0.000000
    19  H    0.000000   0.000000  -0.000053   0.000003   0.000000   0.000000
    20  C    0.000000   0.000000   0.000000   0.000000   0.000000   0.000000
    21  H    0.000000   0.000000   0.000000   0.000000   0.000000   0.000000
    22  H    0.000000   0.000000   0.000000   0.000000   0.000000   0.000000
    23  C    0.000000   0.000000   0.000000   0.000000   0.000000   0.000000
    24  H    0.000000   0.000000   0.000000   0.000000   0.000000   0.000000
    25  H    0.000000   0.000000   0.000000   0.000000   0.000000   0.000000
    26  H    0.000000   0.000000   0.000000   0.000000   0.000000   0.000000
    27  F   -0.065019   0.003920  -0.000488   0.004051  -0.065218   0.275757
               7          8          9         10         11         12
     1  C    0.350952  -0.029892   0.000203   0.005938   0.008377   0.000478
     2  C   -0.030681   0.352972   0.004649   0.000262  -0.019577   0.001473
     3  C    0.004167  -0.029107  -0.029588   0.003731   0.266231  -0.116141
     4  C    0.000224   0.004822   0.354878  -0.029879  -0.027525  -0.002752
     5  C    0.005924   0.000158  -0.031741   0.350773   0.010126   0.000632
     6  C   -0.037948   0.003370   0.003470  -0.037336   0.001034   0.000026
     7  H    0.565619  -0.004535   0.000010  -0.000130  -0.000261  -0.000009
     8  H   -0.004535   0.553919  -0.000159   0.000009  -0.004875  -0.002409
     9  H    0.000010  -0.000159   0.556977  -0.004462  -0.005874  -0.002037
    10  H   -0.000130   0.000009  -0.004462   0.563811  -0.000242  -0.000008
    11  C   -0.000261  -0.004875  -0.005874  -0.000242   5.637711   0.531078
    12  C   -0.000009  -0.002409  -0.002037  -0.000008   0.531078   5.640606
    13  C    0.000000  -0.000061  -0.000042   0.000000  -0.110109   0.255089
    14  C    0.000000   0.000004   0.000000   0.000000  -0.000585  -0.024917
    15  C    0.000000   0.000000   0.000003   0.000000   0.000252  -0.023193
    16  C    0.000000   0.000000   0.000000   0.000000   0.000522   0.008725
    17  H    0.000000   0.000005   0.000000   0.000000  -0.001750  -0.005224
    18  C    0.000000   0.000000   0.000000   0.000000   0.000455   0.008543
    19  H    0.000000   0.000000   0.000003   0.000000  -0.001938  -0.005091
    20  C    0.000000   0.000000   0.000000   0.000000   0.000078   0.001865
    21  H    0.000000   0.000000   0.000000   0.000000  -0.000010  -0.000299
    22  H    0.000000   0.000000   0.000000   0.000000  -0.000010  -0.000298
    23  C    0.000000   0.000000   0.000000   0.000000   0.000000  -0.000013
    24  H    0.000000   0.000000   0.000000   0.000000   0.000000   0.000000
    25  H    0.000000   0.000000   0.000000   0.000000   0.000000   0.000000
    26  H    0.000000   0.000000   0.000000   0.000000   0.000000   0.000000
    27  F   -0.002171  -0.000015  -0.000013  -0.002124  -0.000002   0.000000
              13         14         15         16         17         18
     1  C    0.000002   0.000000   0.000000   0.000000   0.000000   0.000000
     2  C    0.000021  -0.000002   0.000001   0.000000   0.000002   0.000000
     3  C    0.000508  -0.000005   0.000003   0.000002  -0.000041   0.000001
     4  C   -0.000027   0.000001  -0.000002   0.000000   0.000000   0.000000
     5  C    0.000002   0.000000   0.000000   0.000000   0.000000   0.000000
     6  C    0.000000   0.000000   0.000000   0.000000   0.000000   0.000000
     7  H    0.000000   0.000000   0.000000   0.000000   0.000000   0.000000
     8  H   -0.000061   0.000004   0.000000   0.000000   0.000005   0.000000
     9  H   -0.000042   0.000000   0.000003   0.000000   0.000000   0.000000
    10  H    0.000000   0.000000   0.000000   0.000000   0.000000   0.000000
    11  C   -0.110109  -0.000585   0.000252   0.000522  -0.001750   0.000455
    12  C    0.255089  -0.024917  -0.023193   0.008725  -0.005224   0.008543
    13  C    4.791172   0.525805   0.526012  -0.040648  -0.032438  -0.041066
    14  C    0.525805   4.949650  -0.066929   0.481295   0.348645  -0.046731
    15  C    0.526012  -0.066929   4.949321  -0.046747   0.004416   0.481996
    16  C   -0.040648   0.481295  -0.046747   4.987562  -0.030613  -0.046881
    17  H   -0.032438   0.348645   0.004416  -0.030613   0.573794   0.000568
    18  C   -0.041066  -0.046731   0.481996  -0.046881   0.000568   4.986161
    19  H   -0.032177   0.004426   0.348277   0.000565  -0.000162  -0.030538
    20  C   -0.016225  -0.054979  -0.054977   0.544984   0.003654   0.545426
    21  H    0.003183  -0.030429   0.000757   0.350113  -0.003554   0.004528
    22  H    0.003191   0.000761  -0.030401   0.004522   0.000015   0.350160
    23  C    0.000084   0.006662   0.006672  -0.048506  -0.000164  -0.048435
    24  H    0.000026  -0.000134  -0.000134  -0.002011   0.000003  -0.002003
    25  H    0.000023  -0.000251   0.000216   0.002985   0.000002  -0.002365
    26  H    0.000023   0.000216  -0.000252  -0.002354  -0.000002   0.002973
    27  F    0.000000   0.000000   0.000000   0.000000   0.000000   0.000000
              19         20         21         22         23         24
     1  C    0.000000   0.000000   0.000000   0.000000   0.000000   0.000000
     2  C    0.000000   0.000000   0.000000   0.000000   0.000000   0.000000
     3  C   -0.000053   0.000000   0.000000   0.000000   0.000000   0.000000
     4  C    0.000003   0.000000   0.000000   0.000000   0.000000   0.000000
     5  C    0.000000   0.000000   0.000000   0.000000   0.000000   0.000000
     6  C    0.000000   0.000000   0.000000   0.000000   0.000000   0.000000
     7  H    0.000000   0.000000   0.000000   0.000000   0.000000   0.000000
     8  H    0.000000   0.000000   0.000000   0.000000   0.000000   0.000000
     9  H    0.000003   0.000000   0.000000   0.000000   0.000000   0.000000
    10  H    0.000000   0.000000   0.000000   0.000000   0.000000   0.000000
    11  C   -0.001938   0.000078  -0.000010  -0.000010   0.000000   0.000000
    12  C   -0.005091   0.001865  -0.000299  -0.000298  -0.000013   0.000000
    13  C   -0.032177  -0.016225   0.003183   0.003191   0.000084   0.000026
    14  C    0.004426  -0.054979  -0.030429   0.000761   0.006662  -0.000134
    15  C    0.348277  -0.054977   0.000757  -0.030401   0.006672  -0.000134
    16  C    0.000565   0.544984   0.350113   0.004522  -0.048506  -0.002011
    17  H   -0.000162   0.003654  -0.003554   0.000015  -0.000164   0.000003
    18  C   -0.030538   0.545426   0.004528   0.350160  -0.048435  -0.002003
    19  H    0.573721   0.003657   0.000015  -0.003554  -0.000164   0.000003
    20  C    0.003657   4.785105  -0.038341  -0.038295   0.318940  -0.033459
    21  H    0.000015  -0.038341   0.587913  -0.000171  -0.006885   0.000502
    22  H   -0.003554  -0.038295  -0.000171   0.587691  -0.006887   0.000500
    23  C   -0.000164   0.318940  -0.006885  -0.006887   5.133158   0.371838
    24  H    0.000003  -0.033459   0.000502   0.000500   0.371838   0.563227
    25  H   -0.000002  -0.035219   0.000110   0.003961   0.371562  -0.029988
    26  H    0.000002  -0.035212   0.003951   0.000109   0.371545  -0.030004
    27  F    0.000000   0.000000   0.000000   0.000000   0.000000   0.000000
              25         26         27
     1  C    0.000000   0.000000  -0.065019
     2  C    0.000000   0.000000   0.003920
     3  C    0.000000   0.000000  -0.000488
     4  C    0.000000   0.000000   0.004051
     5  C    0.000000   0.000000  -0.065218
     6  C    0.000000   0.000000   0.275757
     7  H    0.000000   0.000000  -0.002171
     8  H    0.000000   0.000000  -0.000015
     9  H    0.000000   0.000000  -0.000013
    10  H    0.000000   0.000000  -0.002124
    11  C    0.000000   0.000000  -0.000002
    12  C    0.000000   0.000000   0.000000
    13  C    0.000023   0.000023   0.000000
    14  C   -0.000251   0.000216   0.000000
    15  C    0.000216  -0.000252   0.000000
    16  C    0.002985  -0.002354   0.000000
    17  H    0.000002  -0.000002   0.000000
    18  C   -0.002365   0.002973   0.000000
    19  H   -0.000002   0.000002   0.000000
    20  C   -0.035219  -0.035212   0.000000
    21  H    0.000110   0.003951   0.000000
    22  H    0.003961   0.000109   0.000000
    23  C    0.371562   0.371545   0.000000
    24  H   -0.029988  -0.030004   0.000000
    25  H    0.569747  -0.029130   0.000000
    26  H   -0.029130   0.569696   0.000000
    27  F    0.000000   0.000000   9.168020
 Mulliken charges:
               1
     1  C   -0.160962
     2  C   -0.091278
     3  C    0.154265
     4  C   -0.067210
     5  C   -0.172239
     6  C    0.306603
     7  H    0.148839
     8  H    0.155794
     9  H    0.153725
    10  H    0.149656
    11  C   -0.283107
    12  C   -0.266125
    13  C    0.167653
    14  C   -0.092502
    15  C   -0.095293
    16  C   -0.163516
    17  H    0.142843
    18  C   -0.162792
    19  H    0.143008
    20  C    0.102998
    21  H    0.128617
    22  H    0.128706
    23  C   -0.469409
    24  H    0.161635
    25  H    0.148350
    26  H    0.148439
    27  F   -0.316698
 Sum of Mulliken charges =   0.00000
 Mulliken charges with hydrogens summed into heavy atoms:
               1
     1  C   -0.012124
     2  C    0.064516
     3  C    0.154265
     4  C    0.086515
     5  C   -0.022583
     6  C    0.306603
    11  C   -0.283107
    12  C   -0.266125
    13  C    0.167653
    14  C    0.050341
    15  C    0.047715
    16  C   -0.034899
    18  C   -0.034085
    20  C    0.102998
    23  C   -0.010985
    27  F   -0.316698
 Electronic spatial extent (au):  <R**2>=           7139.8791
 Charge=              0.0000 electrons
 Dipole moment (field-independent basis, Debye):
    X=             -2.4746    Y=              0.0433    Z=              0.0619  Tot=              2.4757
 Quadrupole moment (field-independent basis, Debye-Ang):
   XX=            -88.3491   YY=            -80.6943   ZZ=            -95.6977
   XY=              0.4763   XZ=             -0.1490   YZ=             -0.2416
 Traceless Quadrupole moment (field-independent basis, Debye-Ang):
   XX=             -0.1020   YY=              7.5527   ZZ=             -7.4507
   XY=              0.4763   XZ=             -0.1490   YZ=             -0.2416
 Octapole moment (field-independent basis, Debye-Ang**2):
  XXX=           -139.0898  YYY=             -0.0133  ZZZ=             -0.1534  XYY=             20.5234
  XXY=              2.2803  XXZ=              1.7921  XZZ=             15.9448  YZZ=             -0.5955
  YYZ=             -0.5024  XYZ=            -10.5467
 Hexadecapole moment (field-independent basis, Debye-Ang**3):
 XXXX=          -8921.6262 YYYY=           -536.9511 ZZZZ=           -124.7585 XXXY=             17.0912
 XXXZ=             -6.1182 YYYX=             -4.1038 YYYZ=             -1.6155 ZZZX=             -6.7443
 ZZZY=             -0.2132 XXYY=          -1383.5515 XXZZ=          -1506.8557 YYZZ=           -124.9964
 XXYZ=             -4.7211 YYXZ=              1.4541 ZZXY=              0.5331
 N-N= 8.666146412177D+02 E-N=-3.311110096702D+03  KE= 6.739764811670D+02
 Calling FoFJK, ICntrl=      2127 FMM=F ISym2X=0 I1Cent= 0 IOpClX= 0 NMat=1 NMatS=1 NMatT=0.
 ***** Axes restored to original set *****
 -------------------------------------------------------------------
 Center     Atomic                   Forces (Hartrees/Bohr)
 Number     Number              X              Y              Z
 -------------------------------------------------------------------
      1        6          -0.006022870   -0.004780294    0.009146558
      2        6          -0.005213173    0.001366421    0.007251585
      3        6           0.069698099   -0.010692095    0.015342105
      4        6          -0.001324990    0.008737448   -0.010079591
      5        6          -0.007198340    0.001895482   -0.008114109
      6        6           0.042618989   -0.000186489   -0.002651489
      7        1           0.001360164    0.001820494   -0.006290086
      8        1          -0.003876133    0.003188391   -0.006443886
      9        1          -0.003129580   -0.001582959    0.004849206
     10        1           0.002042113   -0.003096420    0.005815848
     11        6          -0.098990315    0.002560415   -0.010996028
     12        6           0.098398102   -0.000711793    0.000652004
     13        6          -0.066916980    0.004626141    0.001520081
     14        6           0.001268894   -0.003712106    0.012780979
     15        6           0.001395635   -0.003450351   -0.014997658
     16        6          -0.005927952    0.000596163    0.004800768
     17        1           0.002047437    0.000380511   -0.005628801
     18        6          -0.005996198    0.000721346   -0.004298657
     19        1           0.002330231    0.000269729    0.006336036
     20        6           0.025826056    0.000867636   -0.000048916
     21        1          -0.002629930    0.000546864   -0.004773306
     22        1          -0.002668854    0.000529235    0.004685695
     23        6          -0.034976220    0.001851000   -0.000040482
     24        1           0.009356073   -0.016359163    0.000056938
     25        1           0.008867199    0.006838974   -0.012990297
     26        1           0.008871113    0.006914516    0.012983400
     27        9          -0.029208570    0.000860905    0.001132102
 -------------------------------------------------------------------
 Cartesian Forces:  Max     0.098990315 RMS     0.021148661

 GradGradGradGradGradGradGradGradGradGradGradGradGradGradGradGradGradGrad
 Berny optimization.
 FormGI is forming the generalized inverse of G from B-inverse, IUseBI=4.
 GSVD:  received Info=                   1 from GESDD.
 Internal  Forces:  Max     0.060047128 RMS     0.009426340
 Search for a local minimum.
 Step number   1 out of a maximum of  142
 All quantities printed in internal units (Hartrees-Bohrs-Radians)
 Mixed Optimization -- RFO/linear search
 Second derivative matrix not updated -- first step.
 ITU=  0
     Eigenvalues ---    0.00230   0.00230   0.00230   0.00237   0.01366
     Eigenvalues ---    0.01531   0.01661   0.02077   0.02091   0.02104
     Eigenvalues ---    0.02111   0.02111   0.02116   0.02117   0.02118
     Eigenvalues ---    0.02120   0.02122   0.02125   0.02126   0.02132
     Eigenvalues ---    0.02148   0.02166   0.03985   0.04701   0.07243
     Eigenvalues ---    0.07243   0.15990   0.15994   0.15995   0.15996
     Eigenvalues ---    0.16000   0.16000   0.16000   0.16000   0.16000
     Eigenvalues ---    0.16000   0.16000   0.21985   0.21994   0.22976
     Eigenvalues ---    0.22981   0.23987   0.23992   0.24980   0.24994
     Eigenvalues ---    0.25000   0.25000   0.28340   0.28403   0.28519
     Eigenvalues ---    0.34254   0.34325   0.34394   0.34399   0.34412
     Eigenvalues ---    0.34413   0.34464   0.34556   0.37230   0.37230
     Eigenvalues ---    0.37230   0.41551   0.41751   0.42154   0.42205
     Eigenvalues ---    0.45390   0.45833   0.45928   0.45974   0.45996
     Eigenvalues ---    0.46091   0.46204   0.46785   0.55021   1.05241
 RFO step:  Lambda=-3.21427599D-02 EMin= 2.30000000D-03
 Linear search not attempted -- first point.
 Maximum step size (   0.300) exceeded in Quadratic search.
    -- Step size scaled by   0.965
 Iteration  1 RMS(Cart)=  0.07526270 RMS(Int)=  0.00074970
 Iteration  2 RMS(Cart)=  0.00162690 RMS(Int)=  0.00006641
 Iteration  3 RMS(Cart)=  0.00000394 RMS(Int)=  0.00006640
 Iteration  4 RMS(Cart)=  0.00000000 RMS(Int)=  0.00006640
 Variable       Old X    -DE/DX   Delta X   Delta X   Delta X     New X
                                 (Linear)    (Quad)   (Total)
    R1        2.64067  -0.00169   0.00000  -0.00339  -0.00339   2.63728
    R2        2.64223  -0.00251   0.00000  -0.00574  -0.00569   2.63653
    R3        2.06640  -0.00638   0.00000  -0.01637  -0.01637   2.05003
    R4        2.65214   0.00509   0.00000   0.01092   0.01088   2.66302
    R5        2.06903  -0.00815   0.00000  -0.02100  -0.02100   2.04803
    R6        2.62850   0.00978   0.00000   0.01954   0.01950   2.64799
    R7        2.91400  -0.06005   0.00000  -0.18371  -0.18371   2.73029
    R8        2.64421  -0.00201   0.00000  -0.00388  -0.00388   2.64033
    R9        2.06401  -0.00597   0.00000  -0.01526  -0.01526   2.04876
   R10        2.64263  -0.00399   0.00000  -0.00856  -0.00852   2.63411
   R11        2.06671  -0.00667   0.00000  -0.01712  -0.01712   2.04959
   R12        2.55113   0.02924   0.00000   0.04848   0.04848   2.59961
   R13        2.26611   0.03925   0.00000   0.03493   0.03494   2.30104
   R14        2.91266  -0.05915   0.00000  -0.18062  -0.18062   2.73204
   R15        2.64178   0.00548   0.00000   0.01083   0.01080   2.65259
   R16        2.63832   0.00664   0.00000   0.01307   0.01304   2.65136
   R17        2.64183   0.00038   0.00000   0.00071   0.00071   2.64255
   R18        2.06554  -0.00590   0.00000  -0.01511  -0.01511   2.05043
   R19        2.64238   0.00034   0.00000   0.00069   0.00069   2.64307
   R20        2.06786  -0.00665   0.00000  -0.01711  -0.01711   2.05074
   R21        2.64009   0.00702   0.00000   0.01363   0.01366   2.65375
   R22        2.06662  -0.00545   0.00000  -0.01398  -0.01398   2.05264
   R23        2.63983   0.00701   0.00000   0.01364   0.01366   2.65350
   R24        2.06639  -0.00539   0.00000  -0.01384  -0.01384   2.05255
   R25        2.91018  -0.00788   0.00000  -0.02398  -0.02398   2.88620
   R26        2.02201   0.01854   0.00000   0.04426   0.04426   2.06626
   R27        2.02201   0.01679   0.00000   0.04008   0.04008   2.06208
   R28        2.02201   0.01682   0.00000   0.04014   0.04014   2.06214
    A1        2.09366  -0.00344   0.00000  -0.01433  -0.01433   2.07934
    A2        2.09504   0.00368   0.00000   0.01703   0.01703   2.11207
    A3        2.09447  -0.00024   0.00000  -0.00270  -0.00270   2.09178
    A4        2.09099   0.00067   0.00000   0.00455   0.00441   2.09539
    A5        2.09389   0.00013   0.00000   0.00022   0.00022   2.09411
    A6        2.09796  -0.00078   0.00000  -0.00432  -0.00432   2.09363
    A7        2.09733  -0.00214   0.00000  -0.00400  -0.00415   2.09318
    A8        2.03358   0.01140   0.00000   0.03743   0.03748   2.07107
    A9        2.15206  -0.00925   0.00000  -0.03324  -0.03319   2.11887
   A10        2.09293  -0.00022   0.00000   0.00172   0.00156   2.09450
   A11        2.09462   0.00045   0.00000   0.00107   0.00106   2.09568
   A12        2.09507  -0.00020   0.00000  -0.00216  -0.00217   2.09290
   A13        2.09517  -0.00310   0.00000  -0.01247  -0.01249   2.08268
   A14        2.09387   0.00326   0.00000   0.01485   0.01486   2.10873
   A15        2.09414  -0.00017   0.00000  -0.00238  -0.00237   2.09178
   A16        2.09442   0.00832   0.00000   0.02632   0.02636   2.12078
   A17        2.09438  -0.00414   0.00000  -0.01310  -0.01312   2.08126
   A18        2.09438  -0.00418   0.00000  -0.01322  -0.01324   2.08114
   A19        2.09307   0.00076   0.00000   0.00282   0.00282   2.09589
   A20        2.09164   0.00057   0.00000   0.00215   0.00215   2.09379
   A21        2.09779  -0.00130   0.00000  -0.00446  -0.00456   2.09323
   A22        2.09144  -0.00016   0.00000  -0.00102  -0.00109   2.09036
   A23        2.09611  -0.00099   0.00000  -0.00478  -0.00479   2.09132
   A24        2.09540   0.00117   0.00000   0.00609   0.00608   2.10148
   A25        2.09320  -0.00056   0.00000  -0.00234  -0.00241   2.09079
   A26        2.09628  -0.00089   0.00000  -0.00462  -0.00462   2.09166
   A27        2.09347   0.00147   0.00000   0.00723   0.00722   2.10070
   A28        2.09342   0.00429   0.00000   0.01565   0.01566   2.10908
   A29        2.09403  -0.00204   0.00000  -0.00728  -0.00729   2.08674
   A30        2.09573  -0.00225   0.00000  -0.00836  -0.00837   2.08736
   A31        2.09222   0.00446   0.00000   0.01650   0.01651   2.10873
   A32        2.09489  -0.00219   0.00000  -0.00806  -0.00806   2.08683
   A33        2.09607  -0.00227   0.00000  -0.00844  -0.00845   2.08762
   A34        2.09766  -0.00669   0.00000  -0.02367  -0.02364   2.07403
   A35        2.09278   0.00333   0.00000   0.01178   0.01175   2.10453
   A36        2.09274   0.00336   0.00000   0.01189   0.01186   2.10459
   A37        1.91063   0.00318   0.00000   0.01516   0.01503   1.92566
   A38        1.91063   0.00360   0.00000   0.01850   0.01832   1.92896
   A39        1.91063   0.00363   0.00000   0.01868   0.01850   1.92913
   A40        1.91063  -0.00364   0.00000  -0.01910  -0.01923   1.89141
   A41        1.91063  -0.00365   0.00000  -0.01916  -0.01929   1.89134
   A42        1.91063  -0.00313   0.00000  -0.01407  -0.01428   1.89635
   A43        3.17054  -0.00311   0.00000  -0.03819  -0.03822   3.13232
   A44        3.14159   0.00114   0.00000   0.03321   0.03319   3.17477
   A45        3.13228   0.00075   0.00000   0.00997   0.00981   3.14209
   A46        3.14159  -0.00009   0.00000  -0.00020  -0.00005   3.14153
    D1        0.02934  -0.00069   0.00000  -0.01410  -0.01418   0.01516
    D2       -3.14082   0.00029   0.00000   0.00377   0.00371  -3.13711
    D3       -3.10907  -0.00087   0.00000  -0.01677  -0.01682  -3.12589
    D4        0.00396   0.00011   0.00000   0.00110   0.00106   0.00503
    D5        0.00343  -0.00001   0.00000  -0.00078  -0.00079   0.00264
    D6       -3.13816   0.00000   0.00000   0.00023   0.00024  -3.13792
    D7       -3.14135   0.00018   0.00000   0.00192   0.00186  -3.13948
    D8        0.00024   0.00019   0.00000   0.00293   0.00289   0.00313
    D9       -0.06456   0.00168   0.00000   0.03097   0.03094  -0.03363
   D10        3.09824   0.00136   0.00000   0.02185   0.02172   3.11996
   D11        3.10566   0.00068   0.00000   0.01298   0.01298   3.11864
   D12       -0.01472   0.00036   0.00000   0.00386   0.00376  -0.01095
   D13        0.06660  -0.00178   0.00000  -0.03241  -0.03233   0.03427
   D14       -3.11087  -0.00070   0.00000  -0.01226  -0.01213  -3.12300
   D15       -3.09770  -0.00117   0.00000  -0.02173  -0.02196  -3.11966
   D16        0.00801  -0.00009   0.00000  -0.00158  -0.00175   0.00626
   D17       -0.42138   0.00102   0.00000   0.02122   0.02123  -0.40015
   D18        2.76189   0.00009   0.00000   0.00282   0.00299   2.76487
   D19        2.74721   0.00006   0.00000   0.00133   0.00116   2.74838
   D20       -0.35271  -0.00088   0.00000  -0.01707  -0.01708  -0.36979
   D21       -0.03360   0.00092   0.00000   0.01706   0.01704  -0.01655
   D22        3.10669   0.00097   0.00000   0.01793   0.01793   3.12462
   D23       -3.13930  -0.00018   0.00000  -0.00316  -0.00319   3.14069
   D24        0.00098  -0.00013   0.00000  -0.00229  -0.00231  -0.00132
   D25       -0.00147  -0.00006   0.00000  -0.00054  -0.00053  -0.00199
   D26        3.14013  -0.00007   0.00000  -0.00154  -0.00155   3.13857
   D27        3.14144  -0.00011   0.00000  -0.00142  -0.00142   3.14002
   D28       -0.00016  -0.00012   0.00000  -0.00243  -0.00244  -0.00260
   D29       -3.13968   0.00032   0.00000   0.00452   0.00447  -3.13521
   D30        0.02538  -0.00047   0.00000  -0.00981  -0.00983   0.01555
   D31       -0.03799   0.00103   0.00000   0.01956   0.01956  -0.01843
   D32        3.12707   0.00023   0.00000   0.00523   0.00526   3.13233
   D33        3.14019  -0.00034   0.00000  -0.00483  -0.00477   3.13541
   D34       -0.02477   0.00042   0.00000   0.00880   0.00883  -0.01594
   D35        0.03847  -0.00105   0.00000  -0.01987  -0.01986   0.01860
   D36       -3.12649  -0.00029   0.00000  -0.00624  -0.00626  -3.13275
   D37        0.02003  -0.00056   0.00000  -0.01067  -0.01074   0.00929
   D38       -3.12378  -0.00054   0.00000  -0.01017  -0.01022  -3.13400
   D39        3.13816   0.00020   0.00000   0.00351   0.00350  -3.14153
   D40       -0.00565   0.00023   0.00000   0.00401   0.00402  -0.00163
   D41       -0.02094   0.00059   0.00000   0.01124   0.01131  -0.00963
   D42        3.12361   0.00053   0.00000   0.00994   0.00999   3.13361
   D43       -3.13921  -0.00013   0.00000  -0.00222  -0.00221  -3.14141
   D44        0.00535  -0.00020   0.00000  -0.00351  -0.00352   0.00183
   D45       -0.00265   0.00017   0.00000   0.00234   0.00236  -0.00029
   D46        3.13963   0.00053   0.00000   0.01023   0.01019  -3.13336
   D47        3.14116   0.00015   0.00000   0.00184   0.00184  -3.14019
   D48        0.00025   0.00051   0.00000   0.00972   0.00967   0.00992
   D49        0.00308  -0.00018   0.00000  -0.00260  -0.00262   0.00046
   D50       -3.13920  -0.00054   0.00000  -0.01048  -0.01045   3.13353
   D51       -3.14147  -0.00012   0.00000  -0.00130  -0.00130   3.14041
   D52       -0.00057  -0.00048   0.00000  -0.00919  -0.00914  -0.00971
   D53        1.56870  -0.00018   0.00000  -0.00401  -0.00406   1.56464
   D54       -2.62009  -0.00048   0.00000  -0.00679  -0.00688  -2.62697
   D55       -0.52569   0.00011   0.00000  -0.00126  -0.00128  -0.52697
   D56       -1.57220   0.00018   0.00000   0.00387   0.00392  -1.56828
   D57        0.52219  -0.00012   0.00000   0.00108   0.00110   0.52330
   D58        2.61659   0.00048   0.00000   0.00662   0.00671   2.62329
         Item               Value     Threshold  Converged?
 Maximum Force            0.060047     0.000450     NO 
 RMS     Force            0.009426     0.000300     NO 
 Maximum Displacement     0.247088     0.001800     NO 
 RMS     Displacement     0.076030     0.001200     NO 
 Predicted change in Energy=-1.761477D-02
 GradGradGradGradGradGradGradGradGradGradGradGradGradGradGradGradGradGrad

                          Input orientation:                          
 ---------------------------------------------------------------------
 Center     Atomic      Atomic             Coordinates (Angstroms)
 Number     Number       Type             X           Y           Z
 ---------------------------------------------------------------------
      1          6           0       -5.201489   -0.952532    1.168916
      2          6           0       -3.807518   -0.966382    1.103155
      3          6           0       -3.150671   -0.495947   -0.051449
      4          6           0       -3.899173   -0.051739   -1.149605
      5          6           0       -5.294755   -0.036931   -1.083967
      6          6           0       -5.928642   -0.485824    0.073473
      7          1           0       -5.722670   -1.297448    2.055628
      8          1           0       -3.229191   -1.329967    1.944525
      9          1           0       -3.396334    0.294461   -2.045536
     10          1           0       -5.886659    0.318923   -1.920247
     11          6           0       -1.706085   -0.498748   -0.076616
     12          6           0       -0.488489   -0.505009   -0.087217
     13          6           0        0.956791   -0.512653   -0.051837
     14          6           0        1.630590   -0.501548    1.179510
     15          6           0        1.687185   -0.501025   -1.249716
     16          6           0        3.028716   -0.501290    1.205912
     17          1           0        1.063859   -0.501853    2.104780
     18          6           0        3.085307   -0.500973   -1.211208
     19          1           0        1.164661   -0.501311   -2.200841
     20          6           0        3.771285   -0.500820    0.013997
     21          1           0        3.546671   -0.499853    2.160672
     22          1           0        3.647062   -0.499495   -2.140822
     23          6           0        5.298141   -0.511359    0.049748
     24          1           0        5.670837   -1.539249    0.060208
     25          1           0        5.704821   -0.007025   -0.828314
     26          1           0        5.663532   -0.004018    0.944118
     27          9           0       -7.302676   -0.467091    0.137498
 ---------------------------------------------------------------------
                    Distance matrix (angstroms):
                    1          2          3          4          5
     1  C    0.000000
     2  C    1.395590   0.000000
     3  C    2.429736   1.409208   0.000000
     4  C    2.807668   2.433085   1.401258   0.000000
     5  C    2.433620   2.803436   2.423609   1.397203   0.000000
     6  C    1.395193   2.406314   2.780796   2.408961   1.393910
     7  H    1.084829   2.164397   3.420139   3.892358   3.410143
     8  H    2.152669   1.083771   2.164640   3.414145   3.887191
     9  H    3.891822   3.416584   2.159045   1.084155   2.153703
    10  H    3.410131   3.887904   3.412045   2.163650   1.084596
    11  C    3.738331   2.454906   1.444808   2.482088   3.755873
    12  C    4.898012   3.556094   2.662438   3.600957   4.930801
    13  C    6.293500   4.923263   4.107496   4.999793   6.354009
    14  C    6.846956   5.458472   4.937180   6.017091   7.300657
    15  C    7.314881   5.995358   4.984047   5.605291   6.999310
    16  C    8.242649   6.852807   6.306014   7.331180   8.645191
    17  H    6.350869   4.994933   4.734092   5.951917   7.128550
    18  C    8.633649   7.285871   6.342909   6.999184   8.393864
    19  H    7.217114   5.987925   4.820997   5.191303   6.571690
    20  C    9.058066   7.670806   6.922267   7.771201   9.144057
    21  H    8.815827   7.444467   7.053219   8.160842   9.429358
    22  H    9.458143   8.143226   7.111587   7.624216   9.015930
    23  C   10.568321   9.177676   8.449433   9.286565  10.663950
    24  H   10.944448   9.552755   8.883691   9.760196  11.127007
    25  H   11.127916   9.753744   8.902938   9.609471  11.002587
    26  H   10.908662   9.521146   8.883880   9.789346  11.144427
    27  F    2.390494   3.660316   4.156402   3.662374   2.389302
                    6          7          8          9         10
     6  C    0.000000
     7  H    2.151766   0.000000
     8  H    3.391231   2.496164   0.000000
     9  H    3.392878   4.976500   4.311297   0.000000
    10  H    2.150419   4.295013   4.971664   2.493595   0.000000
    11  C    4.225243   4.617070   2.663792   2.713442   4.641634
    12  C    5.442559   5.711076   3.509983   3.595793   5.760131
    13  C    6.886625   7.047873   4.709131   4.855508   7.142499
    14  C    7.639735   7.447917   4.988887   6.025322   8.172558
    15  C    7.729934   8.152640   5.921240   5.206562   7.647552
    16  C    9.028671   8.828512   6.355600   7.244749   9.483118
    17  H    7.281588   6.833180   4.375127   6.144310   8.073674
    18  C    9.105048   9.427993   7.107656   6.583349   9.037209
    19  H    7.449006   8.135520   6.097267   4.632499   7.104409
    20  C    9.700120   9.743615   7.308973   7.499927   9.883783
    21  H    9.702482   9.304186   6.829943   8.156497  10.310772
    22  H    9.828397  10.297514   8.041306   7.088644   9.571327
    23  C   11.226837  11.229415   8.773580   8.979613  11.387274
    24  H   11.647222  11.569449   9.099723   9.487372  11.872267
    25  H   11.678181  11.856216   9.447507   9.187140  11.647359
    26  H   11.634803  11.513210   9.046518   9.545066  11.904444
    27  F    1.375653   2.620141   4.539072   4.539285   2.618633
                   11         12         13         14         15
    11  C    0.000000
    12  C    1.217658   0.000000
    13  C    2.663028   1.445733   0.000000
    14  C    3.565285   2.468826   1.403689   0.000000
    15  C    3.590328   2.466775   1.403041   2.429885   0.000000
    16  C    4.905428   3.747389   2.423826   1.398375   2.798180
    17  H    3.525775   2.686009   2.159300   1.085039   3.411918
    18  C    4.923895   3.746384   2.423811   2.798524   1.398652
    19  H    3.571207   2.683343   2.159064   3.412310   1.085205
    20  C    5.478119   4.260978   2.815288   2.437416   2.437302
    21  H    5.709370   4.619042   3.406294   2.152685   3.884384
    22  H    5.737345   4.617370   3.406111   3.884684   2.152949
    23  C    7.005378   5.788255   4.342539   3.837629   3.837671
    24  H    7.451197   6.247294   4.825835   4.318942   4.320103
    25  H    7.465144   6.257340   4.837599   4.568947   4.069768
    26  H    7.456401   6.257955   4.837773   4.070328   4.568507
    27  F    5.600775   6.817997   8.261762   8.993899   9.096325
                   16         17         18         19         20
    16  C    0.000000
    17  H    2.160701   0.000000
    18  C    2.417782   3.883559   0.000000
    19  H    3.883383   4.306801   2.160615   0.000000
    20  C    1.404304   3.420750   1.404170   3.420526   0.000000
    21  H    1.086208   2.483442   3.403298   4.969585   2.158394
    22  H    3.403378   4.969717   1.086164   2.483127   2.158397
    23  C    2.546980   4.706633   2.546911   4.706476   1.527312
    24  H    3.061176   5.145942   3.062594   5.147357   2.165357
    25  H    3.397633   5.512389   2.693036   4.768774   2.166076
    26  H    2.694081   4.769902   3.397005   5.511616   2.166227
    27  F   10.386545   8.594784  10.475225   8.784349  11.074700
                   21         22         23         24         25
    21  H    0.000000
    22  H    4.302666   0.000000
    23  C    2.742951   2.743137   0.000000
    24  H    3.162969   3.165641   1.093420   0.000000
    25  H    3.719480   2.489894   1.091208   1.771535   0.000000
    26  H    2.491376   3.718670   1.091240   1.771520   1.772916
    27  F   11.036423  11.184300  12.601201  13.017970  13.051415
                   26         27
    26  H    0.000000
    27  F   12.999524   0.000000
 Stoichiometry    C15H11F
 Framework group  C1[X(C15H11F)]
 Deg. of freedom    75
 Full point group                 C1      NOp   1
 Largest Abelian subgroup         C1      NOp   1
 Largest concise Abelian subgroup C1      NOp   1
                         Standard orientation:                         
 ---------------------------------------------------------------------
 Center     Atomic      Atomic             Coordinates (Angstroms)
 Number     Number       Type             X           Y           Z
 ---------------------------------------------------------------------
      1          6           0        4.137388   -1.211019    0.235472
      2          6           0        2.743059   -1.155780    0.257101
      3          6           0        2.081168    0.064355    0.014126
      4          6           0        2.824841    1.230779   -0.209324
      5          6           0        4.220782    1.175851   -0.231864
      6          6           0        4.859778   -0.043055   -0.010650
      7          1           0        4.662480   -2.144845    0.406060
      8          1           0        2.168379   -2.053925    0.451102
      9          1           0        2.318044    2.173986   -0.379348
     10          1           0        4.809049    2.067587   -0.419207
     11          6           0        0.636466    0.081623    0.016978
     12          6           0       -0.581181    0.085015    0.021180
     13          6           0       -2.026266    0.041925    0.017199
     14          6           0       -2.693488   -1.167749   -0.231490
     15          6           0       -2.762984    1.216395    0.232593
     16          6           0       -4.091450   -1.200289   -0.241355
     17          1           0       -2.121853   -2.073264   -0.406373
     18          6           0       -4.160877    1.171932    0.220614
     19          1           0       -2.245520    2.152376    0.416555
     20          6           0       -4.840336   -0.033867   -0.016191
     21          1           0       -4.604323   -2.139596   -0.427128
     22          1           0       -4.727557    2.081959    0.395192
     23          6           0       -6.367001   -0.078265   -0.017667
     24          1           0       -6.741987   -0.286991    0.988011
     25          1           0       -6.777184    0.878122   -0.346009
     26          1           0       -6.726475   -0.860769   -0.687943
     27          9           0        6.234173   -0.095750   -0.036805
 ---------------------------------------------------------------------
 Rotational constants (GHZ):      2.7681958      0.1511456      0.1439907
 Standard basis: 6-31G (6D, 7F)
 There are   166 symmetry adapted cartesian basis functions of A   symmetry.
 There are   166 symmetry adapted basis functions of A   symmetry.
   166 basis functions,   396 primitive gaussians,   166 cartesian basis functions
    55 alpha electrons       55 beta electrons
       nuclear repulsion energy       873.6046348220 Hartrees.
 NAtoms=   27 NActive=   27 NUniq=   27 SFac= 1.00D+00 NAtFMM=   60 NAOKFM=F Big=F
 Integral buffers will be    131072 words long.
 Raffenetti 2 integral format.
 Two-electron integral symmetry is turned on.
 Nuclear repulsion after empirical dispersion term =      873.5868883375 Hartrees.
 One-electron integrals computed using PRISM.
 NBasis=   166 RedAO= T EigKep=  1.53D-04  NBF=   166
 NBsUse=   166 1.00D-06 EigRej= -1.00D+00 NBFU=   166
 Initial guess from the checkpoint file:  "D:\User Dont delete\Downloads\molecule_25.chk"
 B after Tr=     0.000000    0.000000    0.000000
         Rot=    1.000000    0.000203    0.000219   -0.000467 Ang=   0.06 deg.
 ExpMin= 1.61D-01 ExpMax= 7.00D+03 ExpMxC= 1.05D+03 IAcc=1 IRadAn=         1 AccDes= 0.00D+00
 Harris functional with IExCor=  402 and IRadAn=       1 diagonalized for initial guess.
 HarFok:  IExCor=  402 AccDes= 0.00D+00 IRadAn=         1 IDoV= 1 UseB2=F ITyADJ=14
 ICtDFT=  3500011 ScaDFX=  1.000000  1.000000  1.000000  1.000000
 FoFCou: FMM=F IPFlag=           0 FMFlag=      100000 FMFlg1=           0
         NFxFlg=           0 DoJE=T BraDBF=F KetDBF=T FulRan=T
         wScrn=  0.000000 ICntrl=     500 IOpCl=  0 I1Cent=   200000004 NGrid=           0
         NMat0=    1 NMatS0=      1 NMatT0=    0 NMatD0=    1 NMtDS0=    0 NMtDT0=    0
 Petite list used in FoFCou.
 Keep R1 ints in memory in canonical form, NReq=98502739.
 Requested convergence on RMS density matrix=1.00D-08 within 128 cycles.
 Requested convergence on MAX density matrix=1.00D-06.
 Requested convergence on             energy=1.00D-06.
 No special actions if energy rises.
 Integral accuracy reduced to 1.0D-05 until final iterations.
 Initial convergence to 1.0D-05 achieved.  Increase integral accuracy.
 SCF Done:  E(RB3LYP) =  -677.881623381     A.U. after   13 cycles
            NFock= 13  Conv=0.77D-08     -V/T= 2.0056
 Calling FoFJK, ICntrl=      2127 FMM=F ISym2X=0 I1Cent= 0 IOpClX= 0 NMat=1 NMatS=1 NMatT=0.
 ***** Axes restored to original set *****
 -------------------------------------------------------------------
 Center     Atomic                   Forces (Hartrees/Bohr)
 Number     Number              X              Y              Z
 -------------------------------------------------------------------
      1        6          -0.002263194   -0.001488619    0.002361482
      2        6          -0.007316212    0.001966020    0.000611826
      3        6           0.024225830   -0.004940982    0.004858275
      4        6          -0.006867708    0.003069978   -0.002422039
      5        6          -0.002362026    0.000464320   -0.003000765
      6        6           0.016522372    0.000136145   -0.000687372
      7        1          -0.000279181    0.000198657   -0.001267656
      8        1           0.000449834    0.000548278   -0.000488832
      9        1           0.000323714   -0.000019268    0.000724453
     10        1          -0.000327600   -0.000687778    0.001026215
     11        6          -0.014944115    0.000582818   -0.002853086
     12        6           0.014709288   -0.000542672    0.002175773
     13        6          -0.024456147    0.002758406   -0.001650884
     14        6           0.008292523   -0.002099249    0.003359791
     15        6           0.009203799   -0.001628317   -0.003266307
     16        6          -0.004151811    0.000200727    0.000239745
     17        1          -0.000108523    0.000222404   -0.000701054
     18        6          -0.004179407    0.000266134   -0.000405209
     19        1          -0.000119723    0.000141348    0.000823612
     20        6           0.009618046    0.000553461    0.000167624
     21        1           0.000154251    0.000364312   -0.000129253
     22        1           0.000195163    0.000337391    0.000112457
     23        6          -0.013062713    0.000681656   -0.000296085
     24        1           0.002603059   -0.001997885    0.000073984
     25        1           0.002388411    0.000400505   -0.001469489
     26        1           0.002317268    0.000406643    0.001572929
     27        9          -0.010565199    0.000105567    0.000529863
 -------------------------------------------------------------------
 Cartesian Forces:  Max     0.024456147 RMS     0.005820961

 GradGradGradGradGradGradGradGradGradGradGradGradGradGradGradGradGradGrad
 Berny optimization.
 Using GEDIIS/GDIIS optimizer.
 FormGI is forming the generalized inverse of G from B-inverse, IUseBI=4.
 GSVD:  received Info=                   1 from GESDD.
 Internal  Forces:  Max     0.011500980 RMS     0.002440399
 Search for a local minimum.
 Step number   2 out of a maximum of  142
 All quantities printed in internal units (Hartrees-Bohrs-Radians)
 Mixed Optimization -- RFO/linear search
 Update second derivatives using D2CorX and points    1    2
 DE= -1.96D-02 DEPred=-1.76D-02 R= 1.11D+00
 TightC=F SS=  1.41D+00  RLast= 3.12D-01 DXNew= 5.0454D-01 9.3532D-01
 Trust test= 1.11D+00 RLast= 3.12D-01 DXMaxT set to 5.05D-01
 ITU=  1  0
 Use linear search instead of GDIIS.
     Eigenvalues ---    0.00230   0.00230   0.00232   0.00237   0.01350
     Eigenvalues ---    0.01514   0.01660   0.02077   0.02091   0.02104
     Eigenvalues ---    0.02111   0.02112   0.02116   0.02117   0.02118
     Eigenvalues ---    0.02120   0.02122   0.02125   0.02127   0.02131
     Eigenvalues ---    0.02149   0.02166   0.03941   0.04732   0.07021
     Eigenvalues ---    0.07062   0.15734   0.15999   0.15999   0.15999
     Eigenvalues ---    0.16000   0.16000   0.16000   0.16000   0.16000
     Eigenvalues ---    0.16000   0.16008   0.21435   0.21999   0.22002
     Eigenvalues ---    0.23042   0.23566   0.24040   0.24848   0.24999
     Eigenvalues ---    0.24999   0.25001   0.27388   0.28372   0.29386
     Eigenvalues ---    0.34279   0.34334   0.34389   0.34405   0.34407
     Eigenvalues ---    0.34451   0.34514   0.34627   0.37176   0.37230
     Eigenvalues ---    0.37239   0.41561   0.41731   0.42064   0.42742
     Eigenvalues ---    0.45393   0.45808   0.45857   0.45970   0.46043
     Eigenvalues ---    0.46072   0.46136   0.46792   0.54095   1.05562
 RFO step:  Lambda=-3.38579292D-03 EMin= 2.29973215D-03
 Quartic linear search produced a step of  0.21955.
 Maximum step size (   0.505) exceeded in Quadratic search.
    -- Step size scaled by   0.844
 Iteration  1 RMS(Cart)=  0.20392628 RMS(Int)=  0.02788997
 Iteration  2 RMS(Cart)=  0.20103446 RMS(Int)=  0.01102726
 Iteration  3 RMS(Cart)=  0.11159602 RMS(Int)=  0.00167721
 Iteration  4 RMS(Cart)=  0.00502501 RMS(Int)=  0.00070450
 Iteration  5 RMS(Cart)=  0.00000250 RMS(Int)=  0.00070450
 Iteration  6 RMS(Cart)=  0.00000001 RMS(Int)=  0.00070450
 Variable       Old X    -DE/DX   Delta X   Delta X   Delta X     New X
                                 (Linear)    (Quad)   (Total)
    R1        2.63728  -0.00024  -0.00074  -0.00023  -0.00096   2.63632
    R2        2.63653  -0.00166  -0.00125  -0.00361  -0.00487   2.63166
    R3        2.05003  -0.00097  -0.00360  -0.00067  -0.00426   2.04577
    R4        2.66302   0.00385   0.00239   0.00791   0.01031   2.67333
    R5        2.04803  -0.00032  -0.00461   0.00185  -0.00275   2.04528
    R6        2.64799   0.00742   0.00428   0.01434   0.01862   2.66662
    R7        2.73029  -0.01150  -0.04033  -0.01480  -0.05517   2.67512
    R8        2.64033  -0.00055  -0.00085  -0.00064  -0.00150   2.63883
    R9        2.04876  -0.00045  -0.00335   0.00070  -0.00265   2.04610
   R10        2.63411  -0.00183  -0.00187  -0.00353  -0.00542   2.62869
   R11        2.04959  -0.00084  -0.00376  -0.00019  -0.00395   2.04564
   R12        2.59961   0.01058   0.01064   0.01409   0.02473   2.62434
   R13        2.30104   0.00340   0.00767  -0.00021   0.00743   2.30847
   R14        2.73204  -0.01134  -0.03966  -0.01462  -0.05421   2.67783
   R15        2.65259   0.00544   0.00237   0.01118   0.01355   2.66614
   R16        2.65136   0.00600   0.00286   0.01210   0.01496   2.66633
   R17        2.64255  -0.00204   0.00016  -0.00465  -0.00449   2.63806
   R18        2.05043  -0.00054  -0.00332   0.00042  -0.00290   2.04753
   R19        2.64307  -0.00208   0.00015  -0.00471  -0.00456   2.63851
   R20        2.05074  -0.00066  -0.00376   0.00032  -0.00344   2.04730
   R21        2.65375   0.00097   0.00300   0.00007   0.00307   2.65682
   R22        2.05264  -0.00004  -0.00307   0.00176  -0.00131   2.05132
[...]
 4,0.00000705,0.00000801,0.00000401,-0.00000766,0.00000159,-0.00000501,
 -0.00003168,0.00006695,-0.00011201,-0.00007977,-0.00091998,0.00002298,
 -0.00016624,-0.00926458,0.01072636,-0.01385220,0.00827302,-0.00509148,
 0.01355978,0.00805756,-0.00381603,-0.00833009,-0.07705559,0.03566967,0
 .00046185,0.00743983,0.00109124,0.00940009,-0.07774587,0.03639983,-0.0
 0021944,0.00749001,0.00108130,-0.00579516,0.19621162,0.00001118,-0.000
 00126,0.00000603,-0.00003461,0.00000017,-0.00001141,0.00001929,0.00001
 078,0.00003291,0.00002405,-0.00000084,-0.00000422,-0.00001614,-0.00000
 623,0.00001887,0.00001505,0.00000404,-0.00001887,-0.00000202,-0.000000
 11,0.00000115,0.00000025,0.00000037,0.00000358,0.00000251,0.00000133,0
 .00000503,-0.00000082,0.00000029,-0.00000078,-0.00000979,-0.00011206,0
 .00064865,-0.00000962,0.00002303,-0.00103849,-0.00015160,0.01072523,-0
 .06494170,0.07376510,-0.00434207,0.03100246,-0.07361271,-0.00456670,0.
 03156687,0.04760919,0.03467066,-0.26507273,-0.00179808,0.00120758,0.00
 185419,-0.04771651,0.03739886,-0.26384504,0.00186477,0.00096600,0.0017
 9621,-0.00106382,-0.08898744,0.65819519,-0.00001476,-0.00000193,0.0000
 0396,-0.00009513,0.00000906,-0.00004433,0.00018297,-0.00001339,0.00008
 629,-0.00005629,-0.00000403,0.00001805,-0.00001233,-0.00000146,0.00001
 231,0.00007253,0.00000049,-0.00000253,-0.00001739,-0.00000078,0.000003
 52,0.00001414,0.00000191,-0.00000857,0.00001587,-0.00000275,0.00001327
 ,-0.00001060,0.00000076,-0.00000417,-0.00042060,-0.00001011,0.00006937
 ,-0.00039556,0.00020790,-0.00134041,-0.00462509,-0.00032946,0.00176779
 ,-0.01267100,0.00562828,-0.03027969,-0.00048205,-0.00012885,0.00072536
 ,-0.12829945,0.02100850,-0.11800800,0.00057498,-0.00007456,0.00046772,
 -0.00127472,-0.00062741,0.00320826,0.00007048,0.00001645,-0.00010787,0
 .00951782,-0.00302750,0.01618223,0.13638002,0.00000191,0.00000336,0.00
 000411,0.00000328,0.00000471,0.00000394,-0.00001209,-0.00001312,-0.000
 00076,0.00000383,-0.00001335,-0.00000407,0.00000156,-0.00000512,-0.000
 00481,-0.00000990,0.00000283,0.00000072,0.00000104,0.00000192,-0.00000
 031,-0.00000128,0.00000420,0.00000128,-0.00000121,0.00000460,0.0000000
 9,0.00000087,0.00000204,0.00000103,-0.00000541,-0.00015853,-0.00002203
 ,0.00000718,0.00044957,0.00006365,-0.00022919,0.00730163,0.00098795,-0
 .00072848,0.00329374,-0.00007287,-0.00021715,-0.00027343,-0.00009545,0
 .02112024,-0.04566990,0.04011660,0.00007017,-0.00413928,-0.00093092,-0
 .00064626,0.00590207,0.00174279,0.00002183,-0.00120529,-0.00022671,0.0
 0258622,0.00334260,0.00436802,-0.02245907,0.03453468,-0.00001091,0.000
 00424,-0.00002106,-0.00002700,0.00000408,-0.00001531,0.00009565,-0.000
 00056,-0.00000589,-0.00002856,-0.00000427,0.00000760,-0.00000941,-0.00
 000509,0.00002307,0.00006595,0.00000082,-0.00000120,-0.00000711,-0.000
 00048,0.00000432,0.00000897,0.00000174,-0.00000396,0.00000825,-0.00000
 025,0.00000536,-0.00000597,0.00000118,-0.00000412,-0.00002849,-0.00002
 199,-0.00003882,-0.00000323,0.00006278,0.00006080,0.00105124,0.0009576
 0,0.00205758,0.00417178,0.00004656,0.00331175,0.00097612,-0.00011894,0
 .00029216,-0.11755594,0.04039520,-0.26234325,-0.00041915,-0.00091083,0
 .00080203,0.00390967,0.00149734,-0.00233467,-0.00012659,-0.00020212,-0
 .00007239,-0.01727888,0.00431278,-0.01990752,0.12559780,-0.04538943,0.
 27811732,-0.00001234,0.00000305,-0.00001189,-0.00005626,0.00000268,-0.
 00001808,0.00018234,0.00001864,-0.00008594,-0.00009488,-0.00000752,0.0
 0004489,-0.00001474,-0.00000038,-0.00000442,0.00007231,-0.00000041,0.0
 0000230,-0.00001057,-0.00000080,0.00000419,0.00001579,0.00000220,-0.00
 001340,0.00001415,-0.00000129,0.00000863,-0.00001738,0.00000052,-0.000
 00349,-0.00042073,0.00001527,-0.00006714,-0.00039119,-0.00028815,0.001
 32696,-0.00463426,0.00032454,-0.00174749,-0.00048764,0.00014013,-0.000
 72065,-0.01258523,-0.00564375,0.03032936,-0.00129835,0.00056907,-0.003
 22342,0.00007128,-0.00002344,0.00010624,-0.12753376,-0.02273341,0.1172
 2039,0.00057493,0.00009821,-0.00046206,0.00952378,0.00301098,-0.016285
 13,0.00056141,0.00017937,-0.00072534,0.13556011,-0.00000195,-0.0000047
 9,-0.00000593,-0.00000673,-0.00001344,-0.00000403,0.00002320,-0.000012
 59,-0.00000197,-0.00000670,0.00000481,0.00000387,-0.00000213,0.0000030
 0,0.00000516,0.00001452,0.00000283,0.00000079,-0.00000134,0.00000198,0
 .00000133,0.00000184,0.00000465,-0.00000038,0.00000204,0.00000416,0.00
 000184,-0.00000160,0.00000197,-0.00000059,-0.00001550,-0.00015785,-0.0
 0002381,0.00000528,0.00044147,0.00008388,0.00016025,0.00727758,0.00102
 146,0.00014773,-0.00027202,-0.00012294,0.00081077,0.00328489,0.0000788
 5,0.00080301,0.00592537,0.00143492,-0.00002506,-0.00120287,-0.00020868
 ,-0.02246579,-0.04669265,0.04311672,-0.00008550,-0.00411898,-0.0009649
 9,-0.00378096,0.00324856,0.00455692,-0.00009233,0.00022858,0.00027796,
 0.02410330,0.03559159,0.00000946,-0.00000564,0.00002276,0.00002823,-0.
 00000382,0.00000765,-0.00009420,-0.00000215,-0.00000580,0.00002663,0.0
 0000371,-0.00001565,0.00001084,0.00000503,-0.00002072,-0.00006534,0.00
 000069,-0.00000099,0.00000591,0.00000118,-0.00000410,-0.00000816,-0.00
 000004,0.00000538,-0.00000889,0.00000139,-0.00000391,0.00000708,-0.000
 00042,0.00000426,0.00002587,-0.00002389,-0.00003938,0.00000702,0.00008
 488,0.00006440,-0.00104266,0.00105161,0.00209150,-0.00098621,-0.000099
 55,0.00029648,-0.00410462,-0.00004050,0.00323544,-0.00388499,0.0016805
 7,-0.00233431,0.00012564,-0.00023325,-0.00007570,0.11684112,0.04283947
 ,-0.26208693,0.00041757,-0.00098507,0.00078138,0.01695834,0.00460949,-
 0.01981715,0.00073581,0.00023166,-0.00109445,-0.12479888,-0.04820904,0
 .27787694,0.00003297,-0.00000146,0.00001364,-0.00005821,-0.00001094,0.
 00005768,0.00022998,-0.00001301,-0.00000284,-0.00005840,0.00001051,-0.
 00005758,0.00003293,0.00000354,-0.00001336,-0.00002045,-0.00000017,0.,
 0.00000065,0.00000004,0.00000039,-0.00000154,-0.00000039,-0.00000016,-
 0.00000153,-0.00000042,0.00000003,0.00000065,0.00000017,-0.00000035,-0
 .00064948,-0.00001055,-0.00000089,0.00112973,0.00019135,0.00003410,-0.
 00172842,-0.00013447,-0.00001933,0.00301997,-0.00069372,0.00115582,0.0
 0301773,-0.00022359,-0.00135505,-0.02371632,-0.00007110,0.00321093,-0.
 00010221,0.00014705,-0.00015195,-0.02383638,0.00107916,-0.00294074,-0.
 00010587,0.00008235,0.00019490,-0.20912684,0.00280208,0.00072004,0.001
 14841,0.00069897,-0.00123788,0.00114794,0.00020505,0.00140319,0.487852
 34,0.00000312,-0.00001089,0.00004452,0.00005954,0.00000072,0.00000293,
 -0.00023492,0.00003449,0.00000908,0.00005923,-0.00000026,-0.00000002,0
 .00000249,0.00000850,-0.00004632,-0.00009832,0.00000192,0.00000051,0.0
 0000950,0.00000185,-0.00000689,-0.00000705,-0.00000058,0.00000290,-0.0
 0000828,0.00000037,-0.00000425,0.00000936,-0.00000058,0.00000713,0.000
 33147,0.00006665,0.00001028,-0.00045342,-0.00091208,-0.00021961,0.0008
 8919,-0.00082638,-0.00008960,-0.00148838,0.00632762,0.00245961,-0.0009
 4601,0.00610735,0.00161523,-0.00600913,0.00545077,0.00023474,-0.000390
 18,0.00002568,-0.00000110,0.00561257,0.00467199,0.00071246,0.00009176,
 0.00004441,0.00001438,-0.00160469,-0.07454388,0.00329719,0.00009281,-0
 .00340976,-0.00138295,0.00049250,-0.00330727,-0.00012890,0.01088547,0.
 54118380,-0.00000078,0.00000396,0.00001321,0.00001042,-0.00000239,-0.0
 0000847,-0.00004461,0.00000870,-0.00001050,0.00001210,0.00000551,-0.00
 000732,0.00000173,-0.00000575,-0.00000631,-0.00001845,0.00000036,0.000
 00010,0.00000132,0.00000082,-0.00000131,-0.00000470,-0.00000177,0.0000
 0397,0.00000184,0.00000039,0.00000299,0.00000222,-0.00000055,0.0000011
 6,0.00006353,0.00001086,0.00001034,-0.00008680,-0.00022069,0.00023186,
 0.00017040,-0.00008753,-0.00037098,0.00122188,0.00105808,-0.00445713,-
 0.00170530,0.00301401,-0.00423652,0.03124391,-0.00127994,0.00216133,0.
 00126772,0.00006266,0.00000931,-0.03123398,0.00222437,0.00304961,-0.00
 132347,-0.00005027,-0.00000561,-0.00011668,0.00329124,-0.09164834,0.00
 112435,0.00012382,0.00061146,-0.00101432,-0.00163631,0.00051492,0.0022
 1340,-0.00896497,0.58760867,-0.00002212,0.00000712,-0.00004732,-0.0000
 3328,0.00000289,-0.00003305,0.00011661,-0.00000179,-0.00000052,-0.0000
 3317,-0.00000921,0.00003201,-0.00002195,-0.00001037,0.00004677,0.00010
 758,0.00000168,0.00000014,-0.00001063,0.00000004,0.00000704,0.00001065
 ,0.00000430,-0.00000410,0.00001066,0.00000254,0.00000533,-0.00001066,0
 .00000256,-0.00000651,-0.00001187,-0.00002510,-0.00000470,-0.00018872,
 0.00017184,0.00003218,0.00008583,0.00022647,0.00004397,-0.00045899,-0.
 00143246,-0.00051983,-0.00045384,-0.00152405,-0.00002931,-0.00016401,-
 0.00023759,-0.00150405,-0.00011398,0.00002189,0.00006122,-0.00015910,-
 0.00076596,0.00131581,-0.00011380,0.00004272,-0.00004890,-0.01774760,0
 .03204050,0.00601722,0.00007679,0.00062602,0.00047424,0.00007566,0.000
 75604,-0.00021912,-0.07215740,0.07889972,0.01477350,0.08343232,0.00001
 291,-0.00000105,0.00001218,-0.00000489,-0.00000122,0.00001856,0.000022
 20,0.00000282,0.00000024,-0.00000463,0.00000615,-0.00001882,0.00001293
 ,0.00000267,-0.00001136,-0.00003373,-0.00000150,-0.00000052,0.00000240
 ,-0.00000082,-0.00000180,-0.00000399,-0.00000250,0.00000224,-0.0000039
 4,-0.00000164,-0.00000265,0.00000266,-0.00000151,0.00000136,-0.0001384
 9,-0.00000080,0.00000384,0.00029686,-0.00005213,-0.00000980,-0.0004735
 5,-0.00000284,-0.00018999,0.00070194,-0.00000937,0.00011500,0.00032832
 ,0.00012718,0.00010871,-0.00062594,0.00001642,0.00066224,0.00003727,0.
 00003085,0.00000383,0.00000041,0.00045905,-0.00049657,0.00004483,0.000
 00947,0.00000936,0.00040719,0.00317321,0.00044658,0.00004203,-0.000233
 55,0.00006943,0.00006669,-0.00031448,-0.00010590,0.07515291,-0.2669707
 2,-0.04112021,-0.08561041,0.29315468,0.00000262,-0.00000167,0.00000050
 ,0.00000003,0.00000032,0.00000690,0.00000405,0.00000030,0.00000134,-0.
 00000173,-0.00000055,-0.00000062,0.00000229,0.00000254,-0.00000337,-0.
 00000645,-0.00000058,0.00000149,0.00000116,-0.00000042,-0.00000039,-0.
 00000061,-0.00000044,-0.00000052,-0.00000091,0.,-0.00000140,-0.0000001
 8,-0.00000003,0.00000032,-0.00002605,0.00000365,-0.00001939,0.00005606
 ,-0.00000991,-0.00000378,-0.00008746,-0.00019145,0.00098962,-0.0009101
 5,0.00046391,-0.00045524,0.00110383,-0.00023244,-0.00059496,0.00163081
 ,0.00064355,0.00002956,0.00002798,-0.00004591,-0.00002521,-0.00174883,
 -0.00047648,-0.00040874,-0.00001220,0.00005896,-0.00000364,0.00010948,
 0.00039357,0.00084752,0.00007549,-0.00031555,-0.00021772,-0.00005626,0
 .00027456,-0.00013760,0.01407257,-0.04112591,-0.05519807,-0.01604881,0
 .04600948,0.05620852,-0.00000661,0.00000341,-0.00002107,-0.00001847,0.
 00000358,-0.00000549,0.00006884,-0.00000106,0.00000589,-0.00001879,-0.
 00000300,0.00001476,-0.00000798,-0.00000136,0.00001765,0.00004483,-0.0
 0000068,0.00000078,-0.00000412,-0.00000104,0.00000284,0.00000573,-0.00
 000019,-0.00000397,0.00000404,-0.00000189,0.00000058,-0.00000539,0.000
 00011,-0.00000295,-0.00004075,0.00001060,-0.00000652,0.00000009,-0.000
 04141,-0.00010570,0.00011729,-0.00011999,-0.00018618,-0.00012697,0.000
 61238,0.00144816,-0.00000875,0.00041557,0.00022090,-0.00551620,-0.0001
 8331,-0.00205422,-0.00043058,0.00005080,0.00002018,0.00135086,0.000252
 73,0.00184012,0.00001815,-0.00001732,-0.00002809,-0.01498399,-0.020354
 42,0.02660922,0.00006788,-0.00029424,-0.00005555,-0.00020554,-0.000231
 45,-0.00143519,-0.08277632,-0.05673213,0.06507464,0.00396195,0.0064907
 9,-0.00781569,0.09415563,-0.00000360,0.00000340,-0.00001594,-0.0000162
 3,-0.00000017,-0.00000175,0.00006510,0.00000080,0.00000214,-0.00001617
 ,-0.00000112,0.00000583,-0.00000415,-0.00000378,0.00001421,0.00003805,
 0.00000011,0.00000095,-0.00000272,-0.00000033,0.00000247,0.00000355,0.
 00000038,-0.00000269,0.00000369,0.00000066,0.00000186,-0.00000382,0.00
 000076,-0.00000236,-0.00006387,-0.00000300,-0.00000222,0.00007046,-0.0
 0000099,-0.00001798,-0.00008122,0.00010324,-0.00050944,0.00087968,0.00
 003780,0.00013043,-0.00029204,0.00005962,-0.00004809,-0.00003455,0.000
 33372,-0.00003367,0.00002696,-0.00006734,-0.00002386,0.00041270,0.0004
 0444,0.00024688,-0.00002684,-0.00003272,-0.00000650,0.00366322,0.00171
 308,-0.00195918,0.00004880,-0.00002727,0.00000170,-0.00030464,0.000045
 88,-0.00048610,-0.05901906,-0.14188173,0.11222794,-0.01157554,-0.01955
 825,0.02452452,0.06206504,0.15232123,0.00000851,-0.00000426,0.00000825
 ,0.00000402,-0.00000245,0.00000763,-0.00001005,-0.00000681,-0.00000403
 ,0.00000382,-0.00000101,-0.00001224,0.00000899,0.00000317,-0.00000685,
 -0.00003048,0.00000137,-0.00000053,0.00000208,0.00000128,-0.00000147,-
 0.00000454,0.00000154,0.00000386,-0.00000429,0.00000154,-0.00000209,0.
 00000294,0.00000085,0.00000184,-0.00003829,-0.00000492,-0.00000478,0.0
 0013386,0.00011317,0.00007326,-0.00028038,-0.00010417,0.00018908,0.000
 01990,0.00006175,-0.00005525,0.00060722,-0.00051862,-0.00000430,0.0003
 5477,0.00054423,0.00054405,0.00006370,-0.00001382,-0.00000550,-0.00203
 633,-0.00059760,0.00043324,0.00006313,0.00003233,0.00001997,-0.0005363
 3,-0.00095317,-0.00051802,-0.00019122,-0.00002803,0.00050698,0.0000005
 7,0.00047388,0.00028828,0.06700158,0.11179636,-0.18446120,-0.00202044,
 -0.00488286,0.00436889,-0.07445376,-0.12515715,0.19888500,-0.00000806,
 0.00000505,-0.00001692,-0.00001884,0.00000251,-0.00001479,0.00006881,0
 .00000120,-0.00000611,-0.00001845,0.00000135,0.00000646,-0.00000654,-0
 .00000438,0.00002091,0.00004485,-0.00000033,-0.00000112,-0.00000538,-0
 .00000096,0.00000281,0.00000405,-0.00000155,-0.00000123,0.00000575,-0.
 00000160,0.00000363,-0.00000413,0.00000005,-0.00000301,-0.00004066,0.0
 0000751,0.00001002,0.00000028,-0.00007687,0.00008397,0.00011890,-0.000
 17858,0.00013195,-0.00001115,0.00046716,-0.00005571,-0.00012954,0.0010
 9008,-0.00113366,0.00135239,0.00089899,-0.00163057,0.00001807,-0.00002
 629,0.00001989,-0.00551692,-0.00091404,0.00186967,-0.00043112,0.000054
 31,0.00000084,-0.01506998,-0.00938635,-0.03211549,-0.00020254,-0.00073
 300,0.00125916,0.00006859,-0.00029419,-0.00005230,-0.08327377,-0.02963
 851,-0.08166627,0.00398981,0.00323787,0.00962141,0.00442699,0.00422677
 ,0.01129361,0.09471042,-0.00000068,0.00000166,-0.00001092,-0.00001371,
 -0.00000096,-0.00000141,0.00005709,-0.00000135,-0.00000131,-0.00001369
 ,-0.00000057,-0.00000137,-0.00000025,-0.00000275,0.00001168,0.00002450
 ,0.00000082,-0.00000052,-0.00000250,0.00000040,0.00000181,0.00000189,0
 .00000145,-0.00000051,0.00000168,0.00000045,0.00000136,-0.00000179,0.0
 0000078,-0.00000159,-0.00007335,-0.00000565,0.00000213,0.00011390,0.00
 004049,0.00000500,-0.00017525,-0.00009161,0.00040178,-0.00005395,-0.00
 013886,-0.00000402,0.00082717,0.00009325,-0.00007747,-0.00034730,0.000
 28788,-0.00030176,-0.00000227,-0.00001731,-0.00000783,0.00009121,0.000
 53548,0.00002984,0.00004782,-0.00007234,-0.00000201,0.00321880,0.00043
 676,0.00229915,-0.00028272,0.00007405,0.00040422,-0.00002394,0.0000316
 6,-0.00018486,-0.03107965,-0.07206057,-0.06866185,-0.01161277,-0.00983
 128,-0.02997446,0.00807801,0.00655160,0.01924457,0.03126383,0.07416725
 ,-0.00000989,0.00000009,-0.00001223,-0.00000943,0.00000535,-0.00001233
 ,0.00003282,0.00000783,-0.00000193,-0.00000957,-0.00000072,0.00000802,
 -0.00000916,0.00000002,0.00001440,0.00004205,-0.00000083,-0.00000136,-
 0.00000410,-0.00000141,0.00000221,0.00000531,-0.00000016,-0.00000289,0
 .00000551,-0.00000284,0.00000378,-0.00000292,-0.00000041,-0.00000257,0
 .00001242,0.00000456,-0.00000223,-0.00009868,-0.00012533,0.00003187,0.
 00023218,-0.00000321,0.00038210,-0.00066917,0.00046406,0.00019708,0.00
 029889,-0.00000948,-0.00010483,0.00204560,0.00053988,0.00054728,-0.000
 06858,-0.00004660,0.00000468,-0.00032287,-0.00054561,0.00034153,-0.000
 04831,-0.00001196,-0.00000063,0.00187463,0.00135337,0.00084404,-0.0001
 0821,-0.00055409,0.00025852,0.00019747,-0.00015286,0.00044620,-0.08429
 814,-0.06823606,-0.25380813,-0.00232284,-0.00062297,-0.00538276,-0.009
 08022,-0.00889102,-0.02025469,0.09237144,0.07682976,0.27650346,-0.0399
 7730,-0.00015317,0.00067241,0.00318704,0.00070741,-0.00381977,-0.00067
 634,-0.00000070,0.00000731,0.00318809,-0.00070658,0.00378577,-0.039843
 86,0.00007108,-0.00053322,-0.29660119,-0.00023362,0.00034185,0.0019604
 5,-0.00001905,0.00012342,-0.00146440,-0.00002611,0.00013516,-0.0014600
 5,0.00002323,-0.00013010,0.00195489,0.00002609,-0.00011923,-0.00011097
 ,-0.00000080,0.00000071,-0.00048031,-0.00000039,0.00000081,0.00083211,
 0.00000823,0.00000001,-0.00029427,-0.00003220,0.00023392,-0.00029507,0
 .00005387,-0.00022899,-0.00013674,-0.00005927,0.00033703,0.00008492,-0
 .00001342,0.00003672,-0.00013784,0.00006580,-0.00033530,0.00008479,0.0
 0000071,-0.00003932,0.00005784,-0.00012614,-0.00002375,-0.00010577,0.0
 0001476,-0.00009882,-0.00010544,-0.00002181,0.00009786,-0.00000017,0.0
 0017228,0.00003240,-0.00016674,0.00003935,0.00000757,-0.00007182,-0.00
 005957,0.00003742,-0.00007182,-0.00004207,-0.00005625,0.37064996,0.007
 55772,0.00433624,-0.00025663,-0.00064659,0.00699420,0.00262146,-0.0000
 0103,-0.00110390,-0.00093320,0.00064738,0.00699342,0.00262690,-0.00764
 177,0.00432231,-0.00023401,-0.00023136,-0.03558997,0.00599031,-0.00027
 539,-0.00367407,-0.00120586,0.00026142,-0.00000148,-0.00003386,-0.0002
 6424,-0.00000200,-0.00003332,0.00028221,-0.00367321,-0.00120666,0.0000
 0030,-0.00082902,-0.00022643,-0.00000039,0.00002008,0.00000817,0.00000
 070,0.00003080,0.00001039,-0.00000064,0.00000769,0.00000493,0.00000033
 ,0.00000764,0.00000466,-0.00000052,0.00000198,-0.00000035,-0.00000045,
 -0.00000601,-0.00000251,0.00000009,0.00000221,-0.00000111,0.00000052,-
 0.00000592,-0.00000267,0.00000046,-0.00000004,-0.00000030,-0.00000064,
 -0.00000202,-0.00000071,0.00000057,-0.00000204,-0.00000055,-0.00000014
 ,-0.00000144,-0.00000047,-0.00000108,0.00000115,0.00000047,0.00000045,
 -0.00000005,-0.00000117,-0.00000002,-0.00000071,0.00000064,0.00031210,
 0.02217413,-0.04081134,-0.00028313,0.00566491,0.00346321,0.00262650,-0
 .00663394,0.00000752,-0.00093328,0.00374300,-0.00349778,0.00262196,-0.
 00663486,0.04095037,-0.00020734,0.00554091,0.00034199,0.00599012,-0.06
 669653,0.00150212,-0.00120506,0.00258809,-0.00141130,-0.00003493,0.000
 17465,0.00141624,-0.00003228,0.00017074,-0.00149737,-0.00120744,0.0025
 9331,0.00000085,-0.00022643,0.00034689,0.00000071,0.00000817,-0.000022
 34,-0.00000132,0.00001038,-0.00002320,0.00000305,0.00000460,-0.0000176
 6,-0.00000217,0.00000496,-0.00001682,0.00000185,-0.00000041,0.00000544
 ,0.00000249,-0.00000241,0.00000746,-0.00000145,-0.00000106,0.00000633,
 -0.00000273,-0.00000275,0.00000750,0.,-0.00000009,0.00000156,0.0000034
 2,-0.00000063,0.00000141,-0.00000307,-0.00000062,0.00000111,-0.0000000
 2,-0.00000076,0.00000095,0.00000007,0.00000040,-0.00000125,-0.00000111
 ,-0.00000098,0.00000059,0.00000143,0.00000062,0.00000141,-0.00046564,-
 0.00712811,0.05919034||-0.00001494,0.00000049,-0.00000188,0.00000844,0
 .00000468,-0.00000704,0.00000260,-0.00000688,0.00000957,-0.00000981,0.
 00000233,-0.00000384,0.00000640,0.00000239,-0.00000769,0.00001414,-0.0
 0000506,0.00001218,0.00000189,-0.00000045,-0.00000015,-0.00000246,-0.0
 0000103,0.00000094,0.00000122,-0.00000070,0.00000012,-0.00000130,-0.00
 000061,0.00000216,0.00000595,0.00000134,-0.00000281,0.00000167,0.00000
 173,-0.00000136,-0.00000663,0.00000165,0.00000523,-0.00000346,-0.00000
 076,-0.00000517,0.00000147,-0.00000181,0.00000032,0.00000777,-0.000001
 07,0.00000096,0.00000076,-0.00000030,0.00000092,0.00000176,0.00000149,
 -0.00000296,0.00000059,-0.00000004,-0.00000025,-0.00001194,0.00000246,
 0.00000234,-0.00000058,0.00000032,-0.00000108,0.,-0.00000115,0.0000012
 9,0.00001372,-0.00000324,-0.00000055,-0.00000230,0.00000457,0.00000059
 ,-0.00000317,-0.00000152,0.00000225,-0.00000295,-0.00000038,-0.0000021
 2,-0.00000883,0.00000155,-0.00000198|||@


 A COMPUTER IS LIKE A HORSE, IT WILL SENSE WEAKNESS.
     -- GREG WETTSTEIN
 Job cpu time:       0 days  0 hours  4 minutes 14.0 seconds.
 File lengths (MBytes):  RWF=    112 Int=      0 D2E=      0 Chk=      3 Scr=      1
 Normal termination of Gaussian 09 at Mon Sep 11 18:58:01 2023.
