 Entering Link 1 = C:\G09W\l1.exe PID=      2240.
  
 Copyright (c) 1988,1990,1992,1993,1995,1998,2003,2009,2013,
            Gaussian, Inc.  All Rights Reserved.
  
 This is part of the Gaussian(R) 09 program.  It is based on
 the Gaussian(R) 03 system (copyright 2003, Gaussian, Inc.),
 the Gaussian(R) 98 system (copyright 1998, Gaussian, Inc.),
 the Gaussian(R) 94 system (copyright 1995, Gaussian, Inc.),
 the Gaussian 92(TM) system (copyright 1992, Gaussian, Inc.),
 the Gaussian 90(TM) system (copyright 1990, Gaussian, Inc.),
 the Gaussian 88(TM) system (copyright 1988, Gaussian, Inc.),
 the Gaussian 86(TM) system (copyright 1986, Carnegie Mellon
 University), and the Gaussian 82(TM) system (copyright 1983,
 Carnegie Mellon University). Gaussian is a federally registered
 trademark of Gaussian, Inc.
  
 This software contains proprietary and confidential information,
 including trade secrets, belonging to Gaussian, Inc.
  
 This software is provided under written license and may be
 used, copied, transmitted, or stored only in accord with that
 written license.
  
 The following legend is applicable only to US Government
 contracts under FAR:
  
                    RESTRICTED RIGHTS LEGEND
  
 Use, reproduction and disclosure by the US Government is
 subject to restrictions as set forth in subparagraphs (a)
 and (c) of the Commercial Computer Software - Restricted
 Rights clause in FAR 52.227-19.
  
 Gaussian, Inc.
 340 Quinnipiac St., Bldg. 40, Wallingford CT 06492
  
  
 ---------------------------------------------------------------
 Warning -- This program may not be used in any manner that
 competes with the business of Gaussian, Inc. or will provide
 assistance to any competitor of Gaussian, Inc.  The licensee
 of this program is prohibited from giving any competitor of
 Gaussian, Inc. access to this program.  By using this program,
 the user acknowledges that Gaussian, Inc. is engaged in the
 business of creating and licensing software in the field of
 computational chemistry and represents and warrants to the
 licensee that it is not a competitor of Gaussian, Inc. and that
 it will not use this program in any manner prohibited above.
 ---------------------------------------------------------------
  

 Cite this work as:
 Gaussian 09, Revision D.01,
 M. J. Frisch, G. W. Trucks, H. B. Schlegel, G. E. Scuseria, 
 M. A. Robb, J. R. Cheeseman, G. Scalmani, V. Barone, B. Mennucci, 
 G. A. Petersson, H. Nakatsuji, M. Caricato, X. Li, H. P. Hratchian, 
 A. F. Izmaylov, J. Bloino, G. Zheng, J. L. Sonnenberg, M. Hada, 
 M. Ehara, K. Toyota, R. Fukuda, J. Hasegawa, M. Ishida, T. Nakajima, 
 Y. Honda, O. Kitao, H. Nakai, T. Vreven, J. A. Montgomery, Jr., 
 J. E. Peralta, F. Ogliaro, M. Bearpark, J. J. Heyd, E. Brothers, 
 K. N. Kudin, V. N. Staroverov, T. Keith, R. Kobayashi, J. Normand, 
 K. Raghavachari, A. Rendell, J. C. Burant, S. S. Iyengar, J. Tomasi, 
 M. Cossi, N. Rega, J. M. Millam, M. Klene, J. E. Knox, J. B. Cross, 
 V. Bakken, C. Adamo, J. Jaramillo, R. Gomperts, R. E. Stratmann, 
 O. Yazyev, A. J. Austin, R. Cammi, C. Pomelli, J. W. Ochterski, 
 R. L. Martin, K. Morokuma, V. G. Zakrzewski, G. A. Voth, 
 P. Salvador, J. J. Dannenberg, S. Dapprich, A. D. Daniels, 
 O. Farkas, J. B. Foresman, J. V. Ortiz, J. Cioslowski, 
 and D. J. Fox, Gaussian, Inc., Wallingford CT, 2013.
 
 ******************************************
 Gaussian 09:  EM64W-G09RevD.01 13-Apr-2013
                11-Sep-2023 
 ******************************************
 %nprocshared=6
 Will use up to    6 processors via shared memory.
 %mem=6GB
 %chk=D:\User Dont delete\Downloads\molecule_33.chk
 ----------------------------------------------
 # opt freq b3lyp/6-31g empiricaldispersion=gd3
 ----------------------------------------------
 1/14=-1,18=20,19=15,26=3,38=1/1,3;
 2/9=110,12=2,17=6,18=5,40=1/2;
 3/5=1,6=6,11=2,16=1,25=1,30=1,71=1,74=-5,124=31/1,2,3;
 4//1;
 5/5=2,38=5/2;
 6/7=2,8=2,9=2,10=2,28=1/1;
 7//1,2,3,16;
 1/14=-1,18=20,19=15,26=3/3(2);
 2/9=110/2;
 99//99;
 2/9=110/2;
 3/5=1,6=6,11=2,16=1,25=1,30=1,71=1,74=-5,124=31/1,2,3;
 4/5=5,16=3,69=1/1;
 5/5=2,38=5/2;
 7//1,2,3,16;
 1/14=-1,18=20,19=15,26=3/3(-5);
 2/9=110/2;
 6/7=2,8=2,9=2,10=2,19=2,28=1/1;
 99/9=1/99;
 -------------------
 Title Card Required
 -------------------
 Symbolic Z-matrix:
 Charge =  0 Multiplicity = 1
 C                    -5.33559  -0.93632   1.21752 
 C                    -3.9208   -0.97369   1.20624 
 C                    -3.25152  -0.50476   0.07853 
 C                    -3.97388  -0.04724  -1.01321 
 C                    -5.37317  -0.02998  -0.95143 
 H                    -5.8565   -1.26309   2.09308 
 H                    -3.38374  -1.34979   2.06498 
 H                    -3.47776   0.29758  -1.90012 
 H                    -5.94289   0.33706  -1.76216 
 C                    -1.70743  -0.51205   0.02278 
 C                    -0.50686  -0.51291  -0.03033 
 C                     1.03104  -0.51398  -0.09865 
 C                     1.7534   -0.51074   1.1062 
 C                     1.75097  -0.49616  -1.31937 
 C                     3.15594  -0.50917   1.10611 
 H                     1.22116  -0.53024   2.04799 
 C                     3.12977  -0.50389  -1.32262 
 H                     1.20396  -0.48933  -2.23851 
 C                     3.85891  -0.50848  -0.11739 
 H                     3.68082  -0.52023   2.03799 
 H                     3.67535  -0.50216  -2.24295 
 N                    -6.0147   -0.49631   0.12982 
 Cl                    5.61879  -0.51327  -0.13725 
 

 GradGradGradGradGradGradGradGradGradGradGradGradGradGradGradGradGradGrad
 Berny optimization.
 Initialization pass.
                           ----------------------------
                           !    Initial Parameters    !
                           ! (Angstroms and Degrees)  !
 --------------------------                            --------------------------
 ! Name  Definition              Value          Derivative Info.                !
 --------------------------------------------------------------------------------
 ! R1    R(1,2)                  1.4153         estimate D2E/DX2                !
 ! R2    R(1,6)                  1.0699         estimate D2E/DX2                !
 ! R3    R(1,22)                 1.3557         estimate D2E/DX2                !
 ! R4    R(2,3)                  1.3927         estimate D2E/DX2                !
 ! R5    R(2,7)                  1.0804         estimate D2E/DX2                !
 ! R6    R(3,4)                  1.3867         estimate D2E/DX2                !
 ! R7    R(3,10)                 1.5451         estimate D2E/DX2                !
 ! R8    R(4,5)                  1.4008         estimate D2E/DX2                !
 ! R9    R(4,8)                  1.0732         estimate D2E/DX2                !
 ! R10   R(5,9)                  1.0567         estimate D2E/DX2                !
 ! R11   R(5,22)                 1.3409         estimate D2E/DX2                !
 ! R12   R(10,11)                1.2017         estimate D2E/DX2                !
 ! R13   R(11,12)                1.5394         estimate D2E/DX2                !
 ! R14   R(12,13)                1.4048         estimate D2E/DX2                !
 ! R15   R(12,14)                1.4173         estimate D2E/DX2                !
 ! R16   R(13,15)                1.4025         estimate D2E/DX2                !
 ! R17   R(13,16)                1.082          estimate D2E/DX2                !
 ! R18   R(14,17)                1.3788         estimate D2E/DX2                !
 ! R19   R(14,18)                1.0696         estimate D2E/DX2                !
 ! R20   R(15,19)                1.4111         estimate D2E/DX2                !
 ! R21   R(15,20)                1.0696         estimate D2E/DX2                !
 ! R22   R(17,19)                1.4086         estimate D2E/DX2                !
 ! R23   R(17,21)                1.0699         estimate D2E/DX2                !
 ! R24   R(19,23)                1.76           estimate D2E/DX2                !
 ! A1    A(2,1,6)              119.0224         estimate D2E/DX2                !
 ! A2    A(2,1,22)             120.1928         estimate D2E/DX2                !
 ! A3    A(6,1,22)             120.7844         estimate D2E/DX2                !
 ! A4    A(1,2,3)              118.552          estimate D2E/DX2                !
 ! A5    A(1,2,7)              119.9825         estimate D2E/DX2                !
 ! A6    A(3,2,7)              121.4619         estimate D2E/DX2                !
 ! A7    A(2,3,4)              119.8838         estimate D2E/DX2                !
 ! A8    A(2,3,10)             120.5226         estimate D2E/DX2                !
 ! A9    A(4,3,10)             119.5852         estimate D2E/DX2                !
 ! A10   A(3,4,5)              119.3213         estimate D2E/DX2                !
 ! A11   A(3,4,8)              121.0535         estimate D2E/DX2                !
 ! A12   A(5,4,8)              119.6245         estimate D2E/DX2                !
 ! A13   A(4,5,9)              120.5992         estimate D2E/DX2                !
 ! A14   A(4,5,22)             120.6102         estimate D2E/DX2                !
 ! A15   A(9,5,22)             118.784          estimate D2E/DX2                !
 ! A16   A(11,12,13)           118.4006         estimate D2E/DX2                !
 ! A17   A(11,12,14)           123.0706         estimate D2E/DX2                !
 ! A18   A(13,12,14)           118.5206         estimate D2E/DX2                !
 ! A19   A(12,13,15)           120.9407         estimate D2E/DX2                !
 ! A20   A(12,13,16)           119.575          estimate D2E/DX2                !
 ! A21   A(15,13,16)           119.4723         estimate D2E/DX2                !
 ! A22   A(12,14,17)           120.6579         estimate D2E/DX2                !
 ! A23   A(12,14,18)           118.7132         estimate D2E/DX2                !
 ! A24   A(17,14,18)           120.6243         estimate D2E/DX2                !
 ! A25   A(13,15,19)           119.8836         estimate D2E/DX2                !
 ! A26   A(13,15,20)           119.3838         estimate D2E/DX2                !
 ! A27   A(19,15,20)           120.7287         estimate D2E/DX2                !
 ! A28   A(14,17,19)           121.0381         estimate D2E/DX2                !
 ! A29   A(14,17,21)           120.7938         estimate D2E/DX2                !
 ! A30   A(19,17,21)           118.1675         estimate D2E/DX2                !
 ! A31   A(15,19,17)           118.9474         estimate D2E/DX2                !
 ! A32   A(15,19,23)           120.5263         estimate D2E/DX2                !
 ! A33   A(17,19,23)           120.5263         estimate D2E/DX2                !
 ! A34   A(1,22,5)             121.343          estimate D2E/DX2                !
 ! A35   L(3,10,11,8,-1)       179.4829         estimate D2E/DX2                !
 ! A36   L(10,11,12,16,-1)     180.0109         estimate D2E/DX2                !
 ! A37   L(3,10,11,8,-2)       179.9513         estimate D2E/DX2                !
 ! A38   L(10,11,12,16,-2)     180.0011         estimate D2E/DX2                !
 ! D1    D(6,1,2,3)           -177.9065         estimate D2E/DX2                !
 ! D2    D(6,1,2,7)              1.406          estimate D2E/DX2                !
 ! D3    D(22,1,2,3)             2.3258         estimate D2E/DX2                !
 ! D4    D(22,1,2,7)          -178.3617         estimate D2E/DX2                !
 ! D5    D(2,1,22,5)            -3.1631         estimate D2E/DX2                !
 ! D6    D(6,1,22,5)           177.0733         estimate D2E/DX2                !
 ! D7    D(1,2,3,4)             -1.6333         estimate D2E/DX2                !
 ! D8    D(1,2,3,10)           179.4208         estimate D2E/DX2                !
 ! D9    D(7,2,3,4)            179.0648         estimate D2E/DX2                !
 ! D10   D(7,2,3,10)             0.1189         estimate D2E/DX2                !
 ! D11   D(2,3,4,5)              1.706          estimate D2E/DX2                !
 ! D12   D(2,3,4,8)           -178.6165         estimate D2E/DX2                !
 ! D13   D(10,3,4,5)          -179.3382         estimate D2E/DX2                !
 ! D14   D(10,3,4,8)             0.3393         estimate D2E/DX2                !
 ! D15   D(2,3,12,13)          -23.3907         estimate D2E/DX2                !
 ! D16   D(2,3,12,14)          157.7644         estimate D2E/DX2                !
 ! D17   D(4,3,12,13)          157.6378         estimate D2E/DX2                !
 ! D18   D(4,3,12,14)          -21.207          estimate D2E/DX2                !
 ! D19   D(3,4,5,9)            178.4627         estimate D2E/DX2                !
 ! D20   D(3,4,5,22)            -2.4828         estimate D2E/DX2                !
 ! D21   D(8,4,5,9)             -1.2195         estimate D2E/DX2                !
 ! D22   D(8,4,5,22)           177.8351         estimate D2E/DX2                !
 ! D23   D(4,5,22,1)             3.239          estimate D2E/DX2                !
 ! D24   D(9,5,22,1)          -177.6895         estimate D2E/DX2                !
 ! D25   D(11,12,13,15)       -179.8876         estimate D2E/DX2                !
 ! D26   D(11,12,13,16)          1.379          estimate D2E/DX2                !
 ! D27   D(14,12,13,15)         -0.8961         estimate D2E/DX2                !
 ! D28   D(14,12,13,16)       -179.6295         estimate D2E/DX2                !
 ! D29   D(11,12,14,17)       -179.7164         estimate D2E/DX2                !
 ! D30   D(11,12,14,18)         -0.4938         estimate D2E/DX2                !
 ! D31   D(13,12,14,17)          1.3423         estimate D2E/DX2                !
 ! D32   D(13,12,14,18)       -179.4352         estimate D2E/DX2                !
 ! D33   D(12,13,15,19)          0.1113         estimate D2E/DX2                !
 ! D34   D(12,13,15,20)       -179.1687         estimate D2E/DX2                !
 ! D35   D(16,13,15,19)        178.846          estimate D2E/DX2                !
 ! D36   D(16,13,15,20)         -0.434          estimate D2E/DX2                !
 ! D37   D(12,14,17,19)         -1.0033         estimate D2E/DX2                !
 ! D38   D(12,14,17,21)        179.2717         estimate D2E/DX2                !
 ! D39   D(18,14,17,19)        179.789          estimate D2E/DX2                !
 ! D40   D(18,14,17,21)          0.064          estimate D2E/DX2                !
 ! D41   D(13,15,19,17)          0.2553         estimate D2E/DX2                !
 ! D42   D(13,15,19,23)       -179.7447         estimate D2E/DX2                !
 ! D43   D(20,15,19,17)        179.5255         estimate D2E/DX2                !
 ! D44   D(20,15,19,23)         -0.4745         estimate D2E/DX2                !
 ! D45   D(14,17,19,15)          0.1916         estimate D2E/DX2                !
 ! D46   D(14,17,19,23)       -179.8084         estimate D2E/DX2                !
 ! D47   D(21,17,19,15)        179.9236         estimate D2E/DX2                !
 ! D48   D(21,17,19,23)         -0.0764         estimate D2E/DX2                !
 --------------------------------------------------------------------------------
 Trust Radius=3.00D-01 FncErr=1.00D-07 GrdErr=1.00D-06
 Number of steps in this run=    120 maximum allowed number of steps=    138.
 GradGradGradGradGradGradGradGradGradGradGradGradGradGradGradGradGradGrad

                          Input orientation:                          
 ---------------------------------------------------------------------
 Center     Atomic      Atomic             Coordinates (Angstroms)
 Number     Number       Type             X           Y           Z
 ---------------------------------------------------------------------
      1          6           0       -5.335589   -0.936318    1.217525
      2          6           0       -3.920797   -0.973686    1.206235
      3          6           0       -3.251519   -0.504765    0.078525
      4          6           0       -3.973880   -0.047240   -1.013206
      5          6           0       -5.373174   -0.029984   -0.951425
      6          1           0       -5.856504   -1.263087    2.093083
      7          1           0       -3.383745   -1.349790    2.064984
      8          1           0       -3.477755    0.297580   -1.900122
      9          1           0       -5.942894    0.337063   -1.762161
     10          6           0       -1.707427   -0.512050    0.022778
     11          6           0       -0.506864   -0.512908   -0.030329
     12          6           0        1.031039   -0.513982   -0.098650
     13          6           0        1.753400   -0.510743    1.106204
     14          6           0        1.750972   -0.496164   -1.319365
     15          6           0        3.155942   -0.509173    1.106109
     16          1           0        1.221162   -0.530238    2.047990
     17          6           0        3.129769   -0.503892   -1.322620
     18          1           0        1.203958   -0.489327   -2.238507
     19          6           0        3.858905   -0.508479   -0.117385
     20          1           0        3.680817   -0.520227    2.037987
     21          1           0        3.675349   -0.502159   -2.242952
     22          7           0       -6.014700   -0.496311    0.129817
     23         17           0        5.618786   -0.513267   -0.137254
 ---------------------------------------------------------------------
                    Distance matrix (angstroms):
                    1          2          3          4          5
     1  C    0.000000
     2  C    1.415330   0.000000
     3  C    2.413898   1.392677   0.000000
     4  C    2.760592   2.405627   1.386727   0.000000
     5  C    2.351000   2.766852   2.405750   1.400763   0.000000
     6  H    1.069923   2.148770   3.379267   3.830351   3.320118
     7  H    2.167681   1.080430   2.162769   3.394135   3.846874
     8  H    3.833245   3.385536   2.147087   1.073155   2.144746
     9  H    3.296793   3.823390   3.367536   2.141410   1.056691
    10  C    3.843303   2.551997   1.545116   2.534980   3.823501
    11  C    5.005296   3.660102   2.746825   3.633606   4.976204
    12  C    6.514954   5.141472   4.286232   5.109156   6.478844
    13  C    7.102624   5.693930   5.109342   6.124416   7.433238
    14  C    7.539820   6.227010   5.194140   5.750582   7.148857
    15  C    8.502997   7.092675   6.489338   7.452466   8.786859
    16  H    6.621597   5.229239   4.887159   6.049188   7.261681
    17  C    8.848820   7.505086   6.533304   7.125034   8.524226
    18  H    7.410102   6.193865   5.021967   5.339177   6.717606
    19  C    9.300739   7.905198   7.113124   7.897326   9.282018
    20  H    9.063215   7.660416   7.203958   8.253962   9.547339
    21  H    9.662317   8.355876   7.305529   7.760794   9.152418
    22  N    1.355694   2.402288   2.763669   2.381829   1.340934
    23  Cl  11.045937   9.644719   8.872934   9.643844  11.032662
                    6          7          8          9         10
     6  H    0.000000
     7  H    2.474439   0.000000
     8  H    4.903041   4.294733   0.000000
     9  H    4.175027   4.903239   2.469312   0.000000
    10  C    4.697347   2.771724   2.736258   4.673990   0.000000
    11  C    5.804334   3.656111   3.602667   5.768198   1.201737
    12  C    7.266575   4.987003   4.922719   7.219923   2.741157
    13  C    7.710421   5.292780   6.087393   8.257071   3.626449
    14  C    8.372973   6.208688   5.320422   7.751510   3.709733
    15  C    9.097620   6.662851   7.327633   9.577677   4.982567
    16  H    7.115649   4.677298   6.192955   8.160463   3.560681
    17  C    9.643471   7.390350   6.680961   9.122150   5.020820
    18  H    8.319345   6.348814   4.759429   7.210223   3.686473
    19  C    9.992236   7.610947   7.593053   9.974742   5.568098
    20  H    9.566367   7.113152   8.211130  10.382287   5.752765
    21  H   10.499354   8.313097   7.205831   9.666749   5.840197
    22  N    2.113619   3.375681   3.344698   2.068635   4.308631
    23  Cl  11.714049   9.305654   9.301196  11.706230   7.327961
                   11         12         13         14         15
    11  C    0.000000
    12  C    1.539421   0.000000
    13  C    2.529922   1.404809   0.000000
    14  C    2.599946   1.417310   2.425614   0.000000
    15  C    3.835056   2.442679   1.402543   2.803041   0.000000
    16  H    2.702921   2.155104   1.081952   3.408950   2.151966
    17  C    3.859430   2.429583   2.791707   1.378823   2.428876
    18  H    2.793478   2.146974   3.389607   1.069622   3.872608
    19  C    4.366640   2.827933   2.435226   2.426580   1.411062
    20  H    4.670616   3.403906   2.140852   3.872557   1.069585
    21  H    4.731461   3.404489   3.861451   2.134543   3.389106
    22  N    5.510188   7.049464   7.829234   7.899733   9.222471
    23  Cl   6.126584   4.587910   4.060469   4.044462   2.758908
                   16         17         18         19         20
    16  H    0.000000
    17  C    3.873563   0.000000
    18  H    4.286727   2.132560   0.000000
    19  C    3.412772   1.408634   3.398274   0.000000
    20  H    2.459696   3.405525   4.942083   2.162749   0.000000
    21  H    4.943278   1.069892   2.471428   2.133487   4.280980
    22  N    7.485869   9.259101   7.597238   9.876706   9.881535
    23  Cl   4.910670   2.756880   4.889432   1.760000   2.913322
                   21         22         23
    21  H    0.000000
    22  N    9.976327   0.000000
    23  Cl   2.865491  11.636564   0.000000
 Stoichiometry    C13H8ClN
 Framework group  C1[X(C13H8ClN)]
 Deg. of freedom    63
 Full point group                 C1      NOp   1
 Largest Abelian subgroup         C1      NOp   1
 Largest concise Abelian subgroup C1      NOp   1
                         Standard orientation:                         
 ---------------------------------------------------------------------
 Center     Atomic      Atomic             Coordinates (Angstroms)
 Number     Number       Type             X           Y           Z
 ---------------------------------------------------------------------
      1          6           0       -5.259245   -1.158354   -0.217229
      2          6           0       -3.844613   -1.191764   -0.246506
      3          6           0       -3.145728   -0.012233   -0.001927
      4          6           0       -3.838927    1.166378    0.229072
      5          6           0       -5.239405    1.145954    0.248573
      6          1           0       -5.803204   -2.066835   -0.370543
      7          1           0       -3.330463   -2.121197   -0.444326
      8          1           0       -3.319469    2.090167    0.397709
      9          1           0       -5.787498    2.027406    0.446648
     10          6           0       -1.600683    0.000414   -0.009492
     11          6           0       -0.399122    0.020757   -0.012563
     12          6           0        1.140068    0.047107   -0.016530
     13          6           0        1.829506   -1.152530    0.226438
     14          6           0        1.892791    1.228493   -0.232176
     15          6           0        3.231531   -1.188998    0.237450
     16          1           0        1.271970   -2.065705    0.387329
     17          6           0        3.271181    1.193934   -0.231060
     18          1           0        1.370877    2.145365   -0.408371
     19          6           0        3.967392   -0.007782    0.004352
     20          1           0        3.730975   -2.118598    0.411842
     21          1           0        3.841498    2.082257   -0.405099
     22          7           0       -5.909293    0.011759   -0.002334
     23         17           0        5.727170   -0.035496    0.007691
 ---------------------------------------------------------------------
 Rotational constants (GHZ):      2.8836729      0.1455393      0.1390507
 Standard basis: 6-31G (6D, 7F)
 There are   155 symmetry adapted cartesian basis functions of A   symmetry.
 There are   155 symmetry adapted basis functions of A   symmetry.
   155 basis functions,   386 primitive gaussians,   155 cartesian basis functions
    55 alpha electrons       55 beta electrons
       nuclear repulsion energy       844.2246224739 Hartrees.
 NAtoms=   23 NActive=   23 NUniq=   23 SFac= 1.00D+00 NAtFMM=   60 NAOKFM=F Big=F
 Integral buffers will be    131072 words long.
 Raffenetti 2 integral format.
 Two-electron integral symmetry is turned on.
 Nuclear repulsion after empirical dispersion term =      844.2091387651 Hartrees.
 One-electron integrals computed using PRISM.
 NBasis=   155 RedAO= T EigKep=  1.94D-04  NBF=   155
 NBsUse=   155 1.00D-06 EigRej= -1.00D+00 NBFU=   155
 ExpMin= 1.43D-01 ExpMax= 2.52D+04 ExpMxC= 3.78D+03 IAcc=1 IRadAn=         1 AccDes= 0.00D+00
 Harris functional with IExCor=  402 and IRadAn=       1 diagonalized for initial guess.
 HarFok:  IExCor=  402 AccDes= 0.00D+00 IRadAn=         1 IDoV= 1 UseB2=F ITyADJ=14
 ICtDFT=  3500011 ScaDFX=  1.000000  1.000000  1.000000  1.000000
 FoFCou: FMM=F IPFlag=           0 FMFlag=      100000 FMFlg1=           0
         NFxFlg=           0 DoJE=T BraDBF=F KetDBF=T FulRan=T
         wScrn=  0.000000 ICntrl=     500 IOpCl=  0 I1Cent=   200000004 NGrid=           0
         NMat0=    1 NMatS0=      1 NMatT0=    0 NMatD0=    1 NMtDS0=    0 NMtDT0=    0
 Petite list used in FoFCou.
 Keep R1 ints in memory in canonical form, NReq=75080973.
 Requested convergence on RMS density matrix=1.00D-08 within 128 cycles.
 Requested convergence on MAX density matrix=1.00D-06.
 Requested convergence on             energy=1.00D-06.
 No special actions if energy rises.
 Integral accuracy reduced to 1.0D-05 until final iterations.
 Initial convergence to 1.0D-05 achieved.  Increase integral accuracy.
 SCF Done:  E(RB3LYP) =  -1014.92825593     A.U. after   15 cycles
            NFock= 15  Conv=0.97D-08     -V/T= 2.0040

 **********************************************************************

            Population analysis using the SCF density.

 **********************************************************************

 Orbital symmetries:
       Occupied  (A) (A) (A) (A) (A) (A) (A) (A) (A) (A) (A) (A)
                 (A) (A) (A) (A) (A) (A) (A) (A) (A) (A) (A) (A)
                 (A) (A) (A) (A) (A) (A) (A) (A) (A) (A) (A) (A)
                 (A) (A) (A) (A) (A) (A) (A) (A) (A) (A) (A) (A)
                 (A) (A) (A) (A) (A) (A) (A)
       Virtual   (A) (A) (A) (A) (A) (A) (A) (A) (A) (A) (A) (A)
                 (A) (A) (A) (A) (A) (A) (A) (A) (A) (A) (A) (A)
                 (A) (A) (A) (A) (A) (A) (A) (A) (A) (A) (A) (A)
                 (A) (A) (A) (A) (A) (A) (A) (A) (A) (A) (A) (A)
                 (A) (A) (A) (A) (A) (A) (A) (A) (A) (A) (A) (A)
                 (A) (A) (A) (A) (A) (A) (A) (A) (A) (A) (A) (A)
                 (A) (A) (A) (A) (A) (A) (A) (A) (A) (A) (A) (A)
                 (A) (A) (A) (A) (A) (A) (A) (A) (A) (A) (A) (A)
                 (A) (A) (A) (A)
 The electronic state is 1-A.
 Alpha  occ. eigenvalues -- -101.54048 -14.33873 -10.26880 -10.24821 -10.24411
 Alpha  occ. eigenvalues --  -10.23459 -10.23078 -10.21551 -10.21482 -10.21470
 Alpha  occ. eigenvalues --  -10.21378 -10.21131 -10.21016 -10.20839 -10.20738
 Alpha  occ. eigenvalues --   -9.47434  -7.23807  -7.22683  -7.22649  -0.95878
 Alpha  occ. eigenvalues --   -0.90793  -0.85893  -0.83361  -0.78050  -0.78024
 Alpha  occ. eigenvalues --   -0.77660  -0.74044  -0.64933  -0.64884  -0.63832
 Alpha  occ. eigenvalues --   -0.62215  -0.56421  -0.54311  -0.50165  -0.49109
 Alpha  occ. eigenvalues --   -0.48994  -0.48846  -0.45908  -0.45176  -0.45075
 Alpha  occ. eigenvalues --   -0.43274  -0.41256  -0.40910  -0.39211  -0.39121
 Alpha  occ. eigenvalues --   -0.37864  -0.35836  -0.32997  -0.32318  -0.29647
 Alpha  occ. eigenvalues --   -0.28211  -0.27787  -0.27583  -0.24421  -0.24082
 Alpha virt. eigenvalues --   -0.05776  -0.02479  -0.02216  -0.02000   0.02404
 Alpha virt. eigenvalues --    0.04755   0.08291   0.09217   0.10508   0.12839
 Alpha virt. eigenvalues --    0.13450   0.13675   0.15179   0.15609   0.17447
 Alpha virt. eigenvalues --    0.17759   0.18150   0.18996   0.20517   0.25010
 Alpha virt. eigenvalues --    0.27821   0.28233   0.28906   0.30143   0.30515
 Alpha virt. eigenvalues --    0.32049   0.34378   0.41172   0.41336   0.41720
 Alpha virt. eigenvalues --    0.43846   0.45632   0.46895   0.48333   0.49303
 Alpha virt. eigenvalues --    0.50778   0.53248   0.54038   0.54590   0.55136
 Alpha virt. eigenvalues --    0.55958   0.58029   0.58422   0.58539   0.58643
 Alpha virt. eigenvalues --    0.59025   0.59550   0.59951   0.60082   0.62202
 Alpha virt. eigenvalues --    0.64301   0.64598   0.64820   0.64992   0.65152
 Alpha virt. eigenvalues --    0.66523   0.68680   0.70366   0.72618   0.74196
 Alpha virt. eigenvalues --    0.76312   0.76579   0.78370   0.79440   0.82334
 Alpha virt. eigenvalues --    0.84286   0.84666   0.85224   0.86547   0.88569
 Alpha virt. eigenvalues --    0.89137   0.89298   0.90307   0.93760   0.96135
 Alpha virt. eigenvalues --    0.97443   0.98615   0.98947   1.01298   1.03183
 Alpha virt. eigenvalues --    1.04591   1.11540   1.12879   1.15226   1.15818
 Alpha virt. eigenvalues --    1.17245   1.17826   1.18919   1.21634   1.26322
 Alpha virt. eigenvalues --    1.27764   1.29272   1.38551   1.42146   1.45934
 Alpha virt. eigenvalues --    1.46397   1.49795   1.76552   1.84071   1.88619
          Condensed to atoms (all electrons):
               1          2          3          4          5          6
     1  C    4.900719   0.413099  -0.034731  -0.039930  -0.080048   0.378440
     2  C    0.413099   5.094624   0.510226  -0.067496  -0.038961  -0.066167
     3  C   -0.034731   0.510226   4.810418   0.517412  -0.034458   0.002951
     4  C   -0.039930  -0.067496   0.517412   5.095429   0.408884  -0.000120
     5  C   -0.080048  -0.038961  -0.034458   0.408884   4.897068   0.004378
     6  H    0.378440  -0.066167   0.002951  -0.000120   0.004378   0.575026
     7  H   -0.023656   0.339695  -0.032530   0.005263   0.000223   0.000275
     8  H    0.000236   0.005453  -0.033678   0.339641  -0.023884   0.000023
     9  H    0.004984  -0.000179   0.003005  -0.067545   0.380450  -0.000018
    10  C    0.008803  -0.025033   0.265708  -0.028314   0.009390  -0.000219
    11  C    0.000565   0.000912  -0.116051  -0.000396   0.000638  -0.000006
    12  C    0.000002   0.000005   0.000477  -0.000004   0.000002   0.000000
    13  C    0.000000  -0.000002  -0.000006   0.000001   0.000000   0.000000
    14  C    0.000000   0.000001  -0.000005  -0.000002   0.000000   0.000000
    15  C    0.000000   0.000000   0.000002   0.000000   0.000000   0.000000
    16  H    0.000000   0.000004  -0.000054   0.000000   0.000000   0.000000
    17  C    0.000000   0.000000   0.000001   0.000000   0.000000   0.000000
    18  H    0.000000   0.000000  -0.000039   0.000002   0.000000   0.000000
    19  C    0.000000   0.000000   0.000000   0.000000   0.000000   0.000000
    20  H    0.000000   0.000000   0.000000   0.000000   0.000000   0.000000
    21  H    0.000000   0.000000   0.000000   0.000000   0.000000   0.000000
    22  N    0.443923  -0.068021  -0.034809  -0.070230   0.451520  -0.044844
    23  Cl   0.000000   0.000000   0.000000   0.000000   0.000000   0.000000
               7          8          9         10         11         12
     1  C   -0.023656   0.000236   0.004984   0.008803   0.000565   0.000002
     2  C    0.339695   0.005453  -0.000179  -0.025033   0.000912   0.000005
     3  C   -0.032530  -0.033678   0.003005   0.265708  -0.116051   0.000477
     4  C    0.005263   0.339641  -0.067545  -0.028314  -0.000396  -0.000004
     5  C    0.000223  -0.023884   0.380450   0.009390   0.000638   0.000002
     6  H    0.000275   0.000023  -0.000018  -0.000219  -0.000006   0.000000
     7  H    0.563296  -0.000096   0.000024  -0.006016  -0.001676  -0.000039
     8  H   -0.000096   0.565648   0.000145  -0.006283  -0.001776  -0.000048
     9  H    0.000024   0.000145   0.578762  -0.000222  -0.000006   0.000000
    10  C   -0.006016  -0.006283  -0.000222   5.620740   0.532625  -0.109746
    11  C   -0.001676  -0.001776  -0.000006   0.532625   5.636982   0.262576
    12  C   -0.000039  -0.000048   0.000000  -0.109746   0.262576   4.802128
    13  C    0.000002   0.000000   0.000000  -0.001525  -0.027786   0.514150
    14  C    0.000000   0.000003   0.000000  -0.000433  -0.023050   0.510403
    15  C    0.000000   0.000000   0.000000   0.000489   0.008546  -0.027966
    16  H    0.000004   0.000000   0.000000  -0.002174  -0.005069  -0.033189
    17  C    0.000000   0.000000   0.000000   0.000485   0.009093  -0.020069
    18  H    0.000000   0.000002   0.000000  -0.002226  -0.006732  -0.033032
    19  C    0.000000   0.000000   0.000000   0.000044   0.001099  -0.033500
    20  H    0.000000   0.000000   0.000000  -0.000011  -0.000302   0.003363
    21  H    0.000000   0.000000   0.000000  -0.000009  -0.000270   0.003208
    22  N    0.004749   0.005189  -0.049088   0.001503   0.000063   0.000000
    23  Cl   0.000000   0.000000   0.000000   0.000000   0.000007   0.000566
              13         14         15         16         17         18
     1  C    0.000000   0.000000   0.000000   0.000000   0.000000   0.000000
     2  C   -0.000002   0.000001   0.000000   0.000004   0.000000   0.000000
     3  C   -0.000006  -0.000005   0.000002  -0.000054   0.000001  -0.000039
     4  C    0.000001  -0.000002   0.000000   0.000000   0.000000   0.000002
     5  C    0.000000   0.000000   0.000000   0.000000   0.000000   0.000000
     6  H    0.000000   0.000000   0.000000   0.000000   0.000000   0.000000
     7  H    0.000002   0.000000   0.000000   0.000004   0.000000   0.000000
     8  H    0.000000   0.000003   0.000000   0.000000   0.000000   0.000002
     9  H    0.000000   0.000000   0.000000   0.000000   0.000000   0.000000
    10  C   -0.001525  -0.000433   0.000489  -0.002174   0.000485  -0.002226
    11  C   -0.027786  -0.023050   0.008546  -0.005069   0.009093  -0.006732
    12  C    0.514150   0.510403  -0.027966  -0.033189  -0.020069  -0.033032
    13  C    4.925182  -0.075091   0.487018   0.356955  -0.037989   0.005204
    14  C   -0.075091   4.893987  -0.036857   0.004871   0.493280   0.358389
    15  C    0.487018  -0.036857   5.018518  -0.035561  -0.060204   0.000111
    16  H    0.356955   0.004871  -0.035561   0.560166   0.000114  -0.000169
    17  C   -0.037989   0.493280  -0.060204   0.000114   5.024412  -0.038254
    18  H    0.005204   0.358389   0.000111  -0.000169  -0.038254   0.565284
    19  C   -0.045174  -0.045008   0.467199   0.004969   0.457784   0.005320
    20  H   -0.023824   0.000876   0.353706  -0.004614   0.003640   0.000011
    21  H    0.000854  -0.022309   0.003993   0.000010   0.352901  -0.004755
    22  N    0.000000   0.000000   0.000000   0.000000   0.000000   0.000000
    23  Cl   0.002273   0.002236  -0.066439  -0.000115  -0.067583  -0.000119
              19         20         21         22         23
     1  C    0.000000   0.000000   0.000000   0.443923   0.000000
     2  C    0.000000   0.000000   0.000000  -0.068021   0.000000
     3  C    0.000000   0.000000   0.000000  -0.034809   0.000000
     4  C    0.000000   0.000000   0.000000  -0.070230   0.000000
     5  C    0.000000   0.000000   0.000000   0.451520   0.000000
     6  H    0.000000   0.000000   0.000000  -0.044844   0.000000
     7  H    0.000000   0.000000   0.000000   0.004749   0.000000
     8  H    0.000000   0.000000   0.000000   0.005189   0.000000
     9  H    0.000000   0.000000   0.000000  -0.049088   0.000000
    10  C    0.000044  -0.000011  -0.000009   0.001503   0.000000
    11  C    0.001099  -0.000302  -0.000270   0.000063   0.000007
    12  C   -0.033500   0.003363   0.003208   0.000000   0.000566
    13  C   -0.045174  -0.023824   0.000854   0.000000   0.002273
    14  C   -0.045008   0.000876  -0.022309   0.000000   0.002236
    15  C    0.467199   0.353706   0.003993   0.000000  -0.066439
    16  H    0.004969  -0.004614   0.000010   0.000000  -0.000115
    17  C    0.457784   0.003640   0.352901   0.000000  -0.067583
    18  H    0.005320   0.000011  -0.004755   0.000000  -0.000119
    19  C    5.291417  -0.034421  -0.035849   0.000000   0.219666
    20  H   -0.034421   0.545012  -0.000187   0.000000   0.002010
    21  H   -0.035849  -0.000187   0.544772   0.000000   0.002510
    22  N    0.000000   0.000000   0.000000   6.747191   0.000000
    23  Cl   0.219666   0.002010   0.002510   0.000000  16.778157
 Mulliken charges:
               1
     1  C    0.027593
     2  C   -0.098160
     3  C    0.176162
     4  C   -0.092595
     5  C    0.024800
     6  H    0.150281
     7  H    0.150484
     8  H    0.149425
     9  H    0.149689
    10  C   -0.257576
    11  C   -0.269988
    12  C    0.160712
    13  C   -0.080242
    14  C   -0.061292
    15  C   -0.112554
    16  H    0.153854
    17  C   -0.117611
    18  H    0.151005
    19  C   -0.253545
    20  H    0.154741
    21  H    0.155130
    22  N   -0.387145
    23  Cl   0.126833
 Sum of Mulliken charges =   0.00000
 Mulliken charges with hydrogens summed into heavy atoms:
               1
     1  C    0.177875
     2  C    0.052323
     3  C    0.176162
     4  C    0.056830
     5  C    0.174489
    10  C   -0.257576
    11  C   -0.269988
    12  C    0.160712
    13  C    0.073611
    14  C    0.089713
    15  C    0.042187
    17  C    0.037519
    19  C   -0.253545
    22  N   -0.387145
    23  Cl   0.126833
 Electronic spatial extent (au):  <R**2>=           6942.9692
 Charge=              0.0000 electrons
 Dipole moment (field-independent basis, Debye):
    X=              0.7446    Y=             -0.0165    Z=              0.0093  Tot=              0.7449
 Quadrupole moment (field-independent basis, Debye-Ang):
   XX=           -117.8547   YY=            -78.9862   ZZ=            -95.8598
   XY=              0.4952   XZ=             -0.2879   YZ=              0.0223
 Traceless Quadrupole moment (field-independent basis, Debye-Ang):
   XX=            -20.2878   YY=             18.5807   ZZ=              1.7071
   XY=              0.4952   XZ=             -0.2879   YZ=              0.0223
 Octapole moment (field-independent basis, Debye-Ang**2):
  XXX=            113.5336  YYY=             -0.4907  ZZZ=              0.1031  XYY=             -9.3756
  XXY=             -0.3450  XXZ=              1.1357  XZZ=              6.9591  YZZ=              0.1190
  YYZ=             -0.0504  XYZ=            -12.3204
 Hexadecapole moment (field-independent basis, Debye-Ang**3):
 XXXX=         -10329.0546 YYYY=           -511.3839 ZZZZ=           -119.6461 XXXY=             14.8442
 XXXZ=            -10.9190 YYYX=              1.0973 YYYZ=             -0.3824 ZZZX=             -0.4294
 ZZZY=              0.1675 XXYY=          -1328.9702 XXZZ=          -1516.0352 YYZZ=           -119.6876
 XXYZ=             25.2695 YYXZ=             -0.5317 ZZXY=             -1.1288
 N-N= 8.442091387651D+02 E-N=-4.068917491467D+03  KE= 1.010853838892D+03
 Calling FoFJK, ICntrl=      2127 FMM=F ISym2X=0 I1Cent= 0 IOpClX= 0 NMat=1 NMatS=1 NMatT=0.
 ***** Axes restored to original set *****
 -------------------------------------------------------------------
 Center     Atomic                   Forces (Hartrees/Bohr)
 Number     Number              X              Y              Z
 -------------------------------------------------------------------
      1        6           0.031366823    0.005981133   -0.025699130
      2        6          -0.018143479   -0.000741693    0.011104978
      3        6           0.073592445   -0.005112811   -0.000193320
      4        6          -0.011307740    0.007579202   -0.010888767
      5        6           0.027530751   -0.014419520    0.020821456
      6        1          -0.011749438   -0.002922597    0.003845205
      7        1           0.002523762    0.000216492    0.001361551
      8        1           0.005248590    0.003277830   -0.005186740
      9        1          -0.014118459    0.005345938   -0.014297517
     10        6          -0.093247276   -0.000252830    0.004146532
     11        6           0.094133850   -0.000304841   -0.009647362
     12        6          -0.048735385    0.002527392    0.003604087
     13        6           0.003818202   -0.002142497   -0.001254132
     14        6          -0.019061178   -0.001631234    0.014464470
     15        6          -0.000820560   -0.000535109   -0.015974469
     16        1          -0.000434638    0.000716753    0.001357900
     17        6           0.018305819    0.000769515    0.010666820
     18        1          -0.003993271    0.000030536   -0.009809150
     19        6          -0.043997245    0.000187097    0.007617902
     20        1           0.006678280    0.000333116    0.008029153
     21        1           0.003646219    0.000141885   -0.010158279
     22        7          -0.024134970    0.001072684    0.016465783
     23       17           0.022898898   -0.000116442   -0.000376971
 -------------------------------------------------------------------
 Cartesian Forces:  Max     0.094133850 RMS     0.022529167

 GradGradGradGradGradGradGradGradGradGradGradGradGradGradGradGradGradGrad
 Berny optimization.
 FormGI is forming the generalized inverse of G from B-inverse, IUseBI=4.
 GSVD:  received Info=                   1 from GESDD.
 Internal  Forces:  Max     0.061996696 RMS     0.010509573
 Search for a local minimum.
 Step number   1 out of a maximum of  120
 All quantities printed in internal units (Hartrees-Bohrs-Radians)
 Mixed Optimization -- RFO/linear search
 Second derivative matrix not updated -- first step.
 ITU=  0
     Eigenvalues ---    0.00230   0.00240   0.00244   0.01490   0.01595
     Eigenvalues ---    0.01936   0.01958   0.01993   0.01998   0.02004
     Eigenvalues ---    0.02041   0.02054   0.02064   0.02102   0.02141
     Eigenvalues ---    0.02163   0.02193   0.02217   0.02225   0.02329
     Eigenvalues ---    0.03975   0.04665   0.15996   0.15999   0.15999
     Eigenvalues ---    0.15999   0.15999   0.16000   0.16000   0.16000
     Eigenvalues ---    0.21985   0.21999   0.22859   0.22957   0.23855
     Eigenvalues ---    0.23998   0.24996   0.24996   0.25000   0.28071
     Eigenvalues ---    0.28570   0.29539   0.35760   0.35942   0.36834
     Eigenvalues ---    0.37240   0.37244   0.37278   0.37283   0.38964
     Eigenvalues ---    0.40248   0.40695   0.41266   0.43382   0.44460
     Eigenvalues ---    0.44534   0.44795   0.44890   0.47092   0.48393
     Eigenvalues ---    0.52542   0.55660   1.03955
 RFO step:  Lambda=-3.53806354D-02 EMin= 2.30000000D-03
 Linear search not attempted -- first point.
 Maximum step size (   0.300) exceeded in Quadratic search.
    -- Step size scaled by   0.911
 Iteration  1 RMS(Cart)=  0.07145541 RMS(Int)=  0.00048110
 Iteration  2 RMS(Cart)=  0.00067982 RMS(Int)=  0.00012029
 Iteration  3 RMS(Cart)=  0.00000076 RMS(Int)=  0.00012029
 Variable       Old X    -DE/DX   Delta X   Delta X   Delta X     New X
                                 (Linear)    (Quad)   (Total)
    R1        2.67459  -0.00969   0.00000  -0.02023  -0.02019   2.65439
    R2        2.02186   0.00976   0.00000   0.02179   0.02179   2.04365
    R3        2.56189  -0.00853   0.00000  -0.01507  -0.01501   2.54688
    R4        2.63178   0.00809   0.00000   0.01515   0.01513   2.64690
    R5        2.04172   0.00226   0.00000   0.00522   0.00522   2.04693
    R6        2.62053   0.01235   0.00000   0.02357   0.02351   2.64404
    R7        2.91985  -0.06086   0.00000  -0.17532  -0.17532   2.74452
    R8        2.64706   0.00101   0.00000   0.00311   0.00307   2.65013
    R9        2.02797   0.00777   0.00000   0.01751   0.01751   2.04548
   R10        1.99686   0.02044   0.00000   0.04378   0.04378   2.04064
   R11        2.53400   0.00603   0.00000   0.00863   0.00865   2.54265
   R12        2.27095   0.03247   0.00000   0.02751   0.02751   2.29846
   R13        2.90908  -0.06200   0.00000  -0.17581  -0.17581   2.73328
   R14        2.65470  -0.00003   0.00000  -0.00017  -0.00019   2.65452
   R15        2.67833  -0.00947   0.00000  -0.01780  -0.01782   2.66051
   R16        2.65042  -0.00443   0.00000  -0.00912  -0.00912   2.64131
   R17        2.04459   0.00138   0.00000   0.00320   0.00320   2.04779
   R18        2.60560   0.01114   0.00000   0.01997   0.01997   2.62556
   R19        2.02129   0.01047   0.00000   0.02336   0.02336   2.04465
   R20        2.66652  -0.01245   0.00000  -0.02469  -0.02466   2.64186
   R21        2.02122   0.01027   0.00000   0.02290   0.02290   2.04413
   R22        2.66193  -0.00662   0.00000  -0.01251  -0.01249   2.64944
   R23        2.02180   0.01060   0.00000   0.02366   0.02366   2.04547
   R24        3.32592   0.02290   0.00000   0.06304   0.06304   3.38896
    A1        2.07733   0.00107   0.00000   0.01583   0.01580   2.09314
    A2        2.09776   0.01398   0.00000   0.04343   0.04346   2.14122
    A3        2.10809  -0.01504   0.00000  -0.05923  -0.05926   2.04883
    A4        2.06912  -0.00065   0.00000  -0.00418  -0.00424   2.06488
    A5        2.09409   0.00195   0.00000   0.00970   0.00972   2.10380
    A6        2.11991  -0.00130   0.00000  -0.00544  -0.00542   2.11449
    A7        2.09237  -0.00469   0.00000  -0.01138  -0.01155   2.08082
    A8        2.10352   0.00098   0.00000   0.00137   0.00145   2.10497
    A9        2.08716   0.00372   0.00000   0.01011   0.01019   2.09734
   A10        2.08255  -0.00601   0.00000  -0.01607  -0.01624   2.06631
   A11        2.11278   0.00114   0.00000  -0.00062  -0.00054   2.11224
   A12        2.08784   0.00487   0.00000   0.01671   0.01680   2.10464
   A13        2.10485  -0.00162   0.00000  -0.00209  -0.00208   2.10277
   A14        2.10505   0.01055   0.00000   0.03838   0.03828   2.14333
   A15        2.07317  -0.00892   0.00000  -0.03610  -0.03609   2.03708
   A16        2.06648   0.00496   0.00000   0.01491   0.01492   2.08141
   A17        2.14799  -0.00972   0.00000  -0.03193  -0.03191   2.11607
   A18        2.06857   0.00476   0.00000   0.01713   0.01708   2.08565
   A19        2.11081  -0.00207   0.00000  -0.00834  -0.00837   2.10244
   A20        2.08698   0.00134   0.00000   0.00565   0.00564   2.09262
   A21        2.08518   0.00074   0.00000   0.00287   0.00287   2.08805
   A22        2.10588  -0.00400   0.00000  -0.01031  -0.01034   2.09554
   A23        2.07194   0.00360   0.00000   0.01266   0.01266   2.08460
   A24        2.10529   0.00040   0.00000  -0.00227  -0.00226   2.10303
   A25        2.09236  -0.00148   0.00000  -0.00752  -0.00750   2.08486
   A26        2.08364   0.00264   0.00000   0.01264   0.01263   2.09627
   A27        2.10711  -0.00115   0.00000  -0.00506  -0.00507   2.10204
   A28        2.11251  -0.00549   0.00000  -0.01689  -0.01687   2.09564
   A29        2.10825   0.00068   0.00000  -0.00119  -0.00120   2.10705
   A30        2.06241   0.00482   0.00000   0.01809   0.01808   2.08049
   A31        2.07602   0.00830   0.00000   0.02612   0.02616   2.10218
   A32        2.10358  -0.00395   0.00000  -0.01242  -0.01244   2.09114
   A33        2.10358  -0.00435   0.00000  -0.01370  -0.01372   2.08986
   A34        2.11783  -0.01307   0.00000  -0.04842  -0.04840   2.06943
   A35        3.13257   0.00079   0.00000   0.00906   0.00907   3.14164
   A36        3.14178  -0.00096   0.00000  -0.02378  -0.02381   3.11797
   A37        3.14074  -0.00005   0.00000  -0.00098  -0.00105   3.13969
   A38        3.14161   0.00009   0.00000   0.00090   0.00089   3.14250
    D1       -3.10505  -0.00075   0.00000  -0.01444  -0.01469  -3.11974
    D2        0.02454  -0.00035   0.00000  -0.00680  -0.00686   0.01768
    D3        0.04059  -0.00096   0.00000  -0.01939  -0.01988   0.02071
    D4       -3.11300  -0.00057   0.00000  -0.01175  -0.01206  -3.12506
    D5       -0.05521   0.00198   0.00000   0.02980   0.02950  -0.02571
    D6        3.09051   0.00173   0.00000   0.02457   0.02426   3.11477
    D7       -0.02851   0.00090   0.00000   0.01361   0.01343  -0.01507
    D8        3.13148   0.00042   0.00000   0.00665   0.00669   3.13817
    D9        3.12527   0.00048   0.00000   0.00575   0.00545   3.13072
   D10        0.00208  -0.00001   0.00000  -0.00122  -0.00129   0.00078
   D11        0.02978  -0.00099   0.00000  -0.01481  -0.01461   0.01516
   D12       -3.11745  -0.00073   0.00000  -0.01014  -0.00984  -3.12729
   D13       -3.13004  -0.00053   0.00000  -0.00800  -0.00799  -3.13803
   D14        0.00592  -0.00028   0.00000  -0.00333  -0.00322   0.00270
   D15       -0.40825   0.00065   0.00000   0.01186   0.01173  -0.39651
   D16        2.75351   0.00016   0.00000   0.00409   0.00406   2.75757
   D17        2.75130   0.00002   0.00000   0.00042   0.00044   2.75174
   D18       -0.37013  -0.00046   0.00000  -0.00735  -0.00723  -0.37736
   D19        3.11476   0.00044   0.00000   0.00834   0.00854   3.12331
   D20       -0.04333   0.00121   0.00000   0.02191   0.02240  -0.02093
   D21       -0.02128   0.00019   0.00000   0.00380   0.00385  -0.01743
   D22        3.10381   0.00096   0.00000   0.01736   0.01771   3.12152
   D23        0.05653  -0.00207   0.00000  -0.03094  -0.03070   0.02583
   D24       -3.10127  -0.00125   0.00000  -0.01732  -0.01705  -3.11832
   D25       -3.13963   0.00014   0.00000   0.00086   0.00075  -3.13888
   D26        0.02407  -0.00043   0.00000  -0.00839  -0.00849   0.01558
   D27       -0.01564   0.00037   0.00000   0.00713   0.00719  -0.00845
   D28       -3.13513  -0.00020   0.00000  -0.00212  -0.00206  -3.13718
   D29       -3.13664  -0.00021   0.00000  -0.00347  -0.00354  -3.14018
   D30       -0.00862   0.00017   0.00000   0.00293   0.00289  -0.00573
   D31        0.02343  -0.00062   0.00000  -0.01059  -0.01062   0.01281
   D32       -3.13173  -0.00024   0.00000  -0.00419  -0.00419  -3.13593
   D33        0.00194  -0.00006   0.00000  -0.00091  -0.00089   0.00105
   D34       -3.12708  -0.00042   0.00000  -0.00691  -0.00692  -3.13400
   D35        3.12145   0.00052   0.00000   0.00837   0.00836   3.12982
   D36       -0.00757   0.00015   0.00000   0.00237   0.00233  -0.00524
   D37       -0.01751   0.00050   0.00000   0.00780   0.00775  -0.00976
   D38        3.12888   0.00036   0.00000   0.00567   0.00565   3.13453
   D39        3.13791   0.00009   0.00000   0.00117   0.00114   3.13905
   D40        0.00112  -0.00005   0.00000  -0.00096  -0.00096   0.00015
   D41        0.00446  -0.00015   0.00000  -0.00239  -0.00237   0.00209
   D42       -3.13714  -0.00014   0.00000  -0.00212  -0.00211  -3.13925
   D43        3.13331   0.00024   0.00000   0.00383   0.00381   3.13712
   D44       -0.00828   0.00025   0.00000   0.00409   0.00407  -0.00421
   D45        0.00334  -0.00007   0.00000  -0.00105  -0.00106   0.00228
   D46       -3.13825  -0.00008   0.00000  -0.00131  -0.00132  -3.13956
   D47        3.14026   0.00006   0.00000   0.00098   0.00096   3.14122
   D48       -0.00133   0.00004   0.00000   0.00071   0.00070  -0.00063
         Item               Value     Threshold  Converged?
 Maximum Force            0.061997     0.000450     NO 
 RMS     Force            0.010510     0.000300     NO 
 Maximum Displacement     0.222320     0.001800     NO 
 RMS     Displacement     0.071625     0.001200     NO 
 Predicted change in Energy=-1.924268D-02
 GradGradGradGradGradGradGradGradGradGradGradGradGradGradGradGradGradGrad

                          Input orientation:                          
 ---------------------------------------------------------------------
 Center     Atomic      Atomic             Coordinates (Angstroms)
 Number     Number       Type             X           Y           Z
 ---------------------------------------------------------------------
      1          6           0       -5.220039   -0.932838    1.208291
      2          6           0       -3.815819   -0.964956    1.195672
      3          6           0       -3.150975   -0.498976    0.054289
      4          6           0       -3.901443   -0.038169   -1.032966
      5          6           0       -5.299912   -0.044252   -0.928371
      6          1           0       -5.759531   -1.267267    2.083878
      7          1           0       -3.266098   -1.337973    2.051223
      8          1           0       -3.418077    0.315988   -1.934392
      9          1           0       -5.911519    0.319661   -1.740530
     10          6           0       -1.700104   -0.505513   -0.010668
     11          6           0       -0.485002   -0.509303   -0.064321
     12          6           0        0.961077   -0.513007   -0.093973
     13          6           0        1.672546   -0.516070    1.117230
     14          6           0        1.666489   -0.499910   -1.312314
     15          6           0        3.070264   -0.516409    1.117977
     16          1           0        1.136178   -0.530272    2.058717
     17          6           0        3.055866   -0.505518   -1.312290
     18          1           0        1.117470   -0.492222   -2.244628
     19          6           0        3.758345   -0.512388   -0.098970
     20          1           0        3.612367   -0.525876    2.053991
     21          1           0        3.608928   -0.502147   -2.242737
     22          7           0       -5.947429   -0.495296    0.161439
     23         17           0        5.551671   -0.516434   -0.109283
 ---------------------------------------------------------------------
                    Distance matrix (angstroms):
                    1          2          3          4          5
     1  C    0.000000
     2  C    1.404644   0.000000
     3  C    2.408523   1.400681   0.000000
     4  C    2.749975   2.415179   1.399167   0.000000
     5  C    2.315446   2.749870   2.406309   1.402388   0.000000
     6  H    1.081455   2.158314   3.393238   3.831173   3.283391
     7  H    2.166230   1.083191   2.169081   3.406666   3.832504
     8  H    3.831852   3.405336   2.165724   1.082422   2.164060
     9  H    3.277567   3.829292   3.392955   2.160809   1.079860
    10  C    3.749455   2.478426   1.452339   2.471719   3.743469
    11  C    4.921332   3.590201   2.668631   3.582222   4.913880
    12  C    6.330746   4.968519   4.114748   4.975066   6.333714
    13  C    6.905774   5.507250   4.939280   5.993420   7.281639
    14  C    7.346097   6.046648   5.007551   5.594024   6.991837
    15  C    8.301247   6.901114   6.311541   7.311632   8.629619
    16  H    6.425479   5.045401   4.732694   5.931130   7.112114
    17  C    8.661786   7.329462   6.355506   6.978580   8.377302
    18  H    7.230547   6.032949   4.848163   5.183027   6.566278
    19  C    9.082791   7.697329   6.911033   7.731079   9.108188
    20  H    8.882129   7.490491   7.052824   8.137844   9.410375
    21  H    9.489244   8.195347   7.139512   7.621318   9.016910
    22  N    1.347753   2.415363   2.798508   2.412805   1.345512
    23  Cl  10.859979   9.468577   8.704201   9.510168  10.892691
                    6          7          8          9         10
     6  H    0.000000
     7  H    2.494649   0.000000
     8  H    4.912799   4.317847   0.000000
     9  H    4.143373   4.911557   2.500969   0.000000
    10  C    4.631019   2.719691   2.706845   4.627024   0.000000
    11  C    5.745427   3.591200   3.575081   5.739682   1.216292
    12  C    7.104824   4.811594   4.821967   7.115972   2.662495
    13  C    7.532229   5.092943   5.993259   8.147593   3.556267
    14  C    8.201751   6.028776   5.187050   7.634217   3.609468
    15  C    8.914148   6.457197   7.218616   9.462690   4.902078
    16  H    6.935027   4.475765   6.115743   8.051503   3.511049
    17  C    9.477629   7.209260   6.555442   9.015448   4.930869
    18  H    8.162708   6.195586   4.617428   7.093655   3.595758
    19  C    9.794112   7.392410   7.453591   9.843439   5.459168
    20  H    9.401225   6.926239   8.126689  10.286774   5.699612
    21  H   10.347610   8.148784   7.081188   9.569038   5.759164
    22  N    2.080148   3.386875   3.383535   2.069525   4.250823
    23  Cl  11.546298   9.115688   9.191319  11.608822   7.252454
                   11         12         13         14         15
    11  C    0.000000
    12  C    1.446387   0.000000
    13  C    2.459902   1.404710   0.000000
    14  C    2.487264   1.407881   2.429605   0.000000
    15  C    3.746704   2.432592   1.397719   2.806629   0.000000
    16  H    2.671320   2.159869   1.083646   3.412623   2.150784
    17  C    3.754355   2.423323   2.795757   1.389388   2.430334
    18  H    2.705909   2.156433   3.407457   1.081985   3.888586
    19  C    4.243489   2.797273   2.414480   2.418309   1.398010
    20  H    4.612585   3.412221   2.154187   3.888331   1.081706
    21  H    4.637435   3.410047   3.878034   2.153779   3.403639
    22  N    5.467109   6.913248   7.679712   7.755238   9.068307
    23  Cl   6.036844   4.590621   4.068409   4.067210   2.768312
                   16         17         18         19         20
    16  H    0.000000
    17  C    3.879369   0.000000
    18  H    4.303554   2.151002   0.000000
    19  C    3.395834   1.402024   3.402716   0.000000
    20  H    2.476197   3.412031   4.970288   2.157947   0.000000
    21  H    4.961632   1.082414   2.491479   2.148992   4.296795
    22  N    7.333374   9.123119   7.463374   9.709282   9.745377
    23  Cl   4.919044   2.770630   4.921628   1.793360   2.905296
                   21         22         23
    21  H    0.000000
    22  N    9.854140   0.000000
    23  Cl   2.885495  11.502306   0.000000
 Stoichiometry    C13H8ClN
 Framework group  C1[X(C13H8ClN)]
 Deg. of freedom    63
 Full point group                 C1      NOp   1
 Largest Abelian subgroup         C1      NOp   1
 Largest concise Abelian subgroup C1      NOp   1
                         Standard orientation:                         
 ---------------------------------------------------------------------
 Center     Atomic      Atomic             Coordinates (Angstroms)
 Number     Number       Type             X           Y           Z
 ---------------------------------------------------------------------
      1          6           0       -5.134548   -1.159799   -0.218599
      2          6           0       -3.730379   -1.187277   -0.242631
      3          6           0       -3.038427    0.006480   -0.001682
      4          6           0       -3.762681    1.180049    0.234669
      5          6           0       -5.163301    1.109783    0.239065
      6          1           0       -5.694879   -2.070397   -0.381045
      7          1           0       -3.201249   -2.111786   -0.439116
      8          1           0       -3.257862    2.121153    0.411073
      9          1           0       -5.755355    1.991455    0.434580
     10          6           0       -1.586378    0.034170   -0.010416
     11          6           0       -0.370312    0.056952   -0.015934
     12          6           0        1.076061    0.050680   -0.015090
     13          6           0        1.757196   -1.154875    0.221350
     14          6           0        1.811520    1.231239   -0.233057
     15          6           0        3.154460   -1.189153    0.231037
     16          1           0        1.197616   -2.068167    0.385844
     17          6           0        3.200476    1.196851   -0.228739
     18          1           0        1.285839    2.160271   -0.409836
     19          6           0        3.872580   -0.011302    0.004313
     20          1           0        3.673139   -2.121992    0.406737
     21          1           0        3.776496    2.096817   -0.401605
     22          7           0       -5.836682   -0.030915    0.002910
     23         17           0        5.665613   -0.044926    0.011018
 ---------------------------------------------------------------------
 Rotational constants (GHZ):      2.8895904      0.1507808      0.1438330
 Standard basis: 6-31G (6D, 7F)
 There are   155 symmetry adapted cartesian basis functions of A   symmetry.
 There are   155 symmetry adapted basis functions of A   symmetry.
   155 basis functions,   386 primitive gaussians,   155 cartesian basis functions
    55 alpha electrons       55 beta electrons
       nuclear repulsion energy       851.5448900597 Hartrees.
 NAtoms=   23 NActive=   23 NUniq=   23 SFac= 1.00D+00 NAtFMM=   60 NAOKFM=F Big=F
 Integral buffers will be    131072 words long.
 Raffenetti 2 integral format.
 Two-electron integral symmetry is turned on.
 Nuclear repulsion after empirical dispersion term =      851.5291361653 Hartrees.
 One-electron integrals computed using PRISM.
 NBasis=   155 RedAO= T EigKep=  1.53D-04  NBF=   155
 NBsUse=   155 1.00D-06 EigRej= -1.00D+00 NBFU=   155
 Initial guess from the checkpoint file:  "D:\User Dont delete\Downloads\molecule_33.chk"
 B after Tr=     0.000000    0.000000    0.000000
         Rot=    1.000000   -0.000735    0.000096   -0.000543 Ang=  -0.11 deg.
 ExpMin= 1.43D-01 ExpMax= 2.52D+04 ExpMxC= 3.78D+03 IAcc=1 IRadAn=         1 AccDes= 0.00D+00
 Harris functional with IExCor=  402 and IRadAn=       1 diagonalized for initial guess.
 HarFok:  IExCor=  402 AccDes= 0.00D+00 IRadAn=         1 IDoV= 1 UseB2=F ITyADJ=14
 ICtDFT=  3500011 ScaDFX=  1.000000  1.000000  1.000000  1.000000
 FoFCou: FMM=F IPFlag=           0 FMFlag=      100000 FMFlg1=           0
         NFxFlg=           0 DoJE=T BraDBF=F KetDBF=T FulRan=T
         wScrn=  0.000000 ICntrl=     500 IOpCl=  0 I1Cent=   200000004 NGrid=           0
         NMat0=    1 NMatS0=      1 NMatT0=    0 NMatD0=    1 NMtDS0=    0 NMtDT0=    0
 Petite list used in FoFCou.
 Keep R1 ints in memory in canonical form, NReq=75080973.
 Requested convergence on RMS density matrix=1.00D-08 within 128 cycles.
 Requested convergence on MAX density matrix=1.00D-06.
 Requested convergence on             energy=1.00D-06.
 No special actions if energy rises.
 Integral accuracy reduced to 1.0D-05 until final iterations.
 Initial convergence to 1.0D-05 achieved.  Increase integral accuracy.
 SCF Done:  E(RB3LYP) =  -1014.94909741     A.U. after   14 cycles
            NFock= 14  Conv=0.27D-08     -V/T= 2.0039
 Calling FoFJK, ICntrl=      2127 FMM=F ISym2X=0 I1Cent= 0 IOpClX= 0 NMat=1 NMatS=1 NMatT=0.
 ***** Axes restored to original set *****
 -------------------------------------------------------------------
 Center     Atomic                   Forces (Hartrees/Bohr)
 Number     Number              X              Y              Z
 -------------------------------------------------------------------
      1        6           0.013219128   -0.001461618   -0.000811191
      2        6          -0.013104588    0.000008268    0.005048795
      3        6           0.031449203   -0.002386796   -0.001886503
      4        6          -0.012989084    0.002927138   -0.003905345
      5        6           0.011292095   -0.001457842   -0.001828650
      6        1          -0.003144742   -0.001146326    0.000410389
      7        1           0.000808923    0.000577756   -0.000183625
      8        1           0.000934725    0.000739086    0.000065898
      9        1          -0.002647728    0.000267289   -0.002466417
     10        6          -0.021071201   -0.000140542    0.001305502
     11        6           0.018025945   -0.000261268   -0.001819924
     12        6          -0.020462597    0.001498083    0.001394383
     13        6           0.006327401   -0.001473230    0.001981365
     14        6          -0.001908008   -0.000649990    0.001785528
     15        6           0.001182792   -0.000288756   -0.000628041
     16        1          -0.000466637    0.000461006   -0.000163513
     17        6           0.010059127    0.000446246    0.000123150
     18        1          -0.000002887   -0.000032929   -0.001422978
     19        6          -0.019434461    0.000065243   -0.000316240
     20        1           0.001356651    0.000223221    0.000663299
     21        1          -0.000151130    0.000064567   -0.001253580
     22        7          -0.009428612    0.002073197    0.004064440
     23       17           0.010155684   -0.000051802   -0.000156743
 -------------------------------------------------------------------
 Cartesian Forces:  Max     0.031449203 RMS     0.007299261

 GradGradGradGradGradGradGradGradGradGradGradGradGradGradGradGradGradGrad
 Berny optimization.
 Using GEDIIS/GDIIS optimizer.
 FormGI is forming the generalized inverse of G from B-inverse, IUseBI=4.
 GSVD:  received Info=                   1 from GESDD.
 Internal  Forces:  Max     0.016438672 RMS     0.003083822
 Search for a local minimum.
 Step number   2 out of a maximum of  120
 All quantities printed in internal units (Hartrees-Bohrs-Radians)
 Mixed Optimization -- RFO/linear search
 Update second derivatives using D2CorX and points    1    2
 DE= -2.08D-02 DEPred=-1.92D-02 R= 1.08D+00
 TightC=F SS=  1.41D+00  RLast= 3.09D-01 DXNew= 5.0454D-01 9.2823D-01
 Trust test= 1.08D+00 RLast= 3.09D-01 DXMaxT set to 5.05D-01
 ITU=  1  0
 Use linear search instead of GDIIS.
     Eigenvalues ---    0.00230   0.00240   0.00245   0.01496   0.01589
     Eigenvalues ---    0.01936   0.01958   0.01988   0.01999   0.02002
     Eigenvalues ---    0.02041   0.02048   0.02061   0.02100   0.02139
     Eigenvalues ---    0.02161   0.02192   0.02215   0.02226   0.02327
     Eigenvalues ---    0.03954   0.04670   0.15877   0.15999   0.16000
     Eigenvalues ---    0.16000   0.16000   0.16000   0.16000   0.16028
     Eigenvalues ---    0.21482   0.21997   0.22116   0.23085   0.23535
     Eigenvalues ---    0.24138   0.24874   0.25000   0.25000   0.26749
     Eigenvalues ---    0.28547   0.29890   0.35761   0.35947   0.36862
     Eigenvalues ---    0.37206   0.37257   0.37280   0.37382   0.38872
     Eigenvalues ---    0.40386   0.40654   0.41434   0.43464   0.44401
     Eigenvalues ---    0.44725   0.44865   0.45150   0.47063   0.48303
     Eigenvalues ---    0.53175   0.55557   1.04071
 RFO step:  Lambda=-2.57381178D-03 EMin= 2.29976616D-03
 Quartic linear search produced a step of  0.27011.
 Iteration  1 RMS(Cart)=  0.18799850 RMS(Int)=  0.02593146
 Iteration  2 RMS(Cart)=  0.18834494 RMS(Int)=  0.00839604
 Iteration  3 RMS(Cart)=  0.06213346 RMS(Int)=  0.00065934
 Iteration  4 RMS(Cart)=  0.00142635 RMS(Int)=  0.00040467
 Iteration  5 RMS(Cart)=  0.00000030 RMS(Int)=  0.00040467
 Variable       Old X    -DE/DX   Delta X   Delta X   Delta X     New X
                                 (Linear)    (Quad)   (Total)
    R1        2.65439  -0.00544  -0.00545  -0.01083  -0.01627   2.63812
    R2        2.04365   0.00226   0.00589   0.00165   0.00754   2.05119
    R3        2.54688   0.00291  -0.00405   0.01032   0.00625   2.55313
    R4        2.64690   0.00717   0.00409   0.01552   0.01963   2.66654
    R5        2.04693   0.00007   0.00141  -0.00121   0.00020   2.04713
    R6        2.64404   0.00864   0.00635   0.01706   0.02343   2.66747
    R7        2.74452  -0.01644  -0.04736  -0.02159  -0.06897   2.67556
    R8        2.65013  -0.00389   0.00083  -0.01134  -0.01053   2.63960
    R9        2.04548   0.00060   0.00473  -0.00276   0.00197   2.04745
   R10        2.04064   0.00344   0.01183  -0.00075   0.01108   2.05172
   R11        2.54265   0.00530   0.00234   0.00949   0.01179   2.55444
   R12        2.29846   0.00467   0.00743  -0.00066   0.00675   2.30521
   R13        2.73328  -0.01338  -0.04749  -0.00698  -0.05443   2.67885
   R14        2.65452   0.00478  -0.00005   0.01401   0.01395   2.66846
   R15        2.66051   0.00275  -0.00481   0.01359   0.00876   2.66927
   R16        2.64131  -0.00082  -0.00246  -0.00013  -0.00259   2.63872
   R17        2.04779   0.00008   0.00087  -0.00060   0.00027   2.04806
   R18        2.62556   0.00399   0.00539   0.00528   0.01067   2.63623
   R19        2.04465   0.00123   0.00631  -0.00227   0.00404   2.04870
   R20        2.64186  -0.00229  -0.00666  -0.00082  -0.00747   2.63439
   R21        2.04413   0.00125   0.00619  -0.00206   0.00413   2.04825
   R22        2.64944  -0.00401  -0.00337  -0.00865  -0.01200   2.63744
   R23        2.04547   0.00100   0.00639  -0.00312   0.00328   2.04874
   R24        3.38896   0.01016   0.01703   0.02484   0.04187   3.43083
    A1        2.09314   0.00099   0.00427   0.00490   0.00918   2.10232
    A2        2.14122   0.00272   0.01174  -0.00046   0.01126   2.15248
    A3        2.04883  -0.00371  -0.01601  -0.00444  -0.02044   2.02839
    A4        2.06488   0.00204  -0.00114   0.01211   0.01100   2.07588
    A5        2.10380  -0.00011   0.00262  -0.00173   0.00087   2.10468
    A6        2.11449  -0.00193  -0.00146  -0.01038  -0.01186   2.10263
    A7        2.08082  -0.00497  -0.00312  -0.02091  -0.02416   2.05666
    A8        2.10497   0.00160   0.00039   0.00740   0.00782   2.11279
    A9        2.09734   0.00337   0.00275   0.01365   0.01639   2.11374
   A10        2.06631   0.00139  -0.00439   0.01397   0.00957   2.07588
   A11        2.11224  -0.00143  -0.00015  -0.00960  -0.00974   2.10250
   A12        2.10464   0.00005   0.00454  -0.00437   0.00017   2.10481
   A13        2.10277  -0.00006  -0.00056   0.00151   0.00097   2.10374
   A14        2.14333   0.00180   0.01034  -0.00233   0.00794   2.15127
   A15        2.03708  -0.00174  -0.00975   0.00081  -0.00892   2.02817
   A16        2.08141   0.00432   0.00403   0.01598   0.02002   2.10143
   A17        2.11607  -0.00168  -0.00862   0.00024  -0.00838   2.10769
   A18        2.08565  -0.00264   0.00461  -0.01615  -0.01159   2.07406
   A19        2.10244   0.00040  -0.00226   0.00566   0.00337   2.10581
   A20        2.09262  -0.00070   0.00152  -0.00719  -0.00568   2.08694
   A21        2.08805   0.00030   0.00077   0.00161   0.00237   2.09043
   A22        2.09554   0.00129  -0.00279   0.01281   0.00999   2.10553
   A23        2.08460   0.00009   0.00342  -0.00338   0.00005   2.08465
   A24        2.10303  -0.00138  -0.00061  -0.00942  -0.01002   2.09300
   A25        2.08486  -0.00070  -0.00203  -0.00349  -0.00550   2.07936
   A26        2.09627   0.00121   0.00341   0.00525   0.00864   2.10491
   A27        2.10204  -0.00051  -0.00137  -0.00174  -0.00312   2.09892
   A28        2.09564  -0.00285  -0.00456  -0.01120  -0.01575   2.07989
   A29        2.10705   0.00063  -0.00032   0.00296   0.00263   2.10968
   A30        2.08049   0.00221   0.00488   0.00825   0.01312   2.09361
   A31        2.10218   0.00450   0.00707   0.01243   0.01953   2.12171
   A32        2.09114  -0.00208  -0.00336  -0.00557  -0.00894   2.08219
   A33        2.08986  -0.00242  -0.00370  -0.00686  -0.01058   2.07928
   A34        2.06943  -0.00295  -0.01307  -0.00211  -0.01528   2.05415
   A35        3.14164  -0.00039   0.00245  -0.01626  -0.01397   3.12766
   A36        3.11797   0.00130  -0.00643   0.45268   0.44668   3.56465
   A37        3.13969   0.00013  -0.00028   0.00305   0.00433   3.14403
   A38        3.14250   0.00004   0.00024   0.00562   0.00567   3.14816
    D1       -3.11974  -0.00058  -0.00397  -0.01388  -0.01787  -3.13761
    D2        0.01768  -0.00035  -0.00185  -0.01138  -0.01322   0.00446
    D3        0.02071  -0.00061  -0.00537  -0.00886  -0.01424   0.00647
    D4       -3.12506  -0.00039  -0.00326  -0.00636  -0.00959  -3.13465
    D5       -0.02571   0.00087   0.00797   0.00731   0.01526  -0.01045
    D6        3.11477   0.00084   0.00655   0.01221   0.01876   3.13352
    D7       -0.01507   0.00049   0.00363   0.00947   0.01231  -0.00276
    D8        3.13817   0.00008   0.00181  -0.00479  -0.00219   3.13599
    D9        3.13072   0.00026   0.00147   0.00694   0.00764   3.13836
   D10        0.00078  -0.00015  -0.00035  -0.00733  -0.00686  -0.00608
   D11        0.01516  -0.00051  -0.00395  -0.00853  -0.01170   0.00346
   D12       -3.12729  -0.00040  -0.00266  -0.00902  -0.01092  -3.13821
   D13       -3.13803  -0.00011  -0.00216   0.00563   0.00275  -3.13528
   D14        0.00270  -0.00001  -0.00087   0.00514   0.00353   0.00623
   D15       -0.39651   0.00037   0.00317   0.01515   0.02019  -0.37633
   D16        2.75757   0.00016   0.00110   0.01273   0.01466   2.77223
   D17        2.75174   0.00026   0.00012   0.07172   0.07076   2.82250
   D18       -0.37736   0.00005  -0.00195   0.06931   0.06523  -0.31213
   D19        3.12331   0.00042   0.00231   0.01198   0.01428   3.13758
   D20       -0.02093   0.00066   0.00605   0.00690   0.01297  -0.00797
   D21       -0.01743   0.00032   0.00104   0.01248   0.01350  -0.00393
   D22        3.12152   0.00056   0.00478   0.00739   0.01219   3.13371
   D23        0.02583  -0.00090  -0.00829  -0.00632  -0.01461   0.01122
   D24       -3.11832  -0.00067  -0.00460  -0.01123  -0.01586  -3.13417
   D25       -3.13888   0.00000   0.00020  -0.00210  -0.00174  -3.14061
   D26        0.01558  -0.00034  -0.00229  -0.00892  -0.01101   0.00457
   D27       -0.00845   0.00026   0.00194   0.00536   0.00706  -0.00140
   D28       -3.13718  -0.00008  -0.00056  -0.00146  -0.00221  -3.13940
   D29       -3.14018  -0.00006  -0.00096   0.00171   0.00039  -3.13980
   D30       -0.00573   0.00013   0.00078   0.00372   0.00415  -0.00158
   D31        0.01281  -0.00036  -0.00287  -0.00600  -0.00863   0.00418
   D32       -3.13593  -0.00018  -0.00113  -0.00399  -0.00487  -3.14079
   D33        0.00105  -0.00004  -0.00024  -0.00210  -0.00228  -0.00123
   D34       -3.13400  -0.00024  -0.00187  -0.00446  -0.00630  -3.14030
   D35        3.12982   0.00030   0.00226   0.00464   0.00695   3.13676
   D36       -0.00524   0.00010   0.00063   0.00228   0.00293  -0.00231
   D37       -0.00976   0.00024   0.00209   0.00350   0.00549  -0.00427
   D38        3.13453   0.00017   0.00153   0.00230   0.00377   3.13830
   D39        3.13905   0.00005   0.00031   0.00144   0.00167   3.14072
   D40        0.00015  -0.00002  -0.00026   0.00024  -0.00005   0.00011
   D41        0.00209  -0.00006  -0.00064  -0.00035  -0.00093   0.00116
   D42       -3.13925  -0.00006  -0.00057  -0.00033  -0.00088  -3.14013
   D43        3.13712   0.00014   0.00103   0.00204   0.00312   3.14024
   D44       -0.00421   0.00014   0.00110   0.00206   0.00316  -0.00105
   D45        0.00228  -0.00005  -0.00029  -0.00040  -0.00071   0.00158
   D46       -3.13956  -0.00004  -0.00036  -0.00042  -0.00075  -3.14031
   D47        3.14122   0.00002   0.00026   0.00079   0.00098  -3.14098
   D48       -0.00063   0.00003   0.00019   0.00076   0.00094   0.00031
         Item               Value     Threshold  Converged?
 Maximum Force            0.016439     0.000450     NO 
 RMS     Force            0.003084     0.000300     NO 
 Maximum Displacement     1.430772     0.001800     NO 
 RMS     Displacement     0.428469     0.001200     NO 
 Predicted change in Energy=-2.858164D-03
 GradGradGradGradGradGradGradGradGradGradGradGradGradGradGradGradGradGrad

                          Input orientation:                          
 ---------------------------------------------------------------------
 Center     Atomic      Atomic             Coordinates (Angstroms)
 Number     Number       Type             X           Y           Z
 ---------------------------------------------------------------------
      1          6           0       -5.341169   -0.916449    0.927057
      2          6           0       -3.976774   -0.948654    1.220822
      3          6           0       -3.056752   -0.523098    0.239201
      4          6           0       -3.570783   -0.086476   -1.000821
      5          6           0       -4.953535   -0.090684   -1.198500
      6          1           0       -6.070531   -1.234664    1.665270
      7          1           0       -3.628813   -1.295047    2.186464
      8          1           0       -2.902470    0.246445   -1.785944
      9          1           0       -5.377078    0.243244   -2.140782
     10          6           0       -1.663631   -0.530715    0.491722
     11          6           0       -0.460457   -0.533478    0.692811
     12          6           0        0.910378   -0.515002    0.332230
     13          6           0        1.911538   -0.535676    1.327846
     14          6           0        1.299950   -0.472764   -1.024847
     15          6           0        3.263376   -0.516454    0.978621
     16          1           0        1.626091   -0.570153    2.372798
     17          6           0        2.649753   -0.456821   -1.376835
     18          1           0        0.539444   -0.455840   -1.797291
     19          6           0        3.615676   -0.477951   -0.369639
     20          1           0        4.031163   -0.533551    1.743491
     21          1           0        2.953097   -0.427484   -2.417267
     22          7           0       -5.835261   -0.502726   -0.260406
     23         17           0        5.372037   -0.455149   -0.828738
 ---------------------------------------------------------------------
                    Distance matrix (angstroms):
                    1          2          3          4          5
     1  C    0.000000
     2  C    1.396033   0.000000
     3  C    2.417940   1.411071   0.000000
     4  C    2.745876   2.417412   1.411567   0.000000
     5  C    2.313037   2.746506   2.419040   1.396817   0.000000
     6  H    1.085444   2.159434   3.409233   3.830812   3.279870
     7  H    2.159075   1.083295   2.171404   3.409222   3.829276
     8  H    3.828832   3.409258   2.171914   1.083465   2.160004
     9  H    3.279911   3.831691   3.411086   2.161233   1.085722
    10  C    3.723250   2.461075   1.415843   2.462166   3.724775
    11  C    4.901315   3.579895   2.635643   3.569640   4.894984
    12  C    6.292601   4.986172   3.968229   4.694834   6.075250
    13  C    7.273746   5.903747   5.086179   5.973300   7.328688
    14  C    6.936228   5.754418   4.536651   4.886086   6.267553
    15  C    8.613992   7.257082   6.363238   7.128029   8.511097
    16  H    7.124100   5.732575   5.146210   6.214721   7.501703
    17  C    8.329106   7.134465   5.931287   6.242885   7.614188
    18  H    6.497372   5.454182   4.133334   4.202947   5.537573
    19  C    9.060837   7.771514   6.700300   7.224738   8.617910
    20  H    9.415614   8.035705   7.245795   8.094487   9.464473
    21  H    8.956475   7.844133   6.571472   6.684580   8.007100
    22  N    1.351060   2.418028   2.823142   2.418540   1.351754
    23  Cl  10.865928   9.583554   8.496446   8.952070  10.338617
                    6          7          8          9         10
     6  H    0.000000
     7  H    2.497454   0.000000
     8  H    4.913367   4.322476   0.000000
     9  H    4.141391   4.914044   2.499920   0.000000
    10  C    4.614491   2.705234   2.706744   4.617226   0.000000
    11  C    5.736747   3.584615   3.565941   5.727626   1.219865
    12  C    7.143389   4.964969   4.427672   6.798737   2.578994
    13  C    8.019718   5.657682   5.786370   8.109378   3.671643
    14  C    7.882970   5.939813   4.330920   6.807399   3.329588
    15  C    9.386647   7.040410   6.800183   9.217660   4.951027
    16  H    7.757588   5.307939   6.202406   8.371284   3.789759
    17  C    9.268376   7.267745   5.611518   8.093436   4.701303
    18  H    7.502511   5.826572   3.512848   5.967573   3.177850
    19  C    9.926534   7.725538   6.709463   9.193840   5.349375
    20  H   10.126298   7.710470   7.819244  10.208133   5.830747
    21  H    9.937027   8.078895   5.927935   8.361706   5.457751
    22  N    2.073479   3.388710   3.389658   2.074179   4.238982
    23  Cl  11.737124   9.529542   8.359183  10.851391   7.158907
                   11         12         13         14         15
    11  C    0.000000
    12  C    1.417586   0.000000
    13  C    2.455532   1.412090   0.000000
    14  C    2.460299   1.412519   2.431699   0.000000
    15  C    3.734824   2.440168   1.396350   2.805501   0.000000
[...]
 0290347,0.01315614,0.71243787,-0.00007592,0.00008029,-0.00000529,0.000
 15037,0.00023129,-0.00006747,-0.00057887,0.00008181,0.00008520,0.00019
 452,-0.00019115,0.00002790,-0.00006675,-0.00009310,0.00002116,0.000004
 88,-0.00001691,-0.00000751,-0.00000768,-0.00004153,0.00000249,0.000004
 30,-0.00000272,0.00000517,0.00000979,0.00001073,0.00000830,0.00201296,
 0.00027338,0.00024782,-0.00309869,0.00527613,0.00010252,-0.01647751,-0
 .07623919,0.03590193,0.00314496,0.00733992,0.01207302,-0.01377217,0.15
 975976,0.00041749,-0.00001024,0.00011316,-0.00080881,-0.00006598,0.000
 61193,0.00319135,0.00004451,-0.00030063,-0.00104231,0.00004527,-0.0003
 7498,0.00036357,0.00001798,-0.00020376,-0.00002458,-0.00000706,0.00002
 066,0.00003565,0.00000183,-0.00005271,-0.00002473,0.00000528,-0.000028
 89,-0.00004725,0.00000855,-0.00003103,-0.01107712,0.00035598,-0.001022
 71,0.01886963,0.00024460,0.00304318,0.09204327,0.03550138,-0.26366988,
 -0.01913655,0.01236608,-0.05546645,0.04578198,-0.10398984,0.69314544,0
 .00023714,-0.00001596,0.00007990,-0.00047101,-0.00004385,0.00025631,0.
 00158331,-0.00002080,0.00001676,-0.00042228,0.00005417,-0.00026714,0.0
 0021994,0.00000818,-0.00005763,-0.00001541,-0.00000357,0.00001946,0.00
 002132,0.00000136,-0.00001017,0.00002765,-0.00000383,0.00001964,-0.000
 01765,0.00000364,-0.00001852,-0.00367643,-0.00009765,0.00068664,0.0071
 3602,0.00050330,-0.00271737,-0.03621864,0.01232146,-0.06365673,-0.3495
 5389,-0.00391660,0.03473088,-0.04530793,-0.00463390,0.02670103,0.70463
 766,0.00004432,0.00012494,0.00000131,-0.00002507,-0.00002295,0.0000498
 4,0.00016263,-0.00033815,-0.00012165,-0.00005272,0.00003671,-0.0000238
 5,0.00003702,-0.00006473,0.00000051,0.00000220,-0.00000837,0.00000233,
 0.00000075,-0.00003652,-0.00000796,-0.00000414,0.00001040,-0.00000319,
 -0.00000062,0.00000300,-0.00000415,-0.00019160,-0.00025567,-0.00006181
 ,0.00097434,0.00611642,0.00201405,0.00530228,0.00847651,-0.00426021,0.
 00763608,-0.06661090,0.01163324,-0.00502612,-0.00522824,0.00219392,-0.
 01343929,0.15881135,-0.00024188,0.00000440,0.00011427,0.00015613,0.000
 05066,-0.00029218,-0.00096213,-0.00011269,0.00028913,0.00030334,-0.000
 02900,0.00017186,-0.00021123,0.00000181,-0.00006398,-0.00001135,0.0000
 0259,-0.00002124,-0.00000693,-0.00000801,0.00000507,0.00002120,-0.0000
 0317,0.00002577,0.00000428,-0.00000435,0.00002527,0.00118727,-0.000066
 51,0.00002802,-0.00523208,0.00203698,-0.00411901,-0.02617904,-0.004600
 64,0.03355806,-0.02695090,0.01219330,-0.12815791,0.02879533,0.00217492
 ,-0.01787052,0.04430466,-0.10931302,0.71971008,-0.00002551,-0.00000259
 ,0.00001317,0.00004776,0.00000644,-0.00003789,-0.00010276,-0.00000679,
 0.00004923,0.00008675,0.00000544,-0.00003468,-0.00001228,-0.00000286,0
 .00001678,0.00001120,0.00000118,-0.00000645,-0.00002824,-0.00000521,0.
 00003151,-0.00001247,0.00000044,-0.00000139,0.00001307,-0.00000145,0.0
 0000719,-0.00009720,0.00000161,0.00000714,0.00131892,0.00004066,-0.000
 47042,0.00981726,0.00342617,-0.01857045,-0.12484834,-0.02165709,0.1198
 0898,-0.00165027,0.00060593,-0.00287862,-0.01191567,-0.00535379,0.0293
 6643,0.13163212,0.00000212,-0.00003686,-0.00000834,-0.00000114,-0.0000
 2276,-0.00000174,0.00000510,0.00015849,0.00002739,-0.00000950,-0.00002
 912,0.00000689,-0.00000079,0.00001725,0.00000060,-0.00000145,0.0000079
 2,0.00000200,0.00000589,0.00004592,0.00000152,0.00000097,0.00000719,0.
 00000050,-0.00000218,0.00000185,-0.00000068,0.00015594,0.00021997,0.00
 003009,-0.00022671,-0.00374683,-0.00085021,-0.00298209,0.00329578,0.00
 435253,-0.02135021,-0.04644817,0.04305093,0.00078825,0.00541153,0.0015
 1220,0.00094000,0.00424079,-0.00013994,0.02252577,0.03491262,-0.000011
 96,-0.00000814,0.00000560,0.00000263,-0.00000213,-0.00001188,-0.000014
 45,0.00002798,0.00001503,0.00004521,0.00000613,-0.00006297,0.00000560,
 0.00000073,0.00001324,0.00000760,0.00000188,-0.00000210,-0.00002780,0.
 00000208,0.00003655,-0.00000422,0.00000054,0.00000465,0.00001108,-0.00
 000071,0.00000498,-0.00081652,0.00003764,0.00006587,0.00095681,-0.0008
 6320,0.00065387,0.01564375,0.00404177,-0.01825348,0.11817010,0.0430658
 9,-0.27423656,-0.00385177,0.00152109,-0.00223255,-0.00423631,0.0001651
 1,0.00354691,-0.12537918,-0.04800168,0.28848618,0.00023312,-0.00001050
 ,0.00004169,-0.00042254,-0.00005182,0.00029880,0.00162883,-0.00000133,
 -0.00008958,-0.00049194,0.00005029,-0.00024518,0.00024523,0.00001516,-
 0.00008690,-0.00001680,-0.00000371,0.00002074,0.00002552,0.00000353,-0
 .00001965,0.00002215,-0.00000227,0.00000919,-0.00001585,0.00000376,-0.
 00001974,-0.00376360,0.00012241,-0.00048386,0.00751851,-0.00040447,0.0
 0210982,-0.03136479,-0.01221183,0.06709615,-0.04811106,0.00508660,-0.0
 2506114,-0.34933943,0.00685588,-0.02278483,0.05921663,0.00376562,-0.02
 251056,-0.00056292,0.00013303,-0.00070912,0.70004113,-0.00003932,-0.00
 006433,0.00000216,0.00005503,0.00003670,-0.00002903,-0.00018471,-0.000
 33681,-0.00011190,0.00003149,-0.00002357,0.00005036,-0.00004512,0.0001
 2517,0.00000439,0.00000055,0.00000302,-0.00000435,0.00000384,0.0000103
 3,-0.00000324,-0.00000165,-0.00003649,-0.00000797,-0.00000201,-0.00000
 838,0.00000260,0.00021622,-0.00025825,-0.00006800,-0.00087546,0.006127
 79,0.00204399,-0.00519253,0.00861877,-0.00451138,0.00547878,-0.0053104
 8,0.00212343,-0.00469696,-0.06660422,0.01219730,-0.00356001,0.00739036
 ,0.01189967,0.00011635,-0.00050110,-0.00018327,0.00316490,0.15867639,0
 .00019532,0.00000065,-0.00007755,-0.00027173,-0.00002380,0.00017212,0.
 00088941,-0.00012081,0.00024234,-0.00014503,0.00004938,-0.00027067,0.0
 0023489,0.00000161,0.00010597,-0.00000207,-0.00000413,0.00002439,-0.00
 002121,-0.00000320,0.00002796,0.00000594,-0.00000796,0.00000420,0.0000
 1108,0.00000230,-0.00002080,-0.00098469,-0.00006340,0.00011757,0.00462
 488,0.00202091,-0.00451245,0.02961808,-0.00417093,0.02856092,-0.027155
 25,0.00214243,-0.01498556,0.03889684,0.01163724,-0.12838082,0.01660170
 ,0.01154461,-0.05285653,-0.00061985,-0.00018412,0.00047850,-0.04413702
 ,-0.10939755,0.72444578,-0.00001338,0.00000314,-0.00001535,0.00008579,
 -0.00000604,0.00002676,-0.00010423,0.00001041,-0.00004260,0.00004942,-
 0.00000712,0.00003458,-0.00002549,0.00000205,-0.00001157,0.00001209,0.
 00000133,-0.00000758,-0.00001213,-0.00000025,0.00000229,-0.00002825,0.
 00000591,-0.00002802,0.00001111,-0.00000110,0.00000576,-0.00005473,0.0
 0000263,-0.00000044,0.00129150,-0.00012758,0.00042908,0.00989313,-0.00
 325495,0.01709671,-0.00130190,-0.00046849,0.00284091,-0.13759649,0.024
 64334,-0.12677007,-0.00049113,-0.00012593,0.00067025,0.00055301,-0.000
 13564,0.00071567,-0.01317709,0.00549037,-0.02846972,0.14506201,0.00000
 107,0.00001721,0.00000068,0.00000891,-0.00002915,0.00000615,-0.0000014
 9,0.00015845,0.00002794,0.00000045,-0.00002271,-0.00000208,-0.00000265
 ,-0.00003686,-0.00000811,0.00000206,0.00000182,-0.00000073,-0.00000079
 ,0.00000720,0.00000054,-0.00000519,0.00004592,0.00000206,0.00000153,0.
 00000792,0.00000187,-0.00015162,0.00022123,0.00003840,0.00013963,-0.00
 374777,-0.00086375,0.00315343,0.00329821,0.00404319,-0.00065081,0.0054
 2188,0.00152749,0.02433645,-0.04682210,0.04283278,-0.00014264,-0.00049
 899,-0.00018197,0.00014672,0.00033170,0.00023399,-0.00080346,0.0042038
 4,0.00014204,-0.02592802,0.03530629,-0.00000417,0.00000061,0.00001436,
 -0.00005312,0.00000684,-0.00006198,0.00002106,0.00002737,0.00001653,-0
 .00000593,-0.00000173,-0.00001360,0.00001356,-0.00000837,0.00000558,-0
 .00001146,-0.00000070,0.00000598,0.00000513,0.00000051,0.00000431,0.00
 003128,0.00000154,0.00003656,-0.00000829,0.00000200,-0.00000200,0.0008
 2323,0.00003087,0.00002212,-0.00099791,-0.00085066,0.00068221,-0.01711
 764,0.00435386,-0.01833155,0.00381403,0.00151867,-0.00259102,-0.125131
 40,0.04281780,-0.26111684,0.00075950,-0.00018276,0.00040458,-0.0007919
 3,0.00024767,-0.00090709,0.00513319,-0.00016310,0.00484511,0.13266333,
 -0.04775606,0.27466474,-0.00038743,-0.00000628,0.00005198,0.00071151,0
 .00003640,-0.00022958,-0.00185785,0.00000808,0.00005144,0.00072394,-0.
 00004245,0.00019083,-0.00039024,0.00000916,-0.00003031,0.00005398,0.00
 001204,-0.00006688,-0.00007133,-0.00000750,0.00004394,-0.00007340,0.00
 000821,-0.00003989,0.00005733,-0.00001245,0.00006384,0.00381195,-0.000
 01894,-0.00008592,-0.00429074,0.00002088,0.00007725,0.00382191,0.00024
 398,-0.00185415,-0.03172774,-0.00545224,0.03103664,-0.03740799,0.00558
 769,-0.02762999,-0.14840884,-0.02044749,0.11314040,-0.00367413,0.00023
 943,-0.00073849,-0.15734684,0.02332004,-0.12010790,-0.00356112,-0.0000
 9277,0.00103004,0.48968942,-0.00000101,-0.00000686,-0.00000468,0.00000
 239,-0.00001176,-0.00000041,0.00000802,0.00008496,0.00000428,-0.000008
 38,-0.00001139,-0.00000184,0.00000387,-0.00000695,-0.00000447,-0.00000
 039,0.00000093,0.00000066,0.00000075,0.00000810,0.00000079,-0.00000005
 ,0.00000804,0.00000115,-0.00000004,0.00000103,0.00000012,-0.00001875,0
 .00000029,-0.00012074,0.00002066,-0.00046376,0.00018903,0.00024401,-0.
 00963979,0.01116768,-0.01490462,0.00887266,-0.00378014,0.01504010,0.00
 870616,-0.00434274,-0.00892065,-0.07424948,0.04154516,0.00031483,0.007
 26108,0.00108372,0.01179298,-0.07451173,0.04193985,-0.00016815,0.00726
 442,0.00108945,-0.00408268,0.14304477,0.00002377,-0.00000442,0.0000147
 2,-0.00004779,-0.00000206,0.00000153,0.00005135,0.00000429,0.00006046,
 0.00000911,-0.00000019,-0.00001124,-0.00000214,-0.00000473,0.00001760,
 -0.00000050,0.00000006,0.00000074,-0.00000016,0.00000119,0.00000192,0.
 00000420,0.00000075,0.00000405,-0.00000253,0.00000073,-0.00000270,-0.0
 0008576,-0.00012075,0.00062632,0.00007704,0.00018913,-0.00144104,-0.00
 185376,0.01116767,-0.06708177,0.08150451,-0.00423840,0.02670796,-0.078
 09795,-0.00388453,0.03255476,0.05159750,0.04210385,-0.29385133,-0.0011
 4111,0.00108738,0.00171675,-0.05856487,0.04138135,-0.28465238,0.001432
 61,0.00108574,0.00160044,0.00408786,-0.09989407,0.65745276,0.00002729,
 -0.00000149,0.00000684,-0.00011029,0.00000660,-0.00002961,0.00015726,-
 0.00001474,0.00007096,-0.00006634,-0.00000203,0.00001329,0.00002529,0.
 00000009,-0.00000182,-0.00001487,-0.00000120,0.00000721,0.00000983,0.0
 0000069,-0.00000382,0.00001168,-0.00000151,0.00000771,-0.00000885,0.00
 000104,-0.00000502,-0.00035717,-0.00000868,0.00005526,-0.00041163,0.00
 022853,-0.00118126,-0.00420390,-0.00023528,0.00181070,-0.01230544,0.00
 542599,-0.02817110,-0.00057320,-0.00013690,0.00073621,-0.13956198,0.02
 530438,-0.13021378,0.00069465,-0.00011323,0.00035496,-0.00128407,-0.00
 049491,0.00296213,0.00007546,0.00000907,-0.00009869,0.00918270,-0.0031
 6029,0.01660357,0.14730487,-0.00000329,0.00000294,0.00000265,0.0000048
 8,0.00000651,0.00000114,-0.00000947,-0.00000233,0.00000163,0.00000550,
 -0.00001569,-0.00000295,-0.00000361,-0.00000126,-0.00000205,0.00000046
 ,0.00000123,-0.00000059,-0.00000065,0.00000661,0.00000143,-0.00000054,
 0.00000444,0.00000073,0.00000061,0.00000178,0.00000111,-0.00000561,-0.
 00016987,-0.00002563,0.00000916,0.00038176,0.00005266,-0.00017162,0.00
 705273,0.00101805,-0.00070818,0.00417802,0.00003274,-0.00017228,-0.000
 43120,-0.00016686,0.02475530,-0.04687954,0.04274398,0.00000609,-0.0042
 7818,-0.00095720,-0.00064241,0.00505464,0.00140887,0.00000748,-0.00092
 925,-0.00017021,0.00335377,0.00280419,0.00417639,-0.02649385,0.0353850
 9,0.00001645,0.00000256,-0.00001109,-0.00002041,0.00000105,0.00000216,
 0.00004296,0.00000189,-0.00001427,-0.00002700,-0.00000259,-0.00000108,
 0.00001797,-0.00000223,0.00000937,-0.00000169,-0.00000051,0.00000392,0
 .00000331,0.00000136,-0.00000056,0.00000253,0.00000078,0.00000028,-0.0
 0000276,0.00000109,-0.00000371,0.00003861,-0.00002548,-0.00004050,-0.0
 0000982,0.00004203,0.00016773,0.00147078,0.00102113,0.00171852,0.00458
 020,-0.00026453,0.00536813,0.00092492,-0.00016861,0.00039140,-0.127282
 36,0.04271726,-0.26055490,-0.00028216,-0.00095139,0.00063595,0.0037500
 9,0.00140165,-0.00235283,-0.00009019,-0.00017028,-0.00004752,-0.018175
 99,0.00449225,-0.01948707,0.13558613,-0.04771341,0.27438684,0.00002441
 ,-0.00000042,0.00000100,-0.00006545,0.00000229,-0.00000986,0.00015087,
 0.00001356,-0.00007979,-0.00010738,-0.00000559,0.00003549,0.00002598,0
 .00000143,-0.00000881,-0.00000843,-0.00000089,0.00000528,0.00001112,0.
 00000149,-0.00000828,0.00000983,-0.00000064,0.00000328,-0.00001511,0.0
 0000131,-0.00000619,-0.00036116,0.00000886,-0.00003827,-0.00034818,-0.
 00021976,0.00120923,-0.00435734,0.00038193,-0.00147676,-0.00065679,0.0
 0012936,-0.00068136,-0.01103179,-0.00530246,0.02904758,-0.00163483,0.0
 0062289,-0.00298889,0.00008485,-0.00002639,0.00009020,-0.12651785,-0.0
 2230930,0.12337246,0.00069033,0.00002173,-0.00036563,0.00918634,0.0033
 4033,-0.01810452,0.00062147,0.00013932,-0.00075428,0.13356577,0.000003
 28,-0.00000128,-0.00000225,-0.00000524,-0.00001567,-0.00000257,0.00000
 828,-0.00000252,0.00000177,-0.00000388,0.00000660,0.00000111,0.0000032
 4,0.00000290,0.00000254,-0.00000047,0.00000180,0.00000110,0.00000052,0
 .00000442,0.00000077,0.00000070,0.00000661,0.00000136,-0.00000036,0.00
 000122,-0.00000051,0.00000578,-0.00016999,-0.00002556,-0.00000039,0.00
 038366,0.00004319,0.00031832,0.00704813,0.00101836,0.00016471,-0.00043
 366,-0.00017013,0.00083178,0.00421524,-0.00024131,0.00077042,0.0050443
 5,0.00139524,-0.00002480,-0.00092893,-0.00017011,-0.02176021,-0.046497
 24,0.04295656,-0.00009760,-0.00427831,-0.00095151,-0.00317381,0.002804
 44,0.00449250,-0.00012951,0.00036531,0.00022901,0.02307795,0.03498244,
 -0.00001879,-0.00000206,0.00001028,0.00003042,-0.00000294,-0.00000200,
 -0.00005179,0.00000152,-0.00000769,0.00002629,0.00000118,-0.00000084,-
 0.00001842,0.00000263,-0.00000974,0.00000302,0.00000112,-0.00000414,-0
 .00000310,0.00000072,0.00000086,-0.00000386,0.00000143,-0.00000056,0.0
 0000271,-0.00000059,0.00000416,-0.00002164,-0.00002571,-0.00003638,0.0
 0003779,0.00005384,0.00010244,-0.00113688,0.00101522,0.00187643,-0.000
 87011,-0.00016844,0.00047745,-0.00370352,0.00005612,0.00405752,-0.0037
 7687,0.00140239,-0.00199187,0.00008170,-0.00017003,-0.00005718,0.12044
 058,0.04298312,-0.27398072,0.00027150,-0.00095726,0.00064041,0.0166752
 4,0.00417675,-0.01949154,0.00068106,0.00021599,-0.00077916,-0.12842093
 ,-0.04796556,0.28852859,-0.17044658,0.01833467,-0.09309238,-0.03660034
 ,0.00731520,-0.03617653,0.00888684,0.00023988,-0.00220068,-0.02980621,
 -0.00685376,0.03923798,-0.16191977,-0.01566054,0.08822634,0.01211294,-
 0.00135778,0.00648921,-0.00575822,-0.00000552,0.00069943,-0.00578675,0
 .00017668,-0.00027154,0.01282720,0.00149565,-0.00879962,-0.00462471,-0
 .00001823,0.00012419,0.00300051,-0.00001392,-0.00006090,-0.00036676,0.
 00000373,0.00000942,0.00007218,-0.00006978,0.00036984,0.00005042,0.000
 06991,-0.00037577,-0.00022460,-0.00004456,0.00024804,0.00004148,-0.000
 00389,0.00001863,-0.00023626,0.00004592,-0.00023406,0.00003998,0.00000
 332,-0.00001988,0.00049456,-0.00000185,-0.00001387,-0.00003771,0.00000
 495,-0.00002482,-0.00003677,-0.00000471,0.00002678,0.37886024,0.015044
 82,-0.07607815,0.03618486,0.01761654,0.02353958,-0.00037864,0.00023970
 ,-0.01229445,0.01219247,-0.01715378,0.02373959,0.00024357,-0.01237267,
 -0.07582724,0.03617756,0.00406905,-0.00469936,0.00505544,0.00007389,0.
 00782351,0.00111795,0.00009752,0.00782273,0.00112097,-0.00393046,-0.00
 467825,0.00533138,-0.00001840,-0.00393034,-0.00078807,-0.00001389,0.00
 023323,-0.00009822,0.00000369,0.00022715,0.00004842,-0.00000862,0.0000
 0589,0.00000966,0.00000876,0.00000525,0.00001225,0.00000391,-0.0000093
 4,-0.00000918,-0.00000206,-0.00000303,-0.00000410,-0.00000254,-0.00000
 969,-0.00000703,0.00000149,-0.00000307,-0.00000404,-0.00000187,0.00000
 267,0.00000543,-0.00000132,-0.00000386,-0.00000051,0.00000156,-0.00000
 383,-0.00000080,-0.00365752,0.11413916,-0.07551828,0.03602704,-0.25808
 629,-0.09123747,0.00012196,0.02741359,-0.00220078,0.01219296,-0.075082
 36,0.09429921,-0.00025800,0.02041947,0.07065154,0.03633775,-0.26686292
 ,-0.02251678,0.00531768,-0.03105409,0.00027684,0.00112149,0.00202404,0
 .00015111,0.00111727,0.00205340,0.02020683,0.00506721,-0.03178959,0.00
 012419,-0.00078783,0.00012913,-0.00006092,-0.00009825,0.00074274,0.000
 00941,0.00004841,-0.00002308,0.00004289,0.00001265,-0.00006199,-0.0000
 4880,0.00000928,-0.00003954,-0.00001053,-0.00000681,0.00002592,0.00000
 881,-0.00000402,0.00001719,0.00002453,-0.00000938,0.00003790,-0.000010
 07,-0.00000414,0.00001873,-0.00001390,0.00000544,-0.00002468,0.0000087
 1,-0.00000082,-0.00000004,-0.00000674,-0.00000049,-0.00000101,0.005805
 44,-0.09620778,0.61013402,0.00038700,0.00002855,-0.00017161,-0.0006690
 4,-0.00000655,0.00006776,0.00148671,-0.00000572,-0.00004040,-0.0006714
 2,0.00001221,-0.00003227,0.00039537,-0.00003176,0.00015059,-0.00006141
 ,-0.00001431,0.00007937,0.00006659,0.00000529,-0.00003166,0.00006826,-
 0.00000595,0.00002825,-0.00006535,0.00001479,-0.00007591,-0.00162928,0
 .00000704,0.00004392,0.00134220,-0.00001370,-0.00003027,-0.00135819,-0
 .00000697,0.00007721,0.00391344,-0.00078467,0.00422066,0.00375779,0.00
 086631,-0.00458712,-0.03515938,0.00085883,-0.00268858,-0.00137129,0.00
 005673,-0.00023242,-0.03628011,-0.00052152,0.00473580,-0.00139791,-0.0
 0004494,0.00031172,-0.12853598,0.00049891,0.00252343,0.00082497,-0.000
 07604,0.00023751,0.00077011,0.00001601,-0.00025118,-0.00054167,0.00000
 219,0.00001477,0.19472857,-0.00000163,-0.00000108,0.00000073,0.0000036
 0,0.00000372,0.00000200,-0.00000567,0.00002620,0.00000973,0.00000199,0
 .00000365,0.00000245,-0.00000156,-0.00000084,-0.00000058,0.00000059,-0
 .00000073,-0.00000074,0.00000007,-0.00000334,-0.00000128,-0.00000072,-
 0.00000329,-0.00000150,-0.00000010,-0.00000085,-0.00000009,0.00000704,
 0.00005027,0.00000773,-0.00001373,-0.00075705,-0.00019369,-0.00000697,
 -0.00045858,-0.00039726,0.00030483,0.00428340,0.00143416,-0.00022312,0
 .00427886,0.00148412,-0.00456300,0.00394806,0.00041975,-0.00014098,0.0
 0008290,0.00000201,0.00490039,0.00391527,0.00013648,0.00015275,0.00008
 211,-0.00000806,0.00049879,-0.02196203,0.00245269,-0.00018146,-0.00253
 406,-0.00061252,0.00012145,-0.00253569,-0.00061863,0.00000217,0.000001
 85,-0.00000161,-0.00085472,0.01158126,-0.00001012,-0.00000074,0.000003
 47,0.00001335,0.00000250,-0.00000987,-0.00004038,0.00000973,-0.0000220
 1,0.00002211,0.00000196,-0.00000742,-0.00001089,0.00000088,-0.00000514
 ,-0.00000022,-0.00000001,-0.00000078,-0.00000377,-0.00000153,0.0000047
 9,0.00000036,-0.00000125,0.00000307,0.00000368,-0.00000081,0.00000328,
 0.00004390,0.00000773,0.00000837,-0.00003026,-0.00019369,0.00024215,0.
 00007720,-0.00039724,0.00158409,-0.00159627,0.00148697,-0.00330703,0.0
 0122977,0.00143129,-0.00314672,0.02625966,0.00015699,0.00187454,0.0008
 2318,-0.00000758,0.00008254,-0.02421235,0.00039917,0.00302755,-0.00074
 386,0.00000153,0.00010993,0.00252352,0.00245276,-0.03471625,0.00080039
 ,-0.00061763,0.00060842,-0.00081420,-0.00061353,0.00066469,0.00001476,
 -0.00000161,0.00000945,-0.00434955,-0.00411589,0.03298889||-0.00001073
 ,0.00000940,-0.00000196,0.00000447,-0.00000082,-0.00000185,0.00000022,
 0.00000010,-0.00000043,0.00000430,0.00000076,0.00000181,-0.00001030,-0
 .00000191,0.00000204,0.00000119,-0.00000345,-0.00000068,-0.00000086,-0
 .00000074,-0.00000020,-0.00000092,-0.00000071,0.00000043,0.00000213,0.
 00000016,0.00000191,0.00000484,0.00000029,-0.00000047,0.00000111,-0.00
 000221,0.00000171,-0.00000847,0.00000238,-0.00000509,0.00000018,-0.000
 00087,0.00000148,0.00000044,0.00000022,0.00000130,0.00000460,-0.000000
 06,0.00000243,-0.00000006,-0.00000005,-0.00000002,0.00000183,0.0000000
 6,-0.00000237,0.00000059,0.,0.00000078,-0.00000842,-0.00000021,-0.0000
 0025,-0.00000108,0.00000022,-0.00000095,0.00000005,-0.00000031,0.00000
 147,0.00001021,-0.00000241,-0.00000076,0.00000467,0.00000016,-0.000000
 32|||@


 THAT'S WHAT MAKES US A GREAT COUNTRY.
 THE LITTLE THINGS ARE SERIOUS AND THE BIG ONES ARE NOT.
           WILL ROGERS
 Job cpu time:       0 days  0 hours  3 minutes 24.0 seconds.
 File lengths (MBytes):  RWF=     88 Int=      0 D2E=      0 Chk=      3 Scr=      1
 Normal termination of Gaussian 09 at Tue Sep 12 00:14:44 2023.
