 Entering Link 1 = C:\G09W\l1.exe PID=      2012.
  
 Copyright (c) 1988,1990,1992,1993,1995,1998,2003,2009,2013,
            Gaussian, Inc.  All Rights Reserved.
  
 This is part of the Gaussian(R) 09 program.  It is based on
 the Gaussian(R) 03 system (copyright 2003, Gaussian, Inc.),
 the Gaussian(R) 98 system (copyright 1998, Gaussian, Inc.),
 the Gaussian(R) 94 system (copyright 1995, Gaussian, Inc.),
 the Gaussian 92(TM) system (copyright 1992, Gaussian, Inc.),
 the Gaussian 90(TM) system (copyright 1990, Gaussian, Inc.),
 the Gaussian 88(TM) system (copyright 1988, Gaussian, Inc.),
 the Gaussian 86(TM) system (copyright 1986, Carnegie Mellon
 University), and the Gaussian 82(TM) system (copyright 1983,
 Carnegie Mellon University). Gaussian is a federally registered
 trademark of Gaussian, Inc.
  
 This software contains proprietary and confidential information,
 including trade secrets, belonging to Gaussian, Inc.
  
 This software is provided under written license and may be
 used, copied, transmitted, or stored only in accord with that
 written license.
  
 The following legend is applicable only to US Government
 contracts under FAR:
  
                    RESTRICTED RIGHTS LEGEND
  
 Use, reproduction and disclosure by the US Government is
 subject to restrictions as set forth in subparagraphs (a)
 and (c) of the Commercial Computer Software - Restricted
 Rights clause in FAR 52.227-19.
  
 Gaussian, Inc.
 340 Quinnipiac St., Bldg. 40, Wallingford CT 06492
  
  
 ---------------------------------------------------------------
 Warning -- This program may not be used in any manner that
 competes with the business of Gaussian, Inc. or will provide
 assistance to any competitor of Gaussian, Inc.  The licensee
 of this program is prohibited from giving any competitor of
 Gaussian, Inc. access to this program.  By using this program,
 the user acknowledges that Gaussian, Inc. is engaged in the
 business of creating and licensing software in the field of
 computational chemistry and represents and warrants to the
 licensee that it is not a competitor of Gaussian, Inc. and that
 it will not use this program in any manner prohibited above.
 ---------------------------------------------------------------
  

 Cite this work as:
 Gaussian 09, Revision D.01,
 M. J. Frisch, G. W. Trucks, H. B. Schlegel, G. E. Scuseria, 
 M. A. Robb, J. R. Cheeseman, G. Scalmani, V. Barone, B. Mennucci, 
 G. A. Petersson, H. Nakatsuji, M. Caricato, X. Li, H. P. Hratchian, 
 A. F. Izmaylov, J. Bloino, G. Zheng, J. L. Sonnenberg, M. Hada, 
 M. Ehara, K. Toyota, R. Fukuda, J. Hasegawa, M. Ishida, T. Nakajima, 
 Y. Honda, O. Kitao, H. Nakai, T. Vreven, J. A. Montgomery, Jr., 
 J. E. Peralta, F. Ogliaro, M. Bearpark, J. J. Heyd, E. Brothers, 
 K. N. Kudin, V. N. Staroverov, T. Keith, R. Kobayashi, J. Normand, 
 K. Raghavachari, A. Rendell, J. C. Burant, S. S. Iyengar, J. Tomasi, 
 M. Cossi, N. Rega, J. M. Millam, M. Klene, J. E. Knox, J. B. Cross, 
 V. Bakken, C. Adamo, J. Jaramillo, R. Gomperts, R. E. Stratmann, 
 O. Yazyev, A. J. Austin, R. Cammi, C. Pomelli, J. W. Ochterski, 
 R. L. Martin, K. Morokuma, V. G. Zakrzewski, G. A. Voth, 
 P. Salvador, J. J. Dannenberg, S. Dapprich, A. D. Daniels, 
 O. Farkas, J. B. Foresman, J. V. Ortiz, J. Cioslowski, 
 and D. J. Fox, Gaussian, Inc., Wallingford CT, 2013.
 
 ******************************************
 Gaussian 09:  EM64W-G09RevD.01 13-Apr-2013
                11-Sep-2023 
 ******************************************
 %nprocshared=6
 Will use up to    6 processors via shared memory.
 %mem=6GB
 %chk=D:\User Dont delete\Downloads\molecule_30.chk
 ----------------------------------------------
 # opt freq b3lyp/6-31g empiricaldispersion=gd3
 ----------------------------------------------
 1/14=-1,18=20,19=15,26=3,38=1/1,3;
 2/9=110,12=2,17=6,18=5,40=1/2;
 3/5=1,6=6,11=2,16=1,25=1,30=1,71=1,74=-5,124=31/1,2,3;
 4//1;
 5/5=2,38=5/2;
 6/7=2,8=2,9=2,10=2,28=1/1;
 7//1,2,3,16;
 1/14=-1,18=20,19=15,26=3/3(2);
 2/9=110/2;
 99//99;
 2/9=110/2;
 3/5=1,6=6,11=2,16=1,25=1,30=1,71=1,74=-5,124=31/1,2,3;
 4/5=5,16=3,69=1/1;
 5/5=2,38=5/2;
 7//1,2,3,16;
 1/14=-1,18=20,19=15,26=3/3(-5);
 2/9=110/2;
 6/7=2,8=2,9=2,10=2,19=2,28=1/1;
 99/9=1/99;
 -------------------
 Title Card Required
 -------------------
 Symbolic Z-matrix:
 Charge =  0 Multiplicity = 1
 C                    -5.30642  -0.95004   1.13808 
 C                    -3.91026  -0.97885   1.0873 
 C                    -3.24353  -0.49817  -0.05029 
 C                    -3.96927  -0.06568  -1.15526 
 C                    -5.36722  -0.03465  -1.10341 
 C                    -6.03529  -0.47585   0.04315 
 H                    -5.82877  -1.29526   2.03458 
 H                    -3.33932  -1.35081   1.9443 
 H                    -3.4475    0.28095  -2.05001 
 H                    -5.9376    0.33606  -1.95976 
 C                    -1.70232  -0.51098  -0.00174 
 C                    -0.50316  -0.51544   0.00061 
 C                     1.03814  -0.52118   0.00361 
 C                     1.73324  -0.49899   1.21632 
 C                     1.73531  -0.50038  -1.20582 
 C                     3.13124  -0.50192   1.21672 
 H                     1.18549  -0.5016    2.1622 
 C                     3.13359  -0.50384  -1.20525 
 H                     1.18944  -0.5035   -2.1542 
 C                     3.82894  -0.50274   0.00634 
 H                     3.67742  -0.50148   2.16417 
 H                     3.6812   -0.50459  -2.15173 
 O                    -7.464    -0.44384   0.0949 
 C                    -7.97293   0.10488  -1.12362 
 H                    -7.5899    1.09513  -1.25625 
 H                    -7.66817  -0.5085   -1.94569 
 H                    -9.04154   0.13858  -1.08069 
 C                     5.36894  -0.50243   0.00779 
 H                     5.90193   0.42529  -0.00432 
 O                     6.00265  -1.58951   0.02318 
 

 GradGradGradGradGradGradGradGradGradGradGradGradGradGradGradGradGradGrad
 Berny optimization.
 Initialization pass.
                           ----------------------------
                           !    Initial Parameters    !
                           ! (Angstroms and Degrees)  !
 --------------------------                            --------------------------
 ! Name  Definition              Value          Derivative Info.                !
 --------------------------------------------------------------------------------
 ! R1    R(1,2)                  1.3974         estimate D2E/DX2                !
 ! R2    R(1,6)                  1.3982         estimate D2E/DX2                !
 ! R3    R(1,7)                  1.0935         estimate D2E/DX2                !
 ! R4    R(2,3)                  1.4035         estimate D2E/DX2                !
 ! R5    R(2,8)                  1.0949         estimate D2E/DX2                !
 ! R6    R(3,4)                  1.3909         estimate D2E/DX2                !
 ! R7    R(3,11)                 1.542          estimate D2E/DX2                !
 ! R8    R(4,5)                  1.3993         estimate D2E/DX2                !
 ! R9    R(4,9)                  1.0922         estimate D2E/DX2                !
 ! R10   R(5,6)                  1.3984         estimate D2E/DX2                !
 ! R11   R(5,10)                 1.0937         estimate D2E/DX2                !
 ! R12   R(6,23)                 1.43           estimate D2E/DX2                !
 ! R13   R(11,12)                1.1992         estimate D2E/DX2                !
 ! R14   R(12,13)                1.5413         estimate D2E/DX2                !
 ! R15   R(13,14)                1.398          estimate D2E/DX2                !
 ! R16   R(13,15)                1.3961         estimate D2E/DX2                !
 ! R17   R(14,16)                1.398          estimate D2E/DX2                !
 ! R18   R(14,17)                1.093          estimate D2E/DX2                !
 ! R19   R(15,18)                1.3983         estimate D2E/DX2                !
 ! R20   R(15,19)                1.0943         estimate D2E/DX2                !
 ! R21   R(16,20)                1.3971         estimate D2E/DX2                !
 ! R22   R(16,21)                1.0936         estimate D2E/DX2                !
 ! R23   R(18,20)                1.3969         estimate D2E/DX2                !
 ! R24   R(18,22)                1.0935         estimate D2E/DX2                !
 ! R25   R(20,28)                1.54           estimate D2E/DX2                !
 ! R26   R(23,24)                1.43           estimate D2E/DX2                !
 ! R27   R(24,25)                1.07           estimate D2E/DX2                !
 ! R28   R(24,26)                1.07           estimate D2E/DX2                !
 ! R29   R(24,27)                1.07           estimate D2E/DX2                !
 ! R30   R(28,29)                1.07           estimate D2E/DX2                !
 ! R31   R(28,30)                1.2584         estimate D2E/DX2                !
 ! A1    A(2,1,6)              119.958          estimate D2E/DX2                !
 ! A2    A(2,1,7)              120.0372         estimate D2E/DX2                !
 ! A3    A(6,1,7)              120.0045         estimate D2E/DX2                !
 ! A4    A(1,2,3)              119.8047         estimate D2E/DX2                !
 ! A5    A(1,2,8)              119.971          estimate D2E/DX2                !
 ! A6    A(3,2,8)              120.204          estimate D2E/DX2                !
 ! A7    A(2,3,4)              120.1683         estimate D2E/DX2                !
 ! A8    A(2,3,11)             116.5157         estimate D2E/DX2                !
 ! A9    A(4,3,11)             123.304          estimate D2E/DX2                !
 ! A10   A(3,4,5)              119.9162         estimate D2E/DX2                !
 ! A11   A(3,4,9)              120.0131         estimate D2E/DX2                !
 ! A12   A(5,4,9)              120.0388         estimate D2E/DX2                !
 ! A13   A(4,5,6)              120.0444         estimate D2E/DX2                !
 ! A14   A(4,5,10)             119.9699         estimate D2E/DX2                !
 ! A15   A(6,5,10)             119.9857         estimate D2E/DX2                !
 ! A16   A(1,6,5)              120.0015         estimate D2E/DX2                !
 ! A17   A(1,6,23)             120.0048         estimate D2E/DX2                !
 ! A18   A(5,6,23)             119.9936         estimate D2E/DX2                !
 ! A19   A(12,13,14)           119.9238         estimate D2E/DX2                !
 ! A20   A(12,13,15)           119.8422         estimate D2E/DX2                !
 ! A21   A(14,13,15)           120.1945         estimate D2E/DX2                !
 ! A22   A(13,14,16)           119.8308         estimate D2E/DX2                !
 ! A23   A(13,14,17)           120.098          estimate D2E/DX2                !
 ! A24   A(16,14,17)           120.0575         estimate D2E/DX2                !
 ! A25   A(13,15,18)           119.9314         estimate D2E/DX2                !
 ! A26   A(13,15,19)           120.108          estimate D2E/DX2                !
 ! A27   A(18,15,19)           119.947          estimate D2E/DX2                !
 ! A28   A(14,16,20)           119.944          estimate D2E/DX2                !
 ! A29   A(14,16,21)           119.9792         estimate D2E/DX2                !
 ! A30   A(20,16,21)           120.0767         estimate D2E/DX2                !
 ! A31   A(15,18,20)           119.8756         estimate D2E/DX2                !
 ! A32   A(15,18,22)           120.0284         estimate D2E/DX2                !
 ! A33   A(20,18,22)           120.0958         estimate D2E/DX2                !
 ! A34   A(16,20,18)           120.1873         estimate D2E/DX2                !
 ! A35   A(16,20,28)           119.9063         estimate D2E/DX2                !
 ! A36   A(18,20,28)           119.9063         estimate D2E/DX2                !
 ! A37   A(6,23,24)            109.4712         estimate D2E/DX2                !
 ! A38   A(23,24,25)           109.4712         estimate D2E/DX2                !
 ! A39   A(23,24,26)           109.4712         estimate D2E/DX2                !
 ! A40   A(23,24,27)           109.4712         estimate D2E/DX2                !
 ! A41   A(25,24,26)           109.4713         estimate D2E/DX2                !
 ! A42   A(25,24,27)           109.4712         estimate D2E/DX2                !
 ! A43   A(26,24,27)           109.4712         estimate D2E/DX2                !
 ! A44   A(20,28,29)           119.8865         estimate D2E/DX2                !
 ! A45   A(20,28,30)           120.2269         estimate D2E/DX2                !
 ! A46   A(29,28,30)           119.8865         estimate D2E/DX2                !
 ! A47   L(3,11,12,8,-1)       181.6583         estimate D2E/DX2                !
 ! A48   L(11,12,13,19,-1)     179.9996         estimate D2E/DX2                !
 ! A49   L(3,11,12,8,-2)       179.4663         estimate D2E/DX2                !
 ! A50   L(11,12,13,19,-2)     179.9998         estimate D2E/DX2                !
 ! D1    D(6,1,2,3)              1.6809         estimate D2E/DX2                !
 ! D2    D(6,1,2,8)           -179.9557         estimate D2E/DX2                !
 ! D3    D(7,1,2,3)           -178.1363         estimate D2E/DX2                !
 ! D4    D(7,1,2,8)              0.227          estimate D2E/DX2                !
 ! D5    D(2,1,6,5)              0.1967         estimate D2E/DX2                !
 ! D6    D(2,1,6,23)          -179.8961         estimate D2E/DX2                !
 ! D7    D(7,1,6,5)           -179.986          estimate D2E/DX2                !
 ! D8    D(7,1,6,23)            -0.0788         estimate D2E/DX2                !
 ! D9    D(1,2,3,4)             -3.6992         estimate D2E/DX2                !
 ! D10   D(1,2,3,11)           177.5162         estimate D2E/DX2                !
 ! D11   D(8,2,3,4)            177.9414         estimate D2E/DX2                !
 ! D12   D(8,2,3,11)            -0.8433         estimate D2E/DX2                !
 ! D13   D(2,3,4,5)              3.816          estimate D2E/DX2                !
 ! D14   D(2,3,4,9)           -178.2399         estimate D2E/DX2                !
 ! D15   D(11,3,4,5)          -177.4853         estimate D2E/DX2                !
 ! D16   D(11,3,4,9)             0.4589         estimate D2E/DX2                !
 ! D17   D(2,3,13,14)          -24.1431         estimate D2E/DX2                !
 ! D18   D(2,3,13,15)          158.2445         estimate D2E/DX2                !
 ! D19   D(4,3,13,14)          157.4038         estimate D2E/DX2                !
 ! D20   D(4,3,13,15)          -20.2086         estimate D2E/DX2                !
 ! D21   D(3,4,5,6)             -1.9249         estimate D2E/DX2                !
 ! D22   D(3,4,5,10)           178.0            estimate D2E/DX2                !
 ! D23   D(9,4,5,6)           -179.8685         estimate D2E/DX2                !
 ! D24   D(9,4,5,10)             0.0564         estimate D2E/DX2                !
 ! D25   D(4,5,6,1)             -0.0841         estimate D2E/DX2                !
 ! D26   D(4,5,6,23)          -179.9913         estimate D2E/DX2                !
 ! D27   D(10,5,6,1)           179.991          estimate D2E/DX2                !
 ! D28   D(10,5,6,23)            0.0838         estimate D2E/DX2                !
 ! D29   D(1,6,23,24)          178.732          estimate D2E/DX2                !
 ! D30   D(5,6,23,24)           -1.3607         estimate D2E/DX2                !
 ! D31   D(12,13,14,16)       -179.8905         estimate D2E/DX2                !
 ! D32   D(12,13,14,17)          1.4544         estimate D2E/DX2                !
 ! D33   D(15,13,14,16)         -2.1768         estimate D2E/DX2                !
 ! D34   D(15,13,14,17)        179.1681         estimate D2E/DX2                !
 ! D35   D(12,13,15,18)        179.9195         estimate D2E/DX2                !
 ! D36   D(12,13,15,19)         -1.4191         estimate D2E/DX2                !
 ! D37   D(14,13,15,18)          2.2039         estimate D2E/DX2                !
 ! D38   D(14,13,15,19)       -179.1347         estimate D2E/DX2                !
 ! D39   D(13,14,16,20)          1.1475         estimate D2E/DX2                !
 ! D40   D(13,14,16,21)       -178.9793         estimate D2E/DX2                !
 ! D41   D(17,14,16,20)        179.8032         estimate D2E/DX2                !
 ! D42   D(17,14,16,21)         -0.3236         estimate D2E/DX2                !
 ! D43   D(13,15,18,20)         -1.1998         estimate D2E/DX2                !
 ! D44   D(13,15,18,22)        178.9699         estimate D2E/DX2                !
 ! D45   D(19,15,18,20)       -179.8633         estimate D2E/DX2                !
 ! D46   D(19,15,18,22)          0.3064         estimate D2E/DX2                !
 ! D47   D(14,16,20,18)         -0.1518         estimate D2E/DX2                !
 ! D48   D(14,16,20,28)        179.8482         estimate D2E/DX2                !
 ! D49   D(21,16,20,18)        179.9751         estimate D2E/DX2                !
 ! D50   D(21,16,20,28)         -0.0249         estimate D2E/DX2                !
 ! D51   D(15,18,20,16)          0.1766         estimate D2E/DX2                !
 ! D52   D(15,18,20,28)       -179.8234         estimate D2E/DX2                !
 ! D53   D(22,18,20,16)       -179.9932         estimate D2E/DX2                !
 ! D54   D(22,18,20,28)          0.0068         estimate D2E/DX2                !
 ! D55   D(16,20,28,29)        -90.7337         estimate D2E/DX2                !
 ! D56   D(16,20,28,30)         89.2663         estimate D2E/DX2                !
 ! D57   D(18,20,28,29)         89.2663         estimate D2E/DX2                !
 ! D58   D(18,20,28,30)        -90.7337         estimate D2E/DX2                !
 ! D59   D(6,23,24,25)         -59.3961         estimate D2E/DX2                !
 ! D60   D(6,23,24,26)          60.6039         estimate D2E/DX2                !
 ! D61   D(6,23,24,27)        -179.3961         estimate D2E/DX2                !
 --------------------------------------------------------------------------------
 Trust Radius=3.00D-01 FncErr=1.00D-07 GrdErr=1.00D-06
 Number of steps in this run=    152 maximum allowed number of steps=    180.
 GradGradGradGradGradGradGradGradGradGradGradGradGradGradGradGradGradGrad

                          Input orientation:                          
 ---------------------------------------------------------------------
 Center     Atomic      Atomic             Coordinates (Angstroms)
 Number     Number       Type             X           Y           Z
 ---------------------------------------------------------------------
      1          6           0       -5.306420   -0.950037    1.138085
      2          6           0       -3.910257   -0.978854    1.087296
      3          6           0       -3.243530   -0.498173   -0.050288
      4          6           0       -3.969271   -0.065678   -1.155262
      5          6           0       -5.367223   -0.034654   -1.103412
      6          6           0       -6.035290   -0.475849    0.043153
      7          1           0       -5.828773   -1.295255    2.034578
      8          1           0       -3.339319   -1.350808    1.944296
      9          1           0       -3.447499    0.280946   -2.050008
     10          1           0       -5.937596    0.336059   -1.959755
     11          6           0       -1.702325   -0.510980   -0.001736
     12          6           0       -0.503164   -0.515444    0.000607
     13          6           0        1.038137   -0.521178    0.003607
     14          6           0        1.733241   -0.498994    1.216317
     15          6           0        1.735313   -0.500380   -1.205823
     16          6           0        3.131236   -0.501924    1.216721
     17          1           0        1.185494   -0.501600    2.162198
     18          6           0        3.133594   -0.503838   -1.205245
     19          1           0        1.189441   -0.503497   -2.154202
     20          6           0        3.828940   -0.502741    0.006338
     21          1           0        3.677424   -0.501477    2.164168
     22          1           0        3.681197   -0.504590   -2.151735
     23          8           0       -7.463995   -0.443839    0.094897
     24          6           0       -7.972932    0.104878   -1.123624
     25          1           0       -7.589896    1.095127   -1.256250
     26          1           0       -7.668174   -0.508498   -1.945690
     27          1           0       -9.041539    0.138582   -1.080691
     28          6           0        5.368939   -0.502432    0.007794
     29          1           0        5.901928    0.425294   -0.004315
     30          8           0        6.002655   -1.589510    0.023176
 ---------------------------------------------------------------------
                    Distance matrix (angstroms):
                    1          2          3          4          5
     1  C    0.000000
     2  C    1.397384   0.000000
     3  C    2.423205   1.403451   0.000000
     4  C    2.798124   2.422073   1.390941   0.000000
     5  C    2.421968   2.795257   2.415365   1.399257   0.000000
     6  C    1.398207   2.420541   2.793413   2.423402   1.398420
     7  H    1.093494   2.162905   3.415478   3.891618   3.413082
     8  H    2.163349   1.094883   2.171296   3.414038   3.890139
     9  H    3.890352   3.412318   2.155808   1.092229   2.163558
    10  H    3.413069   3.888910   3.405877   2.164002   1.093653
    11  C    3.805452   2.505965   1.542023   2.582240   3.856430
    12  C    4.955199   3.606095   2.740893   3.681334   5.010897
    13  C    6.459440   5.086300   4.282068   5.159902   6.518499
    14  C    7.054530   5.665332   5.135421   6.191187   7.484206
    15  C    7.435193   6.112265   5.111179   5.721346   7.118525
    16  C    8.449913   7.058812   6.499459   7.498920   8.821857
    17  H    6.587476   5.229709   4.950895   6.145499   7.336235
    18  C    8.770639   7.422750   6.480869   7.116542   8.514363
    19  H    7.296215   6.061368   4.906905   5.272748   6.656861
    20  C    9.216058   7.828813   7.072698   7.896355   9.274699
    21  H    9.053370   7.678571   7.266598   8.347484   9.628117
    22  H    9.581158   8.267189   7.236571   7.727564   9.121058
    23  O    2.449410   3.728291   4.223311   3.730818   2.449456
    24  C    3.652185   4.750576   4.887020   4.007418   2.609521
    25  H    3.889704   4.830461   4.783706   3.803498   2.498008
    26  H    3.909284   4.852028   4.813536   3.808248   2.495664
    27  H    4.478747   5.681452   5.923183   5.076927   3.678469
    28  C   10.744356   9.353918   8.612666   9.420489  10.803646
    29  H   11.350052   9.972072   9.192079   9.950191  11.331960
    30  O   11.381876   9.988547   9.310658  10.156282  11.530867
                    6          7          8          9         10
     6  C    0.000000
     7  H    2.163297   0.000000
     8  H    3.412940   2.491710   0.000000
     9  H    3.413316   4.983846   4.316107   0.000000
    10  H    2.163419   4.315986   4.983792   2.492341   0.000000
    11  C    4.333341   4.667894   2.678077   2.805031   4.742240
    12  C    5.532432   5.753890   3.538295   3.675373   5.839617
    13  C    7.073683   7.202672   4.859699   4.998166   7.297294
    14  C    7.856649   7.647721   5.194844   6.173917   8.344249
    15  C    7.870376   8.267250   6.033106   5.308923   7.755100
    16  C    9.241382   9.032166   6.566433   7.386755   9.645513
    17  H    7.525340   7.060178   4.608966   6.310283   8.272277
    18  C    9.253525   9.562783   7.248142   6.681339   9.141181
    19  H    7.551548   8.211460   6.166464   4.703979   7.178949
    20  C    9.864335   9.900164   7.473876   7.601926   9.997716
    21  H    9.941639   9.540161   7.071378   8.314806  10.495562
    22  H    9.961349  10.420647   8.171976   7.172567   9.657366
    23  O    1.430000   2.676047   4.610404   4.610659   2.675768
    24  C    2.335180   4.065960   5.744695   4.622633   2.212500
    25  H    2.563828   4.432272   5.856065   4.295625   1.949667
    26  H    2.573494   4.454764   5.880515   4.295137   1.925715
    27  H    3.267734   4.699219   6.624511   5.679184   3.232061
    28  C   11.404315  11.407242   8.961224   9.087233  11.507043
    29  H   11.971278  12.030242   9.610009   9.571702  12.000251
    30  O   12.089366  12.004791   9.540448   9.854040  12.255995
                   11         12         13         14         15
    11  C    0.000000
    12  C    1.199171   0.000000
    13  C    2.740486   1.541315   0.000000
    14  C    3.645121   2.545531   1.397972   0.000000
    15  C    3.642429   2.542927   1.396141   2.422141   0.000000
    16  C    4.984779   3.832490   2.419314   1.397998   2.795948
    17  H    3.608627   2.743033   2.163703   1.093035   3.412604
    18  C    4.983432   3.831478   2.419207   2.797315   1.398285
    19  H    3.604924   2.740120   2.163180   3.414109   1.094262
    20  C    5.531276   4.332126   2.790865   2.419920   2.419217
    21  H    5.799390   4.707283   3.410902   2.162932   3.889555
    22  H    5.796968   4.705483   3.410504   3.890801   2.163615
    23  O    5.762872   6.961838   8.502974   9.265516   9.290982
    24  C    6.399878   7.579323   9.102855  10.002489   9.727442
    25  H    6.230320   7.375324   8.868069   9.776283   9.460852
    26  H    6.274578   7.424654   8.921871   9.918921   9.432552
    27  H    7.446486   8.631385  10.159275  11.035336  10.796503
    28  C    7.071275   5.872122   4.330844   3.831297   3.830941
    29  H    7.661676   6.473810   4.955031   4.440968   4.434092
    30  O    7.780138   6.593922   5.078204   4.565162   4.572400
                   16         17         18         19         20
    16  C    0.000000
    17  H    2.163294   0.000000
    18  C    2.421968   3.890343   0.000000
    19  H    3.890205   4.316402   2.163389   0.000000
    20  C    1.397075   3.411091   1.396940   3.410995   0.000000
    21  H    1.093608   2.491931   3.413020   4.983813   2.163144
    22  H    3.413057   4.983830   1.093486   2.491757   2.163125
    23  O   10.654614   8.893297  10.677212   8.941139  11.293436
    24  C   11.364329   9.748908  11.123494   9.240200  11.871402
    25  H   11.117951   9.552109  10.842164   8.968761  11.599014
    26  H   11.252917   9.760237  10.827117   8.860070  11.661650
    27  H   12.404225  10.747947  12.192706  10.307165  12.932214
    28  C    2.543388   4.705600   2.543272   4.705575   1.540000
    29  H    3.166607   5.272349   3.157403   5.262338   2.271265
    30  O    3.294304   5.381822   3.304423   5.393276   2.430306
                   21         22         23         24         25
    21  H    0.000000
    22  H    4.315906   0.000000
    23  O   11.332098  11.369536   0.000000
    24  C   12.120563  11.715254   1.430000   0.000000
    25  H   11.882799  11.419217   2.051796   1.070000   0.000000
    26  H   12.067046  11.351242   2.051796   1.070000   1.747303
    27  H   13.141949  12.783928   2.051796   1.070000   1.747303
    28  C    2.740652   2.740811  12.833364  13.403524  13.117981
    29  H    3.241858   3.226104  13.394519  13.923623  13.566331
    30  O    3.342808   3.361020  13.515486  14.124558  13.914081
                   26         27         28         29         30
    26  H    0.000000
    27  H    1.747303   0.000000
    28  C   13.182657  14.465738   0.000000
    29  H   13.740036  14.984926   1.070000   0.000000
    30  O   13.854118  15.183300   1.258400   2.017508   0.000000
 Stoichiometry    C16H12O2
 Framework group  C1[X(C16H12O2)]
 Deg. of freedom    84
 Full point group                 C1      NOp   1
 Largest Abelian subgroup         C1      NOp   1
 Largest concise Abelian subgroup C1      NOp   1
                         Standard orientation:                         
 ---------------------------------------------------------------------
 Center     Atomic      Atomic             Coordinates (Angstroms)
 Number     Number       Type             X           Y           Z
 ---------------------------------------------------------------------
      1          6           0       -4.060041    1.445203    0.275176
      2          6           0       -2.666032    1.348265    0.270277
      3          6           0       -2.053944    0.106149    0.041868
      4          6           0       -2.829651   -1.039321   -0.102681
      5          6           0       -4.225503   -0.941784   -0.100116
      6          6           0       -4.840234    0.300129    0.087863
      7          1           0       -4.540681    2.416306    0.422399
      8          1           0       -2.054893    2.244678    0.417657
      9          1           0       -2.349596   -2.009021   -0.251654
     10          1           0       -4.836008   -1.837298   -0.246458
     11          6           0       -0.512693    0.096600   -0.005988
     12          6           0        0.685205    0.053441   -0.040459
     13          6           0        2.224883   -0.002043   -0.084767
     14          6           0        2.955116    1.145878   -0.406270
     15          6           0        2.883560   -1.210500    0.149726
     16          6           0        4.351477    1.092781   -0.448137
     17          1           0        2.436936    2.087983   -0.602874
     18          6           0        4.280234   -1.263319    0.108324
     19          1           0        2.309651   -2.111366    0.387379
     20          6           0        5.011515   -0.111700   -0.192413
     21          1           0        4.925780    1.993336   -0.682989
     22          1           0        4.798385   -2.205246    0.308339
     23          8           0       -6.266842    0.398530    0.090475
     24          6           0       -6.834114   -0.892285   -0.148061
     25          1           0       -6.495135   -1.261699   -1.093327
     26          1           0       -6.530255   -1.564216    0.627231
     27          1           0       -7.901413   -0.816793   -0.156574
     28          6           0        6.549605   -0.170013   -0.242205
     29          1           0        7.044511   -0.413739   -1.159029
     30          8           0        7.226395    0.067994    0.791660
 ---------------------------------------------------------------------
 Rotational constants (GHZ):      2.3454265      0.1048678      0.1013107
 Standard basis: 6-31G (6D, 7F)
 There are   186 symmetry adapted cartesian basis functions of A   symmetry.
 There are   186 symmetry adapted basis functions of A   symmetry.
   186 basis functions,   444 primitive gaussians,   186 cartesian basis functions
    62 alpha electrons       62 beta electrons
       nuclear repulsion energy      1038.8553065101 Hartrees.
 NAtoms=   30 NActive=   30 NUniq=   30 SFac= 1.00D+00 NAtFMM=   60 NAOKFM=F Big=F
 Integral buffers will be    131072 words long.
 Raffenetti 2 integral format.
 Two-electron integral symmetry is turned on.
 Nuclear repulsion after empirical dispersion term =     1038.8345508037 Hartrees.
 One-electron integrals computed using PRISM.
 NBasis=   186 RedAO= T EigKep=  1.92D-04  NBF=   186
 NBsUse=   186 1.00D-06 EigRej= -1.00D+00 NBFU=   186
 ExpMin= 1.61D-01 ExpMax= 5.48D+03 ExpMxC= 8.25D+02 IAcc=1 IRadAn=         1 AccDes= 0.00D+00
 Harris functional with IExCor=  402 and IRadAn=       1 diagonalized for initial guess.
 HarFok:  IExCor=  402 AccDes= 0.00D+00 IRadAn=         1 IDoV= 1 UseB2=F ITyADJ=14
 ICtDFT=  3500011 ScaDFX=  1.000000  1.000000  1.000000  1.000000
 FoFCou: FMM=F IPFlag=           0 FMFlag=      100000 FMFlg1=           0
         NFxFlg=           0 DoJE=T BraDBF=F KetDBF=T FulRan=T
         wScrn=  0.000000 ICntrl=     500 IOpCl=  0 I1Cent=   200000004 NGrid=           0
         NMat0=    1 NMatS0=      1 NMatT0=    0 NMatD0=    1 NMtDS0=    0 NMtDT0=    0
 Petite list used in FoFCou.
 Keep R1 ints in memory in canonical form, NReq=154626538.
 Requested convergence on RMS density matrix=1.00D-08 within 128 cycles.
 Requested convergence on MAX density matrix=1.00D-06.
 Requested convergence on             energy=1.00D-06.
 No special actions if energy rises.
 Integral accuracy reduced to 1.0D-05 until final iterations.
 Initial convergence to 1.0D-05 achieved.  Increase integral accuracy.
 SCF Done:  E(RB3LYP) =  -767.085007003     A.U. after   16 cycles
            NFock= 16  Conv=0.51D-08     -V/T= 2.0059

 **********************************************************************

            Population analysis using the SCF density.

 **********************************************************************

 Orbital symmetries:
       Occupied  (A) (A) (A) (A) (A) (A) (A) (A) (A) (A) (A) (A)
                 (A) (A) (A) (A) (A) (A) (A) (A) (A) (A) (A) (A)
                 (A) (A) (A) (A) (A) (A) (A) (A) (A) (A) (A) (A)
                 (A) (A) (A) (A) (A) (A) (A) (A) (A) (A) (A) (A)
                 (A) (A) (A) (A) (A) (A) (A) (A) (A) (A) (A) (A)
                 (A) (A)
       Virtual   (A) (A) (A) (A) (A) (A) (A) (A) (A) (A) (A) (A)
                 (A) (A) (A) (A) (A) (A) (A) (A) (A) (A) (A) (A)
                 (A) (A) (A) (A) (A) (A) (A) (A) (A) (A) (A) (A)
                 (A) (A) (A) (A) (A) (A) (A) (A) (A) (A) (A) (A)
                 (A) (A) (A) (A) (A) (A) (A) (A) (A) (A) (A) (A)
                 (A) (A) (A) (A) (A) (A) (A) (A) (A) (A) (A) (A)
                 (A) (A) (A) (A) (A) (A) (A) (A) (A) (A) (A) (A)
                 (A) (A) (A) (A) (A) (A) (A) (A) (A) (A) (A) (A)
                 (A) (A) (A) (A) (A) (A) (A) (A) (A) (A) (A) (A)
                 (A) (A) (A) (A) (A) (A) (A) (A) (A) (A) (A) (A)
                 (A) (A) (A) (A)
 The electronic state is 1-A.
 Alpha  occ. eigenvalues --  -19.18132 -19.16463 -10.29291 -10.25732 -10.23446
 Alpha  occ. eigenvalues --  -10.23169 -10.22569 -10.21623 -10.20847 -10.20833
 Alpha  occ. eigenvalues --  -10.20635 -10.20626 -10.20451 -10.20273 -10.19852
 Alpha  occ. eigenvalues --  -10.19799 -10.19557 -10.19272  -1.06508  -1.05401
 Alpha  occ. eigenvalues --   -0.88155  -0.87238  -0.79542  -0.77607  -0.76678
 Alpha  occ. eigenvalues --   -0.76530  -0.73973  -0.71101  -0.66155  -0.62864
 Alpha  occ. eigenvalues --   -0.62779  -0.60774  -0.59449  -0.55440  -0.54205
 Alpha  occ. eigenvalues --   -0.50767  -0.49335  -0.49039  -0.48093  -0.47969
 Alpha  occ. eigenvalues --   -0.46399  -0.45772  -0.44144  -0.44117  -0.43839
 Alpha  occ. eigenvalues --   -0.42062  -0.39469  -0.39243  -0.38708  -0.38509
 Alpha  occ. eigenvalues --   -0.38216  -0.37514  -0.36151  -0.33726  -0.33413
 Alpha  occ. eigenvalues --   -0.30616  -0.28205  -0.26919  -0.26621  -0.26395
 Alpha  occ. eigenvalues --   -0.25649  -0.22090
 Alpha virt. eigenvalues --   -0.05468  -0.03938  -0.01586  -0.01249   0.00086
 Alpha virt. eigenvalues --    0.06122   0.07548   0.08364   0.09825   0.10771
 Alpha virt. eigenvalues --    0.11642   0.12847   0.13235   0.14004   0.14951
 Alpha virt. eigenvalues --    0.15235   0.15417   0.16580   0.16797   0.18546
 Alpha virt. eigenvalues --    0.18794   0.19337   0.20668   0.21798   0.22639
 Alpha virt. eigenvalues --    0.24957   0.26004   0.30511   0.31049   0.31131
 Alpha virt. eigenvalues --    0.32071   0.33163   0.33455   0.34182   0.36543
 Alpha virt. eigenvalues --    0.45404   0.48272   0.49901   0.51139   0.51985
 Alpha virt. eigenvalues --    0.52738   0.52949   0.54160   0.54948   0.55102
 Alpha virt. eigenvalues --    0.55469   0.56319   0.56909   0.57019   0.58996
 Alpha virt. eigenvalues --    0.59166   0.59221   0.59707   0.60117   0.60644
 Alpha virt. eigenvalues --    0.60989   0.62702   0.63227   0.63822   0.64632
 Alpha virt. eigenvalues --    0.64768   0.64868   0.66561   0.66895   0.68692
 Alpha virt. eigenvalues --    0.69604   0.70611   0.71313   0.75020   0.75409
 Alpha virt. eigenvalues --    0.76813   0.77444   0.78124   0.78488   0.79359
 Alpha virt. eigenvalues --    0.83269   0.84005   0.84732   0.85057   0.86882
 Alpha virt. eigenvalues --    0.87328   0.88364   0.88760   0.89000   0.89543
 Alpha virt. eigenvalues --    0.92421   0.92755   0.94680   0.95713   0.96440
 Alpha virt. eigenvalues --    0.97196   0.98142   1.00241   1.02191   1.03467
 Alpha virt. eigenvalues --    1.05300   1.05791   1.06364   1.07522   1.08315
 Alpha virt. eigenvalues --    1.11501   1.14218   1.15928   1.17455   1.17903
 Alpha virt. eigenvalues --    1.19569   1.21518   1.22135   1.23797   1.24222
 Alpha virt. eigenvalues --    1.27959   1.28052   1.39498   1.42031   1.42654
 Alpha virt. eigenvalues --    1.45831   1.46022   1.53671   1.54326   1.75869
 Alpha virt. eigenvalues --    1.79022   1.85588   1.91091   2.11842
          Condensed to atoms (all electrons):
               1          2          3          4          5          6
     1  C    5.003861   0.499238  -0.047508  -0.034411  -0.085725   0.517758
     2  C    0.499238   4.950096   0.507276  -0.071063  -0.045947  -0.042134
     3  C   -0.047508   0.507276   4.806278   0.527488  -0.025484  -0.023534
     4  C   -0.034411  -0.071063   0.527488   4.965955   0.412743  -0.023843
     5  C   -0.085725  -0.045947  -0.025484   0.412743   5.256987   0.384840
     6  C    0.517758  -0.042134  -0.023534  -0.023843   0.384840   4.808257
     7  H    0.342923  -0.033252   0.003954   0.000155   0.006791  -0.029367
     8  H   -0.028842   0.350765  -0.032394   0.004539   0.000428   0.003969
     9  H    0.000554   0.004296  -0.029879   0.350501  -0.029972   0.003050
    10  H    0.002088   0.000952   0.003267  -0.021305   0.360623  -0.062942
    11  C    0.007541  -0.018777   0.260109  -0.026915   0.010100   0.001473
    12  C    0.000400   0.002087  -0.112991  -0.002544   0.000587   0.000055
    13  C    0.000002   0.000024   0.000537  -0.000025   0.000002   0.000000
    14  C    0.000000  -0.000002  -0.000006   0.000001   0.000000   0.000000
    15  C    0.000000   0.000001   0.000000  -0.000002   0.000000   0.000000
    16  C    0.000000   0.000000   0.000002   0.000000   0.000000   0.000000
    17  H    0.000000   0.000003  -0.000043   0.000000   0.000000   0.000000
    18  C    0.000000   0.000000   0.000001   0.000000   0.000000   0.000000
    19  H    0.000000   0.000000  -0.000055   0.000003   0.000000   0.000000
    20  C    0.000000   0.000000   0.000000   0.000000   0.000000   0.000000
    21  H    0.000000   0.000000   0.000000   0.000000   0.000000   0.000000
    22  H    0.000000   0.000000   0.000000   0.000000   0.000000   0.000000
    23  O   -0.048273   0.003221  -0.000356   0.005206  -0.078317   0.244261
    24  C    0.004828  -0.000129  -0.000040   0.001236  -0.008982  -0.051948
    25  H   -0.000230  -0.000031   0.000011  -0.000098   0.005179  -0.011961
    26  H   -0.000346  -0.000009  -0.000004   0.000065   0.004781  -0.012467
    27  H   -0.000036   0.000005  -0.000001  -0.000021   0.000707   0.005437
    28  C    0.000000   0.000000   0.000000   0.000000   0.000000   0.000000
    29  H    0.000000   0.000000   0.000000   0.000000   0.000000   0.000000
    30  O    0.000000   0.000000   0.000000   0.000000   0.000000   0.000000
               7          8          9         10         11         12
     1  C    0.342923  -0.028842   0.000554   0.002088   0.007541   0.000400
     2  C   -0.033252   0.350765   0.004296   0.000952  -0.018777   0.002087
     3  C    0.003954  -0.032394  -0.029879   0.003267   0.260109  -0.112991
     4  C    0.000155   0.004539   0.350501  -0.021305  -0.026915  -0.002544
     5  C    0.006791   0.000428  -0.029972   0.360623   0.010100   0.000587
     6  C   -0.029367   0.003969   0.003050  -0.062942   0.001473   0.000055
     7  H    0.566960  -0.004306   0.000011  -0.000138  -0.000262  -0.000009
     8  H   -0.004306   0.560732  -0.000165   0.000012  -0.004623  -0.002146
     9  H    0.000011  -0.000165   0.565141  -0.003852  -0.005524  -0.001821
    10  H   -0.000138   0.000012  -0.003852   0.582429  -0.000265  -0.000008
    11  C   -0.000262  -0.004623  -0.005524  -0.000265   5.625813   0.536178
    12  C   -0.000009  -0.002146  -0.001821  -0.000008   0.536178   5.639618
    13  C    0.000000  -0.000057  -0.000040   0.000000  -0.109445   0.260183
    14  C    0.000000   0.000003   0.000000   0.000000  -0.000922  -0.025753
    15  C    0.000000   0.000000   0.000003   0.000000  -0.000123  -0.024060
    16  C    0.000000   0.000000   0.000000   0.000000   0.000551   0.009223
    17  H    0.000000   0.000005   0.000000   0.000000  -0.001938  -0.005432
    18  C    0.000000   0.000000   0.000000   0.000000   0.000480   0.009028
    19  H    0.000000   0.000000   0.000003   0.000000  -0.002129  -0.005292
    20  C    0.000000   0.000000   0.000000   0.000000   0.000047   0.001252
    21  H    0.000000   0.000000   0.000000   0.000000  -0.000010  -0.000290
    22  H    0.000000   0.000000   0.000000   0.000000  -0.000010  -0.000289
    23  O   -0.000634  -0.000040  -0.000037  -0.010905  -0.000003   0.000000
    24  C    0.000006   0.000002   0.000023   0.004699   0.000000   0.000000
    25  H    0.000029   0.000000  -0.000008   0.002063   0.000001   0.000000
    26  H    0.000027   0.000000   0.000001   0.002384   0.000000   0.000000
    27  H   -0.000017   0.000000   0.000000   0.000076   0.000000   0.000000
    28  C    0.000000   0.000000   0.000000   0.000000   0.000000  -0.000015
    29  H    0.000000   0.000000   0.000000   0.000000   0.000000   0.000000
    30  O    0.000000   0.000000   0.000000   0.000000   0.000000   0.000000
              13         14         15         16         17         18
     1  C    0.000002   0.000000   0.000000   0.000000   0.000000   0.000000
     2  C    0.000024  -0.000002   0.000001   0.000000   0.000003   0.000000
     3  C    0.000537  -0.000006   0.000000   0.000002  -0.000043   0.000001
     4  C   -0.000025   0.000001  -0.000002   0.000000   0.000000   0.000000
     5  C    0.000002   0.000000   0.000000   0.000000   0.000000   0.000000
     6  C    0.000000   0.000000   0.000000   0.000000   0.000000   0.000000
     7  H    0.000000   0.000000   0.000000   0.000000   0.000000   0.000000
     8  H   -0.000057   0.000003   0.000000   0.000000   0.000005   0.000000
     9  H   -0.000040   0.000000   0.000003   0.000000   0.000000   0.000000
    10  H    0.000000   0.000000   0.000000   0.000000   0.000000   0.000000
    11  C   -0.109445  -0.000922  -0.000123   0.000551  -0.001938   0.000480
    12  C    0.260183  -0.025753  -0.024060   0.009223  -0.005432   0.009028
    13  C    4.781896   0.522733   0.523101  -0.035727  -0.031466  -0.036244
    14  C    0.522733   4.934930  -0.065752   0.490261   0.351694  -0.049483
    15  C    0.523101  -0.065752   4.934221  -0.049510   0.004425   0.491358
    16  C   -0.035727   0.490261  -0.049510   4.950116  -0.032340  -0.031980
    17  H   -0.031466   0.351694   0.004425  -0.032340   0.561725   0.000457
    18  C   -0.036244  -0.049483   0.491358  -0.031980   0.000457   4.949134
    19  H   -0.031251   0.004445   0.351247   0.000451  -0.000153  -0.032363
    20  C   -0.023312  -0.053838  -0.053707   0.517802   0.004409   0.517947
    21  H    0.003048  -0.024865   0.000815   0.352696  -0.003566   0.003827
    22  H    0.003062   0.000817  -0.024904   0.003822   0.000013   0.352705
    23  O    0.000000   0.000000   0.000000   0.000000   0.000000   0.000000
    24  C    0.000000   0.000000   0.000000   0.000000   0.000000   0.000000
    25  H    0.000000   0.000000   0.000000   0.000000   0.000000   0.000000
    26  H    0.000000   0.000000   0.000000   0.000000   0.000000   0.000000
    27  H    0.000000   0.000000   0.000000   0.000000   0.000000   0.000000
    28  C   -0.000560   0.005604   0.005573  -0.031170  -0.000100  -0.030999
    29  H   -0.000033  -0.000061  -0.000063   0.001067   0.000005   0.001076
    30  O   -0.000029   0.000099   0.000092  -0.000119   0.000001  -0.000199
              19         20         21         22         23         24
     1  C    0.000000   0.000000   0.000000   0.000000  -0.048273   0.004828
     2  C    0.000000   0.000000   0.000000   0.000000   0.003221  -0.000129
     3  C   -0.000055   0.000000   0.000000   0.000000  -0.000356  -0.000040
     4  C    0.000003   0.000000   0.000000   0.000000   0.005206   0.001236
     5  C    0.000000   0.000000   0.000000   0.000000  -0.078317  -0.008982
     6  C    0.000000   0.000000   0.000000   0.000000   0.244261  -0.051948
     7  H    0.000000   0.000000   0.000000   0.000000  -0.000634   0.000006
     8  H    0.000000   0.000000   0.000000   0.000000  -0.000040   0.000002
     9  H    0.000003   0.000000   0.000000   0.000000  -0.000037   0.000023
    10  H    0.000000   0.000000   0.000000   0.000000  -0.010905   0.004699
    11  C   -0.002129   0.000047  -0.000010  -0.000010  -0.000003   0.000000
    12  C   -0.005292   0.001252  -0.000290  -0.000289   0.000000   0.000000
    13  C   -0.031251  -0.023312   0.003048   0.003062   0.000000   0.000000
    14  C    0.004445  -0.053838  -0.024865   0.000817   0.000000   0.000000
    15  C    0.351247  -0.053707   0.000815  -0.024904   0.000000   0.000000
    16  C    0.000451   0.517802   0.352696   0.003822   0.000000   0.000000
    17  H   -0.000153   0.004409  -0.003566   0.000013   0.000000   0.000000
    18  C   -0.032363   0.517947   0.003827   0.352705   0.000000   0.000000
    19  H    0.562638   0.004408   0.000013  -0.003575   0.000000   0.000000
    20  C    0.004408   5.200414  -0.040558  -0.040598   0.000000   0.000000
    21  H    0.000013  -0.040558   0.564740  -0.000165   0.000000   0.000000
    22  H   -0.003575  -0.040598  -0.000165   0.565314   0.000000   0.000000
    23  O    0.000000   0.000000   0.000000   0.000000   8.341075   0.202115
    24  C    0.000000   0.000000   0.000000   0.000000   0.202115   4.929554
    25  H    0.000000   0.000000   0.000000   0.000000  -0.043187   0.365825
    26  H    0.000000   0.000000   0.000000   0.000000  -0.043089   0.366004
    27  H    0.000000   0.000000   0.000000   0.000000  -0.031389   0.374878
    28  C   -0.000100   0.159163  -0.003645  -0.003661   0.000000   0.000000
    29  H    0.000005  -0.118152   0.000492   0.000510   0.000000   0.000000
    30  O    0.000001  -0.103894   0.000291   0.000269   0.000000   0.000000
              25         26         27         28         29         30
     1  C   -0.000230  -0.000346  -0.000036   0.000000   0.000000   0.000000
     2  C   -0.000031  -0.000009   0.000005   0.000000   0.000000   0.000000
     3  C    0.000011  -0.000004  -0.000001   0.000000   0.000000   0.000000
     4  C   -0.000098   0.000065  -0.000021   0.000000   0.000000   0.000000
     5  C    0.005179   0.004781   0.000707   0.000000   0.000000   0.000000
     6  C   -0.011961  -0.012467   0.005437   0.000000   0.000000   0.000000
     7  H    0.000029   0.000027  -0.000017   0.000000   0.000000   0.000000
     8  H    0.000000   0.000000   0.000000   0.000000   0.000000   0.000000
     9  H   -0.000008   0.000001   0.000000   0.000000   0.000000   0.000000
    10  H    0.002063   0.002384   0.000076   0.000000   0.000000   0.000000
    11  C    0.000001   0.000000   0.000000   0.000000   0.000000   0.000000
    12  C    0.000000   0.000000   0.000000  -0.000015   0.000000   0.000000
    13  C    0.000000   0.000000   0.000000  -0.000560  -0.000033  -0.000029
    14  C    0.000000   0.000000   0.000000   0.005604  -0.000061   0.000099
    15  C    0.000000   0.000000   0.000000   0.005573  -0.000063   0.000092
    16  C    0.000000   0.000000   0.000000  -0.031170   0.001067  -0.000119
    17  H    0.000000   0.000000   0.000000  -0.000100   0.000005   0.000001
    18  C    0.000000   0.000000   0.000000  -0.030999   0.001076  -0.000199
    19  H    0.000000   0.000000   0.000000  -0.000100   0.000005   0.000001
    20  C    0.000000   0.000000   0.000000   0.159163  -0.118152  -0.103894
    21  H    0.000000   0.000000   0.000000  -0.003645   0.000492   0.000291
    22  H    0.000000   0.000000   0.000000  -0.003661   0.000510   0.000269
    23  O   -0.043187  -0.043089  -0.031389   0.000000   0.000000   0.000000
    24  C    0.365825   0.366004   0.374878   0.000000   0.000000   0.000000
    25  H    0.618316  -0.059409  -0.032722   0.000000   0.000000   0.000000
    26  H   -0.059409   0.618712  -0.032970   0.000000   0.000000   0.000000
    27  H   -0.032722  -0.032970   0.551973   0.000000   0.000000   0.000000
    28  C    0.000000   0.000000   0.000000   4.928425   0.342832   0.480104
    29  H    0.000000   0.000000   0.000000   0.342832   0.699243  -0.068145
    30  O    0.000000   0.000000   0.000000   0.480104  -0.068145   8.051292
 Mulliken charges:
               1
     1  C   -0.133821
     2  C   -0.106622
     3  C    0.163372
     4  C   -0.087664
     5  C   -0.169340
     6  C    0.289095
     7  H    0.147128
     8  H    0.152117
     9  H    0.147717
    10  H    0.140824
    11  C   -0.271346
    12  C   -0.277960
    13  C    0.173604
    14  C   -0.089904
    15  C   -0.092715
    16  C   -0.145143
    17  H    0.152301
    18  C   -0.144746
    19  H    0.151704
    20  C    0.028617
    21  H    0.147176
    22  H    0.146689
    23  O   -0.539648
    24  C   -0.188070
    25  H    0.156225
    26  H    0.156317
    27  H    0.164080
    28  C    0.148550
    29  H    0.141225
    30  O   -0.359763
 Sum of Mulliken charges =   0.00000
 Mulliken charges with hydrogens summed into heavy atoms:
               1
     1  C    0.013307
     2  C    0.045496
     3  C    0.163372
     4  C    0.060053
     5  C   -0.028516
     6  C    0.289095
    11  C   -0.271346
    12  C   -0.277960
    13  C    0.173604
    14  C    0.062397
    15  C    0.058989
    16  C    0.002033
    18  C    0.001943
    20  C    0.028617
    23  O   -0.539648
    24  C    0.288551
    28  C    0.289775
    30  O   -0.359763
 Electronic spatial extent (au):  <R**2>=           9809.7911
 Charge=              0.0000 electrons
 Dipole moment (field-independent basis, Debye):
    X=             -2.5506    Y=             -1.9581    Z=             -2.3106  Tot=              3.9596
 Quadrupole moment (field-independent basis, Debye-Ang):
   XX=           -111.2208   YY=            -91.3037   ZZ=           -108.4510
   XY=              8.0439   XZ=            -13.2147   YZ=             -0.6557
 Traceless Quadrupole moment (field-independent basis, Debye-Ang):
   XX=             -7.5623   YY=             12.3548   ZZ=             -4.7925
   XY=              8.0439   XZ=            -13.2147   YZ=             -0.6557
 Octapole moment (field-independent basis, Debye-Ang**2):
  XXX=           -260.3665  YYY=              2.6755  ZZZ=              1.3731  XYY=              1.6537
  XXY=           -101.5185  XXZ=           -124.4049  XZZ=             -7.4568  YZZ=             -0.4384
  YYZ=              1.8116  XYZ=            -11.6922
 Hexadecapole moment (field-independent basis, Debye-Ang**3):
 XXXX=         -13288.8127 YYYY=           -594.7791 ZZZZ=           -172.1287 XXXY=            401.1284
 XXXZ=           -680.2229 YYYX=            -11.5059 YYYZ=             -2.2617 ZZZX=             13.8019
 ZZZY=              0.3573 XXYY=          -1945.4843 XXZZ=          -2159.7264 YYZZ=           -142.1662
 XXYZ=            -12.8071 YYXZ=              1.6338 ZZXY=              3.0439
 N-N= 1.038834550804D+03 E-N=-3.861781869240D+03  KE= 7.625641177278D+02
 Calling FoFJK, ICntrl=      2127 FMM=F ISym2X=0 I1Cent= 0 IOpClX= 0 NMat=1 NMatS=1 NMatT=0.
 ***** Axes restored to original set *****
 -------------------------------------------------------------------
 Center     Atomic                   Forces (Hartrees/Bohr)
 Number     Number              X              Y              Z
 -------------------------------------------------------------------
      1        6          -0.003242109   -0.006032206    0.011638635
      2        6          -0.008451118    0.001068544    0.008444755
      3        6           0.069610509   -0.009616352    0.012565074
      4        6           0.000620894    0.008389481   -0.009091340
      5        6           0.006793535    0.002298857   -0.010507925
      6        6          -0.013828910    0.000280188    0.000430335
      7        1           0.000962819    0.001936671   -0.006643886
      8        1          -0.003916732    0.003121282   -0.006289937
      9        1          -0.002755574   -0.001519697    0.004631930
     10        1           0.015148331   -0.003886540    0.006416622
     11        6          -0.098591667    0.002569219   -0.011058635
     12        6           0.099286517   -0.000737185    0.000666101
     13        6          -0.067500903    0.004592238    0.001525053
     14        6           0.001599276   -0.003493674    0.011931078
     15        6           0.001710495   -0.003276417   -0.014124434
     16        6          -0.000897038    0.000902733    0.008099233
     17        1           0.002574133    0.000157973   -0.005800830
     18        6          -0.001006443    0.001257108   -0.007601155
     19        1           0.002852059    0.000014740    0.006503759
     20        6           0.027336611    0.007563403   -0.000090757
     21        1          -0.003120704    0.000152535   -0.004757270
     22        1          -0.003164573    0.000148106    0.004656463
     23        8           0.030052667   -0.005019249    0.010665055
     24        6          -0.017562597   -0.000665169    0.002993859
     25        1           0.000853273    0.018326488   -0.004873670
     26        1          -0.000885663   -0.009123608   -0.016584106
     27        1          -0.014040832   -0.002024508    0.006197846
     28        6          -0.017851130   -0.053036975    0.000653592
     29        1           0.007144668    0.020044986   -0.000355805
     30        8          -0.009729792    0.025607028   -0.000239641
 -------------------------------------------------------------------
 Cartesian Forces:  Max     0.099286517 RMS     0.020752244

 GradGradGradGradGradGradGradGradGradGradGradGradGradGradGradGradGradGrad
 Berny optimization.
 FormGI is forming the generalized inverse of G from B-inverse, IUseBI=4.
 GSVD:  received Info=                   1 from GESDD.
 Internal  Forces:  Max     0.094241058 RMS     0.013707378
 Search for a local minimum.
 Step number   1 out of a maximum of  152
 All quantities printed in internal units (Hartrees-Bohrs-Radians)
 Mixed Optimization -- RFO/linear search
 Second derivative matrix not updated -- first step.
 ITU=  0
     Eigenvalues ---    0.00230   0.00230   0.00230   0.00237   0.00237
     Eigenvalues ---    0.01295   0.01295   0.01517   0.01545   0.01669
     Eigenvalues ---    0.01965   0.02079   0.02091   0.02104   0.02111
     Eigenvalues ---    0.02116   0.02117   0.02118   0.02120   0.02122
     Eigenvalues ---    0.02125   0.02126   0.02132   0.02148   0.02165
     Eigenvalues ---    0.03984   0.04701   0.10344   0.10344   0.15990
     Eigenvalues ---    0.15994   0.15995   0.15996   0.16000   0.16000
     Eigenvalues ---    0.16000   0.16000   0.16000   0.16000   0.16000
     Eigenvalues ---    0.16000   0.21985   0.21994   0.22000   0.22975
     Eigenvalues ---    0.22981   0.23987   0.23992   0.24980   0.24994
     Eigenvalues ---    0.25000   0.25000   0.25000   0.28340   0.28403
     Eigenvalues ---    0.28519   0.34254   0.34325   0.34394   0.34399
     Eigenvalues ---    0.34412   0.34413   0.34464   0.34556   0.37230
     Eigenvalues ---    0.37230   0.37230   0.37230   0.40989   0.40989
     Eigenvalues ---    0.41551   0.41751   0.42154   0.42205   0.45390
     Eigenvalues ---    0.45833   0.45928   0.45974   0.45996   0.46091
     Eigenvalues ---    0.46204   0.46785   0.80209   1.05241
 RFO step:  Lambda=-7.40887304D-02 EMin= 2.30000000D-03
 Linear search not attempted -- first point.
 Maximum step size (   0.300) exceeded in Quadratic search.
    -- Step size scaled by   0.646
 Iteration  1 RMS(Cart)=  0.12286744 RMS(Int)=  0.00913680
 Iteration  2 RMS(Cart)=  0.03875964 RMS(Int)=  0.00072341
 Iteration  3 RMS(Cart)=  0.00134363 RMS(Int)=  0.00010462
 Iteration  4 RMS(Cart)=  0.00000140 RMS(Int)=  0.00010462
 Iteration  5 RMS(Cart)=  0.00000000 RMS(Int)=  0.00010462
 Variable       Old X    -DE/DX   Delta X   Delta X   Delta X     New X
                                 (Linear)    (Quad)   (Total)
    R1        2.64067  -0.00437   0.00000  -0.00568  -0.00568   2.63499
    R2        2.64223   0.00256   0.00000   0.00309   0.00310   2.64532
    R3        2.06640  -0.00652   0.00000  -0.01007  -0.01007   2.05633
    R4        2.65214   0.00343   0.00000   0.00383   0.00382   2.65596
    R5        2.06903  -0.00803   0.00000  -0.01245  -0.01245   2.05658
    R6        2.62850   0.00508   0.00000   0.00604   0.00603   2.63452
    R7        2.91400  -0.05966   0.00000  -0.10786  -0.10786   2.80614
    R8        2.64421   0.00003   0.00000   0.00044   0.00043   2.64465
    R9        2.06401  -0.00559   0.00000  -0.00861  -0.00861   2.05540
   R10        2.64263   0.01513   0.00000   0.01874   0.01874   2.66137
   R11        2.06671  -0.01424   0.00000  -0.02202  -0.02202   2.04469
   R12        2.70231   0.00156   0.00000   0.00208   0.00208   2.70439
   R13        2.26611   0.03923   0.00000   0.02251   0.02251   2.28862
   R14        2.91266  -0.06006   0.00000  -0.10838  -0.10838   2.80428
   R15        2.64178   0.00623   0.00000   0.00762   0.00761   2.64940
   R16        2.63832   0.00735   0.00000   0.00894   0.00894   2.64726
   R17        2.64183  -0.00061   0.00000  -0.00075  -0.00075   2.64108
   R18        2.06554  -0.00631   0.00000  -0.00974  -0.00974   2.05580
   R19        2.64238  -0.00069   0.00000  -0.00082  -0.00082   2.64156
   R20        2.06786  -0.00706   0.00000  -0.01093  -0.01093   2.05692
   R21        2.64009   0.00544   0.00000   0.00647   0.00647   2.64656
   R22        2.06662  -0.00568   0.00000  -0.00878  -0.00878   2.05784
   R23        2.63983   0.00545   0.00000   0.00650   0.00650   2.64634
   R24        2.06639  -0.00562   0.00000  -0.00868  -0.00868   2.05771
   R25        2.91018  -0.02044   0.00000  -0.03677  -0.03677   2.87341
   R26        2.70231   0.02422   0.00000   0.03234   0.03234   2.73465
   R27        2.02201   0.01787   0.00000   0.02587   0.02587   2.04788
   R28        2.02201   0.01772   0.00000   0.02566   0.02566   2.04766
   R29        2.02201   0.01421   0.00000   0.02057   0.02057   2.04258
   R30        2.02201   0.02094   0.00000   0.03032   0.03032   2.05233
   R31        2.37803  -0.02702   0.00000  -0.01993  -0.01993   2.35810
    A1        2.09366   0.00507   0.00000   0.01009   0.01009   2.10376
    A2        2.09504  -0.00003   0.00000   0.00188   0.00187   2.09692
    A3        2.09447  -0.00504   0.00000  -0.01196  -0.01197   2.08251
    A4        2.09099   0.00243   0.00000   0.00363   0.00361   2.09460
    A5        2.09389  -0.00088   0.00000  -0.00083  -0.00083   2.09306
    A6        2.09796  -0.00153   0.00000  -0.00263  -0.00263   2.09533
    A7        2.09733  -0.00344   0.00000  -0.00771  -0.00773   2.08960
    A8        2.03358   0.01208   0.00000   0.02455   0.02456   2.05815
    A9        2.15206  -0.00864   0.00000  -0.01679  -0.01678   2.13528
   A10        2.09293   0.00259   0.00000   0.00623   0.00620   2.09913
   A11        2.09462  -0.00118   0.00000  -0.00274  -0.00274   2.09188
   A12        2.09507  -0.00137   0.00000  -0.00325  -0.00325   2.09182
   A13        2.09517  -0.00010   0.00000   0.00096   0.00096   2.09613
   A14        2.09387  -0.00934   0.00000  -0.02640  -0.02639   2.06747
   A15        2.09414   0.00944   0.00000   0.02544   0.02544   2.11958
   A16        2.09442  -0.00647   0.00000  -0.01254  -0.01253   2.08189
   A17        2.09448  -0.04105   0.00000  -0.08204  -0.08205   2.01243
   A18        2.09428   0.04752   0.00000   0.09458   0.09458   2.18886
   A19        2.09307   0.00039   0.00000   0.00071   0.00071   2.09377
   A20        2.09164   0.00007   0.00000   0.00005   0.00005   2.09169
   A21        2.09779  -0.00043   0.00000  -0.00056  -0.00056   2.09723
   A22        2.09144  -0.00011   0.00000  -0.00016  -0.00016   2.09128
   A23        2.09611  -0.00064   0.00000  -0.00182  -0.00182   2.09428
   A24        2.09540   0.00077   0.00000   0.00206   0.00206   2.09746
   A25        2.09320  -0.00049   0.00000  -0.00090  -0.00090   2.09230
   A26        2.09628  -0.00055   0.00000  -0.00173  -0.00173   2.09455
   A27        2.09347   0.00105   0.00000   0.00270   0.00270   2.09617
   A28        2.09342   0.00086   0.00000   0.00165   0.00165   2.09507
   A29        2.09403  -0.00077   0.00000  -0.00176  -0.00176   2.09227
   A30        2.09573  -0.00009   0.00000   0.00011   0.00011   2.09585
   A31        2.09222   0.00103   0.00000   0.00212   0.00212   2.09435
   A32        2.09489  -0.00093   0.00000  -0.00222  -0.00222   2.09267
   A33        2.09607  -0.00009   0.00000   0.00010   0.00010   2.09617
   A34        2.09766  -0.00081   0.00000  -0.00192  -0.00192   2.09574
   A35        2.09276   0.00038   0.00000   0.00091   0.00091   2.09367
   A36        2.09276   0.00043   0.00000   0.00101   0.00100   2.09376
   A37        1.91063   0.09424   0.00000   0.18794   0.18794   2.09857
   A38        1.91063   0.00947   0.00000   0.02784   0.02748   1.93812
   A39        1.91063   0.00959   0.00000   0.02810   0.02775   1.93838
   A40        1.91063  -0.01459   0.00000  -0.04359  -0.04352   1.86711
   A41        1.91063  -0.00014   0.00000   0.00621   0.00550   1.91613
   A42        1.91063  -0.00204   0.00000  -0.00887  -0.00880   1.90183
   A43        1.91063  -0.00229   0.00000  -0.00970  -0.00963   1.90101
   A44        2.09241  -0.00867   0.00000  -0.02121  -0.02121   2.07121
   A45        2.09836   0.00967   0.00000   0.02125   0.02125   2.11961
   A46        2.09241  -0.00100   0.00000  -0.00005  -0.00005   2.09237
   A47        3.17054  -0.00311   0.00000  -0.01670  -0.01671   3.15383
   A48        3.14159   0.00108   0.00000   0.00934   0.00933   3.15091
   A49        3.13228   0.00079   0.00000   0.00432   0.00429   3.13657
   A50        3.14159  -0.00016   0.00000  -0.00087  -0.00084   3.14075
    D1        0.02934  -0.00071   0.00000  -0.00539  -0.00542   0.02392
    D2       -3.14082   0.00029   0.00000   0.00150   0.00147  -3.13935
    D3       -3.10907  -0.00088   0.00000  -0.00636  -0.00638  -3.11545
    D4        0.00396   0.00012   0.00000   0.00052   0.00051   0.00447
    D5        0.00343   0.00004   0.00000   0.00016   0.00015   0.00359
    D6       -3.13978   0.00005   0.00000   0.00021   0.00022  -3.13956
    D7       -3.14135   0.00022   0.00000   0.00116   0.00114  -3.14021
    D8       -0.00137   0.00023   0.00000   0.00121   0.00120  -0.00018
    D9       -0.06456   0.00167   0.00000   0.01153   0.01150  -0.05306
   D10        3.09824   0.00139   0.00000   0.00874   0.00872   3.10696
   D11        3.10566   0.00066   0.00000   0.00460   0.00457   3.11024
   D12       -0.01472   0.00037   0.00000   0.00181   0.00179  -0.01293
   D13        0.06660  -0.00175   0.00000  -0.01184  -0.01183   0.05478
   D14       -3.11087  -0.00066   0.00000  -0.00427  -0.00424  -3.11511
   D15       -3.09770  -0.00118   0.00000  -0.00833  -0.00838  -3.10609
   D16        0.00801  -0.00009   0.00000  -0.00076  -0.00079   0.00721
   D17       -0.42138   0.00103   0.00000   0.00742   0.00743  -0.41395
   D18        2.76189   0.00003   0.00000   0.00043   0.00046   2.76235
   D19        2.74721   0.00009   0.00000   0.00061   0.00057   2.74778
   D20       -0.35271  -0.00091   0.00000  -0.00639  -0.00639  -0.35910
   D21       -0.03360   0.00089   0.00000   0.00620   0.00622  -0.02738
   D22        3.10669   0.00098   0.00000   0.00673   0.00674   3.11343
   D23       -3.13930  -0.00021   0.00000  -0.00139  -0.00138  -3.14068
   D24        0.00098  -0.00012   0.00000  -0.00085  -0.00086   0.00013
   D25       -0.00147  -0.00011   0.00000  -0.00055  -0.00053  -0.00200
   D26       -3.14144  -0.00004   0.00000  -0.00043  -0.00042   3.14132
   D27        3.14144  -0.00019   0.00000  -0.00104  -0.00104   3.14040
   D28        0.00146  -0.00011   0.00000  -0.00092  -0.00093   0.00054
   D29        3.11946  -0.00002   0.00000  -0.00026  -0.00027   3.11920
   D30       -0.02375  -0.00006   0.00000  -0.00032  -0.00032  -0.02406
   D31       -3.13968   0.00024   0.00000   0.00130   0.00129  -3.13839
   D32        0.02538  -0.00037   0.00000  -0.00278  -0.00279   0.02259
   D33       -0.03799   0.00103   0.00000   0.00726   0.00726  -0.03073
   D34        3.12707   0.00043   0.00000   0.00317   0.00318   3.13025
   D35        3.14019  -0.00027   0.00000  -0.00154  -0.00153   3.13866
   D36       -0.02477   0.00031   0.00000   0.00234   0.00235  -0.02242
   D37        0.03847  -0.00107   0.00000  -0.00751  -0.00751   0.03096
   D38       -3.12649  -0.00050   0.00000  -0.00362  -0.00363  -3.13012
   D39        0.02003  -0.00055   0.00000  -0.00384  -0.00385   0.01618
   D40       -3.12378  -0.00029   0.00000  -0.00203  -0.00204  -3.12582
   D41        3.13816   0.00003   0.00000   0.00019   0.00019   3.13835
   D42       -0.00565   0.00030   0.00000   0.00200   0.00200  -0.00365
   D43       -0.02094   0.00063   0.00000   0.00432   0.00432  -0.01662
   D44        3.12361   0.00030   0.00000   0.00207   0.00207   3.12569
   D45       -3.13921   0.00007   0.00000   0.00050   0.00050  -3.13871
   D46        0.00535  -0.00026   0.00000  -0.00175  -0.00175   0.00360
   D47       -0.00265   0.00013   0.00000   0.00071   0.00071  -0.00194
   D48        3.13894   0.00068   0.00000   0.00473   0.00473  -3.13951
   D49        3.14116  -0.00013   0.00000  -0.00109  -0.00109   3.14006
   D50       -0.00043   0.00042   0.00000   0.00292   0.00292   0.00249
   D51        0.00308  -0.00016   0.00000  -0.00094  -0.00094   0.00214
   D52       -3.13851  -0.00071   0.00000  -0.00495  -0.00495   3.13972
   D53       -3.14147   0.00017   0.00000   0.00131   0.00131  -3.14016
   D54        0.00012  -0.00038   0.00000  -0.00271  -0.00270  -0.00259
   D55       -1.58360  -0.00035   0.00000  -0.00266  -0.00266  -1.58626
   D56        1.55799  -0.00040   0.00000  -0.00305  -0.00305   1.55494
   D57        1.55799   0.00020   0.00000   0.00135   0.00135   1.55934
   D58       -1.58360   0.00015   0.00000   0.00096   0.00096  -1.58264
   D59       -1.03666  -0.00551   0.00000  -0.01928  -0.01990  -1.05656
   D60        1.05774   0.00599   0.00000   0.02259   0.02320   1.08094
   D61       -3.13105   0.00013   0.00000   0.00123   0.00123  -3.12983
         Item               Value     Threshold  Converged?
 Maximum Force            0.094241     0.000450     NO 
 RMS     Force            0.013707     0.000300     NO 
 Maximum Displacement     0.815465     0.001800     NO 
 RMS     Displacement     0.157318     0.001200     NO 
 Predicted change in Energy=-3.581678D-02
 GradGradGradGradGradGradGradGradGradGradGradGradGradGradGradGradGradGrad

                          Input orientation:                          
 ---------------------------------------------------------------------
 Center     Atomic      Atomic             Coordinates (Angstroms)
 Number     Number       Type             X           Y           Z
 ---------------------------------------------------------------------
      1          6           0       -5.226386   -0.900827    1.037050
      2          6           0       -3.832700   -0.937744    1.013226
      3          6           0       -3.136285   -0.470869   -0.114777
      4          6           0       -3.845209   -0.031157   -1.231771
      5          6           0       -5.243951    0.008396   -1.208969
      6          6           0       -5.944328   -0.427600   -0.067568
      7          1           0       -5.767001   -1.239058    1.918771
      8          1           0       -3.284630   -1.309549    1.876801
      9          1           0       -3.308337    0.307354   -2.115064
     10          1           0       -5.763549    0.379636   -2.082426
     11          6           0       -1.652056   -0.489923   -0.072753
     12          6           0       -0.441202   -0.504216   -0.054035
     13          6           0        1.042210   -0.520797   -0.017266
     14          6           0        1.712376   -0.504225    1.214079
     15          6           0        1.769397   -0.511895   -1.214578
     16          6           0        3.109579   -0.516026    1.245150
     17          1           0        1.144788   -0.500510    2.142151
     18          6           0        3.166789   -0.523943   -1.180742
     19          1           0        1.246404   -0.513991   -2.169174
     20          6           0        3.837378   -0.524715    0.048639
     21          1           0        3.630931   -0.518066    2.201198
     22          1           0        3.732251   -0.532043   -2.111266
     23          8           0       -7.367909   -0.436625    0.078657
     24          6           0       -8.213198    0.055815   -0.987704
     25          1           0       -8.006400    1.098554   -1.198227
     26          1           0       -8.085955   -0.532538   -1.888698
     27          1           0       -9.235382   -0.038225   -0.649166
     28          6           0        5.357418   -0.540289    0.084569
     29          1           0        5.888446    0.407071    0.081182
     30          8           0        5.996847   -1.611341    0.117907
 ---------------------------------------------------------------------
                    Distance matrix (angstroms):
                    1          2          3          4          5
     1  C    0.000000
     2  C    1.394378   0.000000
     3  C    2.424890   1.405474   0.000000
     4  C    2.794910   2.421171   1.394130   0.000000
     5  C    2.423138   2.797313   2.422645   1.399487   0.000000
     6  C    1.399845   2.426383   2.808774   2.432866   1.408338
     7  H    1.088163   2.156924   3.412638   3.883069   3.407710
     8  H    2.154681   1.088293   2.166050   3.407603   3.885601
     9  H    3.882581   3.407554   2.153226   1.087671   2.158005
    10  H    3.414566   3.879011   3.390799   2.138315   1.082002
    11  C    3.765147   2.476913   1.484945   2.522639   3.800134
    12  C    4.923997   3.581794   2.695973   3.632920   4.966190
    13  C    6.367990   5.000050   4.179930   5.059806   6.419970
    14  C    6.952341   5.565622   5.027572   6.090380   7.384065
    15  C    7.359489   6.043836   5.027620   5.635176   7.032623
    16  C    8.347436   6.958942   6.392359   7.398603   8.722338
    17  H    6.478684   5.122600   4.839647   6.041830   7.232218
    18  C    8.689420   7.346943   6.392796   7.029478   8.427617
    19  H    7.233707   6.008705   4.840492   5.199652   6.581762
    20  C    9.125252   7.741519   6.975785   7.804178   9.183481
    21  H    8.941689   7.569226   7.152703   8.241057   9.522076
    22  H    9.502898   8.194848   7.153076   7.644757   9.037611
    23  O    2.391677   3.690832   4.236181   3.780349   2.523335
    24  C    3.733074   4.917280   5.178267   4.375667   2.977858
    25  H    4.089311   5.143618   5.230199   4.311946   2.969795
    26  H    4.107648   5.164836   5.258311   4.320516   2.971805
    27  H    4.433899   5.723780   6.137731   5.421572   4.030767
    28  C   10.632690   9.245466   8.496325   9.310226  10.694079
    29  H   11.232264   9.857886   9.069451   9.831578  11.213995
    30  O   11.283200   9.893195   9.207003  10.059059  11.434145
                    6          7          8          9         10
     6  C    0.000000
     7  H    2.153011   0.000000
     8  H    3.410630   2.483726   0.000000
     9  H    3.417726   4.970739   4.306962   0.000000
    10  H    2.178064   4.316221   4.967279   2.456493   0.000000
    11  C    4.292727   4.632509   2.671675   2.747717   4.658250
    12  C    5.503676   5.726787   3.530124   3.623113   5.763934
    13  C    6.987340   7.115440   4.788649   4.900392   7.168962
    14  C    7.763608   7.548354   5.104686   6.078602   8.218127
    15  C    7.798993   8.194141   5.977966   5.221630   7.635003
    16  C    9.149005   8.931418   6.474147   7.290997   9.518791
    17  H    7.425883   6.954723   4.510510   6.213440   8.145356
    18  C    9.179373   9.483194   7.182378   6.594791   9.021110
    19  H    7.492052   8.150145   6.126426   4.628520   7.067215
    20  C    9.782878   9.810799   7.394670   7.512336   9.876087
    21  H    9.840786   9.429778   6.968261   8.213700  10.363954
    22  H    9.890591  10.342962   8.108380   7.090450   9.539508
    23  O    1.431099   2.567650   4.546260   4.673975   2.812567
    24  C    2.495619   4.013500   5.861774   5.039036   2.702602
    25  H    2.803511   4.493886   6.127794   4.851638   2.515757
    26  H    2.813199   4.513706   6.151052   4.856161   2.502631
    27  H    3.364656   4.479506   6.588492   6.115403   3.779216
    28  C   11.303332  11.296250   8.859393   8.980656  11.367411
    29  H   11.863109  11.913686   9.503492   9.455911  11.851200
    30  O   12.001137  11.906713   9.451487   9.759815  12.128989
                   11         12         13         14         15
    11  C    0.000000
    12  C    1.211083   0.000000
    13  C    2.695014   1.483960   0.000000
    14  C    3.602158   2.499202   1.402001   0.000000
    15  C    3.607020   2.496732   1.400871   2.429339   0.000000
    16  C    4.940721   3.781015   2.422341   1.397599   2.801137
    17  H    3.567667   2.708987   2.161947   1.087882   3.414366
    18  C    4.944701   3.779875   2.422297   2.801941   1.397853
    19  H    3.577238   2.705905   2.161586   3.415206   1.088476
    20  C    5.490886   4.279861   2.795948   2.423697   2.423309
    21  H    5.751660   4.654947   3.409261   2.157649   3.890099
    22  H    5.757437   4.653030   3.409001   3.890835   2.158066
    23  O    5.718106   6.928307   8.411086   9.151247   9.228677
    24  C    6.647071   7.847885   9.323991  10.182265  10.001299
    25  H    6.645874   7.817306   9.267918  10.141140   9.907574
    26  H    6.685396   7.861872   9.318035  10.277904   9.878402
    27  H    7.618603   8.826604  10.308301  11.114956  11.029471
    28  C    7.011420   5.800388   4.316454   3.816206   3.816082
    29  H    7.595227   6.396341   4.935244   4.421932   4.414755
    30  O    7.733023   6.534811   5.075036   4.558946   4.566796
                   16         17         18         19         20
    16  C    0.000000
    17  H    2.159921   0.000000
    18  C    2.426579   3.889814   0.000000
    19  H    3.889606   4.312544   2.159856   0.000000
    20  C    1.400501   3.410780   1.400381   3.410566   0.000000
    21  H    1.088962   2.486906   3.413646   4.978568   2.162446
    22  H    3.413723   4.978707   1.088893   2.486587   2.162475
    23  O   10.542522   8.759457  10.610069   8.903096  11.205673
    24  C   11.554996   9.883187  11.396381   9.550111  12.108980
    25  H   11.495302   9.872151  11.290392   9.442321  12.019349
    26  H   11.625888  10.072506  11.274995   9.336591  12.079702
    27  H   12.498592  10.758861  12.423057  10.602105  13.100407
    28  C    2.529884   4.688441   2.529849   4.688335   1.520544
    29  H    3.151036   5.251056   3.141123   5.240326   2.253035
    30  O    3.287355   5.373452   3.298204   5.385316   2.418442
                   21         22         23         24         25
    21  H    0.000000
    22  H    4.313677   0.000000
    23  O   11.202066  11.314522   0.000000
    24  C   12.279325  12.012565   1.447114   0.000000
    25  H   12.230986  11.886481   2.096396   1.083692   0.000000
    26  H   12.410192  11.820302   2.096491   1.083577   1.773003
    27  H   13.186995  13.059139   2.043504   1.080885   1.761854
    28  C    2.731550   2.731836  12.725750  13.625958  13.524903
    29  H    3.232138   3.215267  13.283176  14.146458  13.970748
    30  O    3.336601   3.355964  13.416340  14.350162  14.323640
                   26         27         28         29         30
    26  H    0.000000
    27  H    1.761241   0.000000
    28  C   13.587425  14.619858   0.000000
    29  H   14.143803  15.147999   1.086045   0.000000
    30  O   14.265889  15.332446   1.247852   2.021655   0.000000
 Stoichiometry    C16H12O2
 Framework group  C1[X(C16H12O2)]
 Deg. of freedom    84
 Full point group                 C1      NOp   1
 Largest Abelian subgroup         C1      NOp   1
 Largest concise Abelian subgroup C1      NOp   1
                         Standard orientation:                         
 ---------------------------------------------------------------------
 Center     Atomic      Atomic             Coordinates (Angstroms)
 Number     Number       Type             X           Y           Z
 ---------------------------------------------------------------------
      1          6           0       -3.999561    1.371962    0.269277
      2          6           0       -2.607428    1.293123    0.262921
      3          6           0       -1.974218    0.059646    0.032844
      4          6           0       -2.742472   -1.092920   -0.125189
      5          6           0       -4.139805   -1.015423   -0.121004
      6          6           0       -4.777813    0.224533    0.076153
      7          1           0       -4.491935    2.330110    0.422958
      8          1           0       -2.012108    2.191174    0.416151
      9          1           0       -2.253905   -2.052490   -0.278667
     10          1           0       -4.707042   -1.924283   -0.272476
     11          6           0       -0.490023    0.036936   -0.008541
     12          6           0        0.720172    0.002964   -0.040089
     13          6           0        2.203250   -0.025371   -0.082698
     14          6           0        2.917260    1.140520   -0.393337
     15          6           0        2.884474   -1.227538    0.147881
     16          6           0        4.313852    1.109524   -0.436404
     17          1           0        2.384846    2.070209   -0.582279
     18          6           0        4.281366   -1.255792    0.104438
     19          1           0        2.327030   -2.133587    0.378341
     20          6           0        4.996478   -0.088038   -0.188876
     21          1           0        4.869890    2.017968   -0.663096
     22          1           0        4.811757   -2.186815    0.298269
     23          8           0       -6.193261    0.434099    0.101315
     24          6           0       -7.098068   -0.674429   -0.114626
     25          1           0       -6.944634   -1.117372   -1.091688
     26          1           0       -6.978922   -1.429596    0.653271
     27          1           0       -8.101956   -0.277155   -0.062721
     28          6           0        6.516049   -0.119085   -0.233532
     29          1           0        7.005002   -0.354078   -1.174381
     30          8           0        7.202122    0.118682    0.781311
 ---------------------------------------------------------------------
 Rotational constants (GHZ):      2.4249247      0.1051799      0.1017194
 Standard basis: 6-31G (6D, 7F)
 There are   186 symmetry adapted cartesian basis functions of A   symmetry.
 There are   186 symmetry adapted basis functions of A   symmetry.
   186 basis functions,   444 primitive gaussians,   186 cartesian basis functions
    62 alpha electrons       62 beta electrons
       nuclear repulsion energy      1038.5123431041 Hartrees.
 NAtoms=   30 NActive=   30 NUniq=   30 SFac= 1.00D+00 NAtFMM=   60 NAOKFM=F Big=F
 Integral buffers will be    131072 words long.
 Raffenetti 2 integral format.
 Two-electron integral symmetry is turned on.
 Nuclear repulsion after empirical dispersion term =     1038.4910773182 Hartrees.
 One-electron integrals computed using PRISM.
 NBasis=   186 RedAO= T EigKep=  1.68D-04  NBF=   186
 NBsUse=   186 1.00D-06 EigRej= -1.00D+00 NBFU=   186
[...]
 00005763,-0.00048909,0.00000583,0.00000029,0.00040479,0.00001916,0.000
 00753,-0.00016482,0.00000917,-0.00004875,-0.00017187,-0.00001928,0.000
 04333,0.00010825,0.00000049,-0.00001991,0.00001099,0.00000429,0.000008
 79,0.00011597,-0.00001111,0.00001186,0.00001172,0.00001115,-0.00000179
 ,-0.00028311,-0.00000569,0.00003968,-0.00000740,0.00000403,-0.00000140
 ,-0.00001538,0.00000119,0.00001117,0.01770906,-0.06428634,0.02749888,0
 .02464698,0.56451508,0.00505559,0.00013690,0.00208017,-0.00035093,0.00
 039779,0.00018740,0.00179764,-0.00017611,0.00068648,-0.00177371,0.0006
 4603,-0.00168249,0.00954693,-0.00128704,0.00243668,-0.01046701,-0.0009
 3268,-0.00058679,0.00010364,-0.00025533,0.00024827,0.00030267,-0.00012
 592,0.00012354,0.00049216,0.00003060,-0.00012216,0.00117609,0.00014409
 ,-0.00047236,-0.00159076,-0.00003097,-0.00008812,0.00166074,-0.0000285
 1,-0.00000527,-0.00137568,0.00003165,0.00000161,0.00056060,-0.00005619
 ,0.00015845,0.00058511,0.00003051,-0.00015595,-0.00036846,-0.00001242,
 0.00006433,-0.00003710,0.00000915,-0.00002344,-0.00039501,0.00001805,-
 0.00004574,-0.00003932,-0.00000083,0.00001631,0.00096442,0.00002096,-0
 .00013482,0.00002544,-0.00000174,0.00000813,0.00005290,0.00000978,-0.0
 0003422,-0.06052365,0.02814080,-0.15333778,-0.08841739,0.02757985,0.47
 933561,-0.00122093,-0.00030504,-0.00074534,0.00089193,-0.00012918,-0.0
 0048712,-0.00003321,-0.00026726,0.00084272,-0.00079075,-0.00040025,-0.
 00045397,0.00027215,-0.00029143,0.00086262,0.00480678,0.00217208,-0.00
 057084,0.00005492,0.00008724,0.00016644,-0.00000375,0.00004958,0.00001
 513,-0.00001015,0.00003506,0.00000118,-0.00168607,0.00137723,0.0005578
 4,0.00001608,0.00010758,0.00006533,0.00000925,-0.00000763,-0.00000830,
 -0.00002046,-0.00000706,-0.00000465,0.00000990,-0.00000020,0.,0.000010
 08,0.00000109,-0.00000160,-0.00000510,-0.00000110,0.00000089,-0.000001
 23,0.00000026,-0.00000084,-0.00000621,0.00000277,0.00000054,-0.0000016
 1,-0.00000122,0.00000109,0.00001960,0.00000025,-0.00000264,0.00000076,
 -0.00000020,0.00000022,0.00000114,-0.00000012,-0.00000101,-0.00137067,
 0.02181994,-0.01430963,-0.06574451,-0.05482816,0.01854693,0.06664348,0
 .00087170,-0.00017981,0.00020598,-0.00037649,0.00008606,0.00004354,0.0
 0023405,-0.00004630,-0.00012337,-0.00011715,0.00007129,-0.00051252,0.0
 0064859,-0.00012548,0.00088136,-0.00306442,0.00007835,0.00019014,-0.00
 007170,-0.00003235,-0.00013889,0.00002690,-0.00000540,0.00000070,0.000
 05962,0.00001268,0.00000059,0.00020722,-0.00004071,-0.00087239,-0.0002
 1114,0.00003457,-0.00005998,0.00017729,0.00000185,0.00000110,-0.000138
 10,-0.00000177,0.00000379,0.00005313,-0.00000484,0.00001993,0.00005756
 ,0.00000609,-0.00001464,-0.00003839,-0.00000072,0.00000447,-0.00000216
 ,-0.00000126,-0.00000206,-0.00004109,0.00000375,-0.00000329,-0.0000021
 0,-0.00000256,-0.00000136,0.00009344,0.00000196,-0.00001335,0.00000166
 ,-0.00000098,0.00000043,0.00000497,-0.00000031,-0.00000337,0.00494224,
 -0.00177748,0.00848494,-0.05114028,-0.27699723,0.06470644,0.05387789,0
 .29906635,-0.00115183,-0.00026284,-0.00069762,0.00051153,-0.00023034,-
 0.00020432,-0.00044340,-0.00002930,0.00025231,0.00003432,0.00001087,-0
 .00005242,-0.00082942,-0.00065133,0.00084654,0.00604667,0.00083445,0.0
 0036545,0.00010004,0.00015158,0.00022071,-0.00004353,0.00005808,-0.000
 01161,-0.00005611,-0.00001897,0.00002952,0.00022314,-0.00003796,0.0000
 3560,0.00032114,0.00001594,0.00001411,-0.00034141,0.00000197,-0.000004
 43,0.00027037,-0.00000479,0.00000101,-0.00011160,0.00000982,-0.0000319
 3,-0.00011305,-0.00000914,0.00003372,0.00007225,0.00000338,-0.00001460
 ,0.00000775,-0.00000035,0.00000461,0.00007644,-0.00000540,0.00000955,0
 .00000801,0.00000233,-0.00000336,-0.00018711,-0.00000391,0.00002579,-0
 .00000534,0.00000093,-0.00000147,-0.00000950,-0.00000113,0.00000680,-0
 .00664121,0.02954464,-0.02078886,0.01614321,0.06225301,-0.06927034,-0.
 01281151,-0.07842022,0.08161965,-0.00122051,0.00067997,-0.00047327,0.0
 0090811,0.00033372,-0.00035703,-0.00003573,-0.00020985,0.00086049,-0.0
 0077061,0.00059622,-0.00015826,0.00025989,-0.00019583,0.00085024,0.004
 78411,-0.00170560,-0.00165840,0.00005182,-0.00016360,0.00009879,-0.000
 00584,-0.00004971,-0.00001243,-0.00001264,-0.00002984,-0.00001721,-0.0
 0174384,-0.00142748,-0.00019899,0.00001581,-0.00012622,0.00000211,0.00
 000703,0.00001065,-0.00000317,-0.00001825,0.00000902,-0.00000032,0.000
 00922,0.,-0.00000031,0.00000926,-0.00000039,-0.00000183,-0.00000450,0.
 00000063,0.00000137,-0.00000124,0.00000020,-0.00000085,-0.00000568,-0.
 00000241,-0.00000088,-0.00000159,0.00000044,0.00000162,0.00001833,0.00
 000049,-0.00000238,0.00000076,0.00000002,0.00000027,0.00000108,0.00000
 055,-0.00000078,-0.00203167,-0.01096083,-0.02347930,-0.06286560,0.0329
 7343,0.03929854,0.00235203,-0.00670512,-0.00420572,0.06364429,-0.00012
 165,-0.00036078,0.00002459,0.00002592,-0.00008724,0.00004594,0.0000287
 6,-0.00002800,-0.00007782,0.00010535,-0.00020613,0.00043706,-0.0001377
 3,0.00024888,-0.00127599,-0.00064467,0.00068139,0.00001479,0.00000948,
 0.00004610,0.00002698,0.00000048,0.00002057,0.00001824,-0.00002134,0.0
 0001080,-0.00001220,-0.00024548,-0.00036979,0.00060343,0.00001471,0.00
 001302,0.00005706,0.00002493,0.00000037,0.00000237,-0.00002137,-0.0000
 0103,-0.00000508,0.00001208,0.00000067,-0.00000005,0.00000906,0.000002
 67,-0.00000400,-0.00000442,-0.00000085,0.00000378,-0.00000216,-0.00000
 069,-0.00000114,-0.00000421,0.00000167,-0.00000154,-0.00000236,-0.0000
 0228,0.00000194,0.00001637,0.00000014,-0.00000191,0.00000130,-0.000000
 55,0.00000013,0.00000061,-0.00000043,-0.00000097,-0.00031360,0.0103403
 9,0.01090319,0.03104203,-0.16713711,-0.12430464,0.00701674,-0.01926297
 ,-0.02368650,-0.03484786,0.17354365,-0.00141382,0.00051801,-0.00051649
 ,0.00063434,0.00028475,-0.00004604,-0.00050257,-0.00012591,0.00023701,
 0.00009551,-0.00009889,0.00020353,-0.00103320,0.00031797,0.00048581,0.
 00669032,-0.00088928,-0.00020814,0.00011499,-0.00026272,0.00014499,-0.
 00005260,-0.00003741,-0.00003542,-0.00007818,0.00000934,0.00003399,0.0
 0009503,-0.00023024,0.00041934,0.00038344,-0.00003013,0.00003558,-0.00
 038362,0.00001407,-0.00000058,0.00030282,-0.00000666,-0.00000204,-0.00
 012297,0.00001419,-0.00003671,-0.00012646,-0.00000540,0.00003800,0.000
 08169,0.00000223,-0.00001510,0.00000769,-0.00000315,0.00000403,0.00008
 677,-0.00000229,0.00001107,0.00000786,-0.00000198,-0.00000366,-0.00020
 855,-0.00000454,0.00002893,-0.00000546,-0.00000017,-0.00000189,-0.0000
 1074,-0.00000289,0.00000699,-0.00885095,-0.01054016,-0.03225281,0.0354
 0924,-0.12174068,-0.18202403,0.00014811,0.00675457,0.00881190,-0.03334
 432,0.13415701,0.21015521,-0.00102610,-0.00004087,0.00022526,0.0000283
 9,0.00008520,-0.00030631,-0.00009969,0.00001455,-0.00004800,0.00008393
 ,-0.00002597,0.00009427,0.00017216,0.00004005,-0.00012741,0.00243133,0
 .00069086,-0.00261345,-0.00000260,0.00001238,-0.00004326,-0.00009566,0
 .00000330,-0.00000775,-0.00003744,-0.00000186,0.00001086,0.00015403,0.
 00001946,-0.00010774,0.00018403,-0.00000688,0.00001195,-0.00021537,0.0
 0000548,-0.00000610,0.00018881,-0.00000396,0.00000241,-0.00008047,0.00
 000685,-0.00001952,-0.00008023,-0.00000505,0.00002306,0.00005010,0.000
 00225,-0.00001118,0.00000675,-0.00000127,0.00000417,0.00005329,-0.0000
 0293,0.00000711,0.00000701,0.00000112,-0.00000443,-0.00013618,-0.00000
 285,0.00001873,-0.00000428,0.00000041,-0.00000119,-0.00000710,-0.00000
 129,0.00000506,-0.02411840,0.00078184,-0.00125499,-0.29599392,-0.01976
 126,0.08565833,-0.00418252,0.00069796,0.00304091,-0.00333373,-0.001931
 57,0.00197047,0.32598341,0.00044619,0.00026169,-0.00008106,-0.00004493
 ,-0.00004800,0.00013483,-0.00002168,-0.00002162,-0.00003888,0.00004112
 ,0.00013388,-0.00008361,-0.00008487,0.00030635,0.00044742,0.00057690,0
 .00001012,0.00139664,-0.00000819,0.00001439,0.00001634,0.00003759,-0.0
 0003020,-0.00001065,0.00001942,0.00002640,0.00000937,-0.00009674,-0.00
 038037,-0.00033819,-0.00001768,-0.00001315,-0.00001867,0.00001260,-0.0
 0000079,-0.00000050,-0.00001089,0.00000162,0.00000136,0.00000437,-0.00
 000130,0.00000107,0.00000436,-0.00000014,-0.00000093,-0.00000306,-0.00
 000010,0.00000018,-0.00000026,0.00000081,0.00000010,-0.00000303,-0.000
 00060,-0.00000043,-0.00000006,0.00000048,-0.00000002,0.00000712,0.0000
 0018,-0.00000099,0.00000026,0.00000042,0.00000016,0.00000038,0.0000003
 7,-0.00000011,0.01137654,0.00046018,0.00013488,-0.02316335,-0.05421613
 ,0.00534328,-0.03030801,-0.00088010,0.01046874,0.02182025,0.00254825,-
 0.00809701,0.01941903,0.05182779,-0.00151983,-0.00005024,0.00052257,0.
 00015968,0.00012741,-0.00047547,0.00008176,-0.00004157,0.00011040,-0.0
 0014671,-0.00007919,0.00040456,0.00032275,0.00044025,-0.00116325,-0.00
 218442,0.00138567,-0.00442852,0.00003067,0.00001489,-0.00003704,-0.000
 13069,-0.00000851,0.00000610,-0.00006541,0.00001073,-0.00000485,0.0003
 0808,-0.00034592,0.00074077,0.00005074,-0.00001941,0.00004744,-0.00003
 178,-0.00000003,0.00000142,0.00002738,0.00000093,-0.00000322,-0.000010
 71,0.00000092,-0.00000354,-0.00001065,-0.00000034,0.00000157,0.0000078
 5,-0.00000016,-0.00000005,0.00000055,0.00000016,0.00000022,0.00000748,
 -0.00000044,0.00000033,-0.00000020,-0.00000010,0.00000082,-0.00001702,
 -0.00000037,0.00000242,-0.00000062,0.00000015,-0.00000003,-0.00000091,
 0.,0.00000043,-0.03920821,0.00079026,0.00028609,0.09783844,0.00513312,
 -0.07751285,0.00818458,-0.00114595,-0.00116690,0.02279832,0.00307160,-
 0.00544146,-0.08649890,-0.00928426,0.08811420,0.00095199,-0.00025825,0
 .00086471,-0.00057172,-0.00027379,0.00101464,0.00142550,-0.00005931,0.
 00012599,-0.00066313,0.00030259,-0.00103993,0.00111436,0.00023965,-0.0
 0092848,-0.00246520,-0.00005903,0.00036775,0.00012117,0.00002071,-0.00
 008150,-0.00013676,-0.00000749,0.00003537,-0.00013133,0.00001524,-0.00
 004576,0.00014347,-0.00003468,0.00011495,-0.00465732,0.00008586,-0.000
 01183,0.00758667,-0.00012484,-0.00010683,-0.00710388,0.00012179,-0.000
 02304,0.00833553,-0.00145989,0.00511561,0.00846527,0.00103276,-0.00375
 222,-0.03530410,-0.00389702,0.01636120,0.00039010,0.00010594,-0.000385
 64,-0.02997794,0.00494921,-0.01575711,0.00064815,-0.00012898,0.0004554
 9,-0.21418215,-0.00160885,0.01431491,0.00060209,0.00066905,-0.00264400
 ,0.00024140,-0.00098147,0.00321716,0.00326895,-0.00011909,0.00021952,-
 0.00084309,0.00030215,-0.00102883,-0.00002450,-0.00009448,0.00020074,-
 0.00002330,-0.00002241,0.00022074,0.00015133,-0.00000671,0.00001466,0.
 63836854,-0.00006384,0.00001266,-0.00005126,0.00006336,0.00001491,-0.0
 0008184,-0.00019968,0.00006010,0.00000321,0.00006812,-0.00002017,0.000
 07935,-0.00007110,-0.00002039,0.00005302,0.00012722,0.00000828,-0.0000
 1754,-0.00000686,0.00000099,0.00000419,0.00000714,0.00000179,0.0000016
 1,0.00000484,0.00000433,0.00000155,-0.00000539,0.00000216,-0.00000453,
 0.00053011,0.00003807,0.00000654,-0.00083913,-0.00112300,-0.00032801,0
 .00092256,-0.00080981,0.00091734,-0.00199706,0.00588274,0.00294869,0.0
 0057509,0.00649244,0.00359015,-0.00700923,0.00435309,-0.00266243,-0.00
 051259,0.00026841,0.00008548,0.01122374,0.00046825,0.00112084,0.000393
 63,0.00051884,0.00011859,-0.00856652,-0.07980860,0.00917619,-0.0004172
 2,-0.00340233,-0.00004741,0.00079950,-0.00413030,-0.00108119,-0.000155
 83,0.00000032,-0.00000681,0.00004024,-0.00001045,0.00004657,0.00000047
 ,0.00000310,-0.00000902,0.00000120,0.00000104,-0.00001139,-0.00000719,
 0.00000083,-0.00000076,-0.04067287,0.23531173,0.00016848,-0.00003903,0
 .00012636,-0.00019117,-0.00006070,0.00022222,0.00062827,-0.00000562,0.
 00003811,-0.00020180,0.00006468,-0.00021536,0.00018400,0.00003348,-0.0
 0013824,-0.00030014,-0.00000578,0.00004530,0.00001708,0.00000247,-0.00
 000785,-0.00001682,0.00000252,-0.00000561,-0.00000876,0.00000091,0.000
 00217,0.00001034,-0.00000270,0.00000980,-0.00160054,0.00003442,0.00002
 655,0.00244799,-0.00037281,-0.00005009,-0.00288711,0.00096732,-0.00381
 472,0.00703531,0.00291532,-0.00418922,-0.00211517,0.00356166,-0.005093
 93,0.02748568,-0.00285743,0.01198024,0.00182579,0.00004675,0.00000179,
 -0.03819005,0.00151381,-0.00204366,-0.00141291,0.00015127,0.00010642,0
 .03919479,0.00874038,-0.11109403,0.00123968,-0.00011539,-0.00308817,-0
 .00315001,-0.00096959,-0.00075508,0.00035219,-0.00000918,0.00000626,-0
 .00009088,0.00003010,-0.00009884,-0.00000167,-0.00000877,0.00002214,-0
 .00000138,-0.00000418,0.00002291,0.00001625,-0.00000079,0.00000230,0.1
 1721583,-0.16687831,0.77724451,-0.00002173,0.00000720,-0.00002449,-0.0
 0000357,0.00000291,-0.00001044,0.00003590,-0.00000177,0.00000454,-0.00
 000237,-0.00000607,0.00002202,-0.00002854,-0.00000550,0.00002130,0.000
 07999,0.00000154,-0.00001049,-0.00000378,-0.00000075,0.00000298,0.0000
 0752,0.00000155,-0.00000587,0.00000578,-0.00000065,0.00000210,-0.00000
 663,0.00000140,-0.00000457,-0.00003696,0.00000716,-0.00002433,0.000045
 42,0.00001774,-0.00006707,0.00021509,0.00002429,-0.00007910,-0.0000730
 9,-0.00050279,0.00175123,0.00009440,0.00014047,-0.00053595,-0.00545348
 ,0.00073270,-0.00209904,-0.00051777,0.00000562,-0.00001205,0.00005154,
 -0.00057690,0.00196255,-0.00009520,0.00000978,-0.00002721,-0.01310928,
 -0.00742733,0.02844551,0.00015508,-0.00001743,0.00006561,-0.00026986,0
 .00045967,-0.00161066,-0.00011212,0.00000511,-0.00001131,0.00002897,-0
 .00001095,0.00003749,0.00000098,0.00000346,-0.00000694,0.00000094,0.00
 000059,-0.00000774,-0.00000533,0.00000022,-0.00000045,-0.11948293,-0.0
 2418974,0.09026202,0.12037670,-0.00002410,0.00000575,-0.00002370,0.000
 01050,0.00000195,-0.00002305,-0.00001877,0.00000773,-0.00000029,0.0000
 1267,-0.00000502,0.00002654,-0.00002888,-0.00000901,0.00002279,0.00006
 852,0.00000265,-0.00000932,-0.00000298,0.00000029,0.00000260,0.0000041
 7,0.00000268,-0.00000139,0.00000395,0.00000168,0.00000176,-0.00000454,
 0.00000142,-0.00000331,0.00007577,-0.00001825,-0.00000093,-0.00012225,
 -0.00000238,-0.00002789,0.00013226,0.00032658,0.00003293,0.00001707,-0
 .00073714,-0.00026034,-0.00020218,-0.00040039,-0.00014583,0.00021592,0
 .00272794,0.00043554,-0.00002722,-0.00035968,-0.00010018,0.00017223,-0
 .00136784,-0.00062526,-0.00002997,0.00003034,-0.00000549,0.00097201,0.
 01578688,0.00452819,0.00014051,0.00020579,-0.00000417,-0.00015404,0.00
 027453,-0.00008244,-0.00009246,0.00000252,-0.00000797,0.00002405,-0.00
 000735,0.00003047,0.00000058,0.00000246,-0.00000551,0.00000082,0.00000
 026,-0.00000670,-0.00000427,0.00000035,-0.00000033,-0.02608034,-0.0699
 3686,0.03980816,0.02405417,0.03954485,0.00008742,-0.00002562,0.0000849
 5,-0.00003758,-0.00002256,0.00007875,0.00006529,-0.00000136,0.00000807
 ,-0.00004496,0.00002771,-0.00009361,0.00010483,0.00002129,-0.00008597,
 -0.00024989,-0.00000507,0.00003525,0.00001093,0.00000246,-0.00000851,-
 0.00001522,-0.00000123,0.00000769,-0.00001435,0.00000206,-0.00000418,0
 .00001666,-0.00000369,0.00001254,-0.00026956,0.00000337,-0.00001233,0.
 00043333,-0.00003668,0.00009157,-0.00046506,0.00003966,0.00022556,-0.0
 0010759,-0.00022765,0.00001103,0.00068911,-0.00016727,0.00011029,-0.00
 025118,0.00040303,0.00142802,0.00010549,-0.00010225,-0.00002923,-0.000
 71556,-0.00057834,0.00057282,0.00011490,-0.00000797,0.00004960,-0.0015
 8670,0.00505413,-0.00090091,-0.00049922,0.00000570,0.00021790,0.000582
 95,-0.00012098,0.00064461,0.00033745,-0.00001411,0.00002786,-0.0000876
 9,0.00003261,-0.00010968,-0.00000269,-0.00001050,0.00002084,-0.0000024
 7,-0.00000186,0.00002308,0.00001560,-0.00000061,0.00000139,0.09702357,
 0.03969004,-0.20724686,-0.09210244,-0.06058922,0.24542333,-0.00045661,
 0.00012135,-0.00040559,0.00024582,0.00012935,-0.00047735,-0.00058365,0
 .00002557,-0.00005564,0.00029307,-0.00013820,0.00047555,-0.00053289,-0
 .00011375,0.00044123,0.00121099,0.00002799,-0.00017726,-0.00006114,-0.
 00001034,0.00004052,0.00007246,0.00000479,-0.00002204,0.00007091,-0.00
 001000,0.00003084,-0.00007027,0.00001722,-0.00005729,0.00195105,-0.000
 04908,0.00005304,-0.00323183,0.00005513,0.00002406,0.00288638,0.000344
 25,-0.00141765,-0.00090302,0.00067949,-0.00241416,-0.00421411,0.000097
 81,-0.00018590,0.00340912,0.00111806,-0.00425745,-0.00012197,-0.000045
 15,0.00017748,-0.00103647,-0.00232945,0.00860918,-0.00088131,0.0000413
 7,-0.00011396,-0.04791985,0.01440410,-0.04735062,-0.00087479,0.0000628
 7,-0.00019809,0.00053273,0.00018891,-0.00066409,-0.00159997,0.00005858
 ,-0.00010822,0.00041460,-0.00014773,0.00050264,0.00001260,0.00004491,-
 0.00009885,0.00001205,0.00001242,-0.00010783,-0.00007553,0.00000309,-0
 .00000642,-0.25624721,0.06995704,-0.23791529,0.01812431,0.00088680,-0.
 00313537,0.28957450,0.00011644,-0.00002651,0.00010011,-0.00008553,-0.0
 0002567,0.00013908,0.00024241,-0.00002412,0.00001620,-0.00009754,0.000
 03626,-0.00013025,0.00013349,0.00003578,-0.00010846,-0.00027486,-0.000
 01245,0.00004057,0.00001449,-0.00000164,-0.00000978,-0.00001469,-0.000
 00624,-0.00000121,-0.00001415,-0.00000446,-0.00000669,0.00001421,-0.00
 000583,0.00001128,-0.00070003,0.00001301,-0.00000676,0.00110702,0.0002
 7337,0.00000442,-0.00112632,-0.00004003,-0.00011630,0.00109883,-0.0006
 5808,-0.00009509,0.00072893,-0.00134478,-0.00096313,-0.00207318,-0.001
 33635,0.00226435,0.00014212,0.00013175,0.,-0.00162416,0.00379271,-0.00
 111538,0.00008015,-0.00032139,-0.00006881,0.01234769,0.01667798,0.0051
 9771,0.00019709,-0.00020266,-0.00088294,-0.00035990,0.00070990,0.00004
 153,0.00035601,-0.00000569,0.00002092,-0.00009170,0.00002665,-0.000110
 55,-0.00000190,-0.00000823,0.00002096,-0.00000288,-0.00000201,0.000025
 45,0.00001647,-0.00000159,0.00000150,0.06804455,-0.09418217,0.11345703
 ,0.00726430,0.01391727,0.01663491,-0.08543738,0.06259519,-0.00038749,0
 .00009966,-0.00032901,0.00029111,0.00012557,-0.00045565,-0.00083105,0.
 00002983,-0.00006975,0.00033023,-0.00012773,0.00043400,-0.00044341,-0.
 00009281,0.00036796,0.00090648,0.00002139,-0.00013994,-0.00004825,-0.0
 0000823,0.00002832,0.00004755,-0.00000242,-0.00000110,0.00004573,-0.00
 000697,0.00001541,-0.00004654,0.00001110,-0.00003916,0.00238047,-0.000
 04759,0.00001967,-0.00373703,0.00007040,0.00027671,0.00384035,-0.00020
 836,0.00041196,-0.00391331,-0.00006898,-0.00017434,-0.00244288,-0.0009
 2361,0.00185359,0.00715222,0.00206477,-0.00856840,-0.00049209,0.000011
 75,0.00012315,0.00608819,-0.00107132,0.00690178,-0.00025264,-0.0000663
 7,-0.00008611,-0.03999854,0.00506904,0.00272871,-0.00067769,-0.0008745
 9,0.00272296,0.00129819,0.00000706,0.00060836,-0.00117225,0.00003969,-
 0.00006156,0.00030152,-0.00010687,0.00035794,0.00000818,0.00003268,-0.
 00007238,0.00000751,0.00000977,-0.00007797,-0.00005421,0.00000233,-0.0
 0000585,-0.23107766,0.11333712,-0.45201543,-0.02593720,0.01703434,-0.0
 4058385,0.28881452,-0.13436067,0.48583000||-0.00000148,-0.00000054,0.0
 0000114,0.00000207,0.00000212,0.00000093,0.00000296,-0.00000696,-0.000
 00050,0.00000048,0.00000204,0.00000155,-0.00000291,0.00000004,0.000001
 52,0.00000280,-0.00000638,-0.00000151,0.00000116,-0.00000058,0.0000011
 1,0.00000044,0.00000007,0.00000049,-0.00000115,-0.00000024,0.00000080,
 -0.00000069,0.00000049,0.00000136,0.00000124,0.00000431,0.00000073,-0.
 00000419,-0.00000125,0.00000229,0.00000022,-0.00000256,-0.00000965,-0.
 00000006,0.00000152,0.00000171,-0.00000766,0.00000237,0.00000280,0.000
 00383,-0.00000090,-0.00000139,0.00000133,0.00000070,-0.00000116,0.0000
 0660,-0.00000198,0.00000198,0.00000034,0.00000017,-0.00000166,-0.00000
 684,0.00000397,-0.00000626,-0.00000035,0.00000024,-0.00000257,-0.00000
 195,0.00000080,-0.00000210,-0.00000052,0.00000761,0.00000597,0.0000013
 9,-0.00000465,-0.00000025,-0.00000093,0.00000052,0.00000276,-0.0000006
 2,0.00000009,0.00000134,-0.00000014,-0.00000197,0.00000295,0.00000575,
 -0.00000177,0.00000774,-0.00000052,0.00000093,-0.00000554,-0.00000060,
 0.00000182,-0.00000656|||@


 IT MATTERS NOT HOW DEEP YOU PLOW,
 BUT HOW LONG YOU STAY IN THE FURROW.
 Job cpu time:       0 days  0 hours  5 minutes 15.0 seconds.
 File lengths (MBytes):  RWF=    154 Int=      0 D2E=      0 Chk=      4 Scr=      1
 Normal termination of Gaussian 09 at Mon Sep 11 21:26:31 2023.
