 Entering Link 1 = C:\G09W\l1.exe PID=      5088.
  
 Copyright (c) 1988,1990,1992,1993,1995,1998,2003,2009,2013,
            Gaussian, Inc.  All Rights Reserved.
  
 This is part of the Gaussian(R) 09 program.  It is based on
 the Gaussian(R) 03 system (copyright 2003, Gaussian, Inc.),
 the Gaussian(R) 98 system (copyright 1998, Gaussian, Inc.),
 the Gaussian(R) 94 system (copyright 1995, Gaussian, Inc.),
 the Gaussian 92(TM) system (copyright 1992, Gaussian, Inc.),
 the Gaussian 90(TM) system (copyright 1990, Gaussian, Inc.),
 the Gaussian 88(TM) system (copyright 1988, Gaussian, Inc.),
 the Gaussian 86(TM) system (copyright 1986, Carnegie Mellon
 University), and the Gaussian 82(TM) system (copyright 1983,
 Carnegie Mellon University). Gaussian is a federally registered
 trademark of Gaussian, Inc.
  
 This software contains proprietary and confidential information,
 including trade secrets, belonging to Gaussian, Inc.
  
 This software is provided under written license and may be
 used, copied, transmitted, or stored only in accord with that
 written license.
  
 The following legend is applicable only to US Government
 contracts under FAR:
  
                    RESTRICTED RIGHTS LEGEND
  
 Use, reproduction and disclosure by the US Government is
 subject to restrictions as set forth in subparagraphs (a)
 and (c) of the Commercial Computer Software - Restricted
 Rights clause in FAR 52.227-19.
  
 Gaussian, Inc.
 340 Quinnipiac St., Bldg. 40, Wallingford CT 06492
  
  
 ---------------------------------------------------------------
 Warning -- This program may not be used in any manner that
 competes with the business of Gaussian, Inc. or will provide
 assistance to any competitor of Gaussian, Inc.  The licensee
 of this program is prohibited from giving any competitor of
 Gaussian, Inc. access to this program.  By using this program,
 the user acknowledges that Gaussian, Inc. is engaged in the
 business of creating and licensing software in the field of
 computational chemistry and represents and warrants to the
 licensee that it is not a competitor of Gaussian, Inc. and that
 it will not use this program in any manner prohibited above.
 ---------------------------------------------------------------
  

 Cite this work as:
 Gaussian 09, Revision D.01,
 M. J. Frisch, G. W. Trucks, H. B. Schlegel, G. E. Scuseria, 
 M. A. Robb, J. R. Cheeseman, G. Scalmani, V. Barone, B. Mennucci, 
 G. A. Petersson, H. Nakatsuji, M. Caricato, X. Li, H. P. Hratchian, 
 A. F. Izmaylov, J. Bloino, G. Zheng, J. L. Sonnenberg, M. Hada, 
 M. Ehara, K. Toyota, R. Fukuda, J. Hasegawa, M. Ishida, T. Nakajima, 
 Y. Honda, O. Kitao, H. Nakai, T. Vreven, J. A. Montgomery, Jr., 
 J. E. Peralta, F. Ogliaro, M. Bearpark, J. J. Heyd, E. Brothers, 
 K. N. Kudin, V. N. Staroverov, T. Keith, R. Kobayashi, J. Normand, 
 K. Raghavachari, A. Rendell, J. C. Burant, S. S. Iyengar, J. Tomasi, 
 M. Cossi, N. Rega, J. M. Millam, M. Klene, J. E. Knox, J. B. Cross, 
 V. Bakken, C. Adamo, J. Jaramillo, R. Gomperts, R. E. Stratmann, 
 O. Yazyev, A. J. Austin, R. Cammi, C. Pomelli, J. W. Ochterski, 
 R. L. Martin, K. Morokuma, V. G. Zakrzewski, G. A. Voth, 
 P. Salvador, J. J. Dannenberg, S. Dapprich, A. D. Daniels, 
 O. Farkas, J. B. Foresman, J. V. Ortiz, J. Cioslowski, 
 and D. J. Fox, Gaussian, Inc., Wallingford CT, 2013.
 
 ******************************************
 Gaussian 09:  EM64W-G09RevD.01 13-Apr-2013
                24-Aug-2023 
 ******************************************
 %nprocshared=2
 Will use up to    2 processors via shared memory.
 %mem=4GB
 %chk=D:\ml\molecule_1.chk
 --------------------------------------------------
 # opt freq b3lyp/6-31+g(d) empiricaldispersion=gd3
 --------------------------------------------------
 1/14=-1,18=20,19=15,26=3,38=1/1,3;
 2/9=110,12=2,17=6,18=5,40=1/2;
 3/5=1,6=6,7=11,11=2,16=1,25=1,30=1,71=1,74=-5,124=31/1,2,3;
 4//1;
 5/5=2,38=5/2;
 6/7=2,8=2,9=2,10=2,28=1/1;
 7//1,2,3,16;
 1/14=-1,18=20,19=15,26=3/3(2);
 2/9=110/2;
 99//99;
 2/9=110/2;
 3/5=1,6=6,7=11,11=2,16=1,25=1,30=1,71=1,74=-5,124=31/1,2,3;
 4/5=5,16=3,69=1/1;
 5/5=2,38=5/2;
 7//1,2,3,16;
 1/14=-1,18=20,19=15,26=3/3(-5);
 2/9=110/2;
 6/7=2,8=2,9=2,10=2,19=2,28=1/1;
 99/9=1/99;
 -------------------
 Title Card Required
 -------------------
 Symbolic Z-matrix:
 Charge =  0 Multiplicity = 1
 C                    -5.45162  -1.91607  -0.16116 
 C                    -4.05436  -1.80202  -0.17639 
 C                    -3.45215  -0.54328  -0.03465 
 C                    -4.24717   0.60027   0.12104 
 C                    -5.64343   0.48653   0.13469 
 C                    -6.2459   -0.77186  -0.00609 
 H                    -5.91193  -2.87719  -0.26806 
 H                    -3.44826  -2.67598  -0.29621 
 H                    -3.78702   1.56144   0.22962 
 H                    -6.24954   1.36077   0.2526 
 H                    -7.31225  -0.85899   0.00485 
 C                    -1.91579  -0.41089  -0.04902 
 C                    -0.71921  -0.30786  -0.06022 
 C                     0.8147   -0.18591  -0.07613 
 C                     1.42273   1.05363   0.16262 
 C                     1.60461  -1.31461  -0.32716 
 C                     2.82148   1.16118   0.16172 
 H                     0.82056   1.91879   0.34701 
 C                     3.00234  -1.20853  -0.32663 
 H                     1.14078  -2.2578   -0.52033 
 C                     3.61089   0.02794  -0.07796 
 H                     3.28579   2.10833   0.34525 
 H                     3.60526  -2.07229  -0.51604 
 C                     5.14629   0.14056  -0.06686 
 O                     5.84968  -0.88179  -0.26086 
 H                     5.61536   1.08645   0.10722 
 

 GradGradGradGradGradGradGradGradGradGradGradGradGradGradGradGradGradGrad
 Berny optimization.
 Initialization pass.
                           ----------------------------
                           !    Initial Parameters    !
                           ! (Angstroms and Degrees)  !
 --------------------------                            --------------------------
 ! Name  Definition              Value          Derivative Info.                !
 --------------------------------------------------------------------------------
 ! R1    R(1,2)                  1.402          estimate D2E/DX2                !
 ! R2    R(1,6)                  1.4015         estimate D2E/DX2                !
 ! R3    R(1,7)                  1.071          estimate D2E/DX2                !
 ! R4    R(2,3)                  1.4026         estimate D2E/DX2                !
 ! R5    R(2,8)                  1.0703         estimate D2E/DX2                !
 ! R6    R(3,4)                  1.4014         estimate D2E/DX2                !
 ! R7    R(3,12)                 1.5421         estimate D2E/DX2                !
 ! R8    R(4,5)                  1.4009         estimate D2E/DX2                !
 ! R9    R(4,9)                  1.0712         estimate D2E/DX2                !
 ! R10   R(5,6)                  1.4023         estimate D2E/DX2                !
 ! R11   R(5,10)                 1.0703         estimate D2E/DX2                !
 ! R12   R(6,11)                 1.07           estimate D2E/DX2                !
 ! R13   R(12,13)                1.2011         estimate D2E/DX2                !
 ! R14   R(13,14)                1.5388         estimate D2E/DX2                !
 ! R15   R(14,15)                1.4011         estimate D2E/DX2                !
 ! R16   R(14,16)                1.4003         estimate D2E/DX2                !
 ! R17   R(15,17)                1.4029         estimate D2E/DX2                !
 ! R18   R(15,18)                1.0701         estimate D2E/DX2                !
 ! R19   R(16,19)                1.4017         estimate D2E/DX2                !
 ! R20   R(16,20)                1.0687         estimate D2E/DX2                !
 ! R21   R(17,21)                1.4017         estimate D2E/DX2                !
 ! R22   R(17,22)                1.0707         estimate D2E/DX2                !
 ! R23   R(19,21)                1.4004         estimate D2E/DX2                !
 ! R24   R(19,23)                1.0703         estimate D2E/DX2                !
 ! R25   R(21,24)                1.5396         estimate D2E/DX2                !
 ! R26   R(24,25)                1.256          estimate D2E/DX2                !
 ! R27   R(24,26)                1.0701         estimate D2E/DX2                !
 ! A1    A(2,1,6)              119.9745         estimate D2E/DX2                !
 ! A2    A(2,1,7)              120.017          estimate D2E/DX2                !
 ! A3    A(6,1,7)              120.0085         estimate D2E/DX2                !
 ! A4    A(1,2,3)              119.9882         estimate D2E/DX2                !
 ! A5    A(1,2,8)              119.9457         estimate D2E/DX2                !
 ! A6    A(3,2,8)              120.0662         estimate D2E/DX2                !
 ! A7    A(2,3,4)              119.998          estimate D2E/DX2                !
 ! A8    A(2,3,12)             120.2556         estimate D2E/DX2                !
 ! A9    A(4,3,12)             119.7464         estimate D2E/DX2                !
 ! A10   A(3,4,5)              120.0153         estimate D2E/DX2                !
 ! A11   A(3,4,9)              119.9842         estimate D2E/DX2                !
 ! A12   A(5,4,9)              120.0005         estimate D2E/DX2                !
 ! A13   A(4,5,6)              120.0053         estimate D2E/DX2                !
 ! A14   A(4,5,10)             119.9442         estimate D2E/DX2                !
 ! A15   A(6,5,10)             120.0504         estimate D2E/DX2                !
 ! A16   A(1,6,5)              120.0187         estimate D2E/DX2                !
 ! A17   A(1,6,11)             119.9651         estimate D2E/DX2                !
 ! A18   A(5,6,11)             120.0163         estimate D2E/DX2                !
 ! A19   A(13,14,15)           120.061          estimate D2E/DX2                !
 ! A20   A(13,14,16)           120.0171         estimate D2E/DX2                !
 ! A21   A(15,14,16)           119.9218         estimate D2E/DX2                !
 ! A22   A(14,15,17)           120.0263         estimate D2E/DX2                !
 ! A23   A(14,15,18)           120.0266         estimate D2E/DX2                !
 ! A24   A(17,15,18)           119.947          estimate D2E/DX2                !
 ! A25   A(14,16,19)           120.0934         estimate D2E/DX2                !
 ! A26   A(14,16,20)           119.931          estimate D2E/DX2                !
 ! A27   A(19,16,20)           119.9756         estimate D2E/DX2                !
 ! A28   A(15,17,21)           119.9761         estimate D2E/DX2                !
 ! A29   A(15,17,22)           120.0063         estimate D2E/DX2                !
 ! A30   A(21,17,22)           120.0176         estimate D2E/DX2                !
 ! A31   A(16,19,21)           120.013          estimate D2E/DX2                !
 ! A32   A(16,19,23)           120.0388         estimate D2E/DX2                !
 ! A33   A(21,19,23)           119.9482         estimate D2E/DX2                !
 ! A34   A(17,21,19)           119.965          estimate D2E/DX2                !
 ! A35   A(17,21,24)           120.084          estimate D2E/DX2                !
 ! A36   A(19,21,24)           119.951          estimate D2E/DX2                !
 ! A37   A(21,24,25)           119.8575         estimate D2E/DX2                !
 ! A38   A(21,24,26)           120.1991         estimate D2E/DX2                !
 ! A39   A(25,24,26)           119.9434         estimate D2E/DX2                !
 ! A40   L(3,12,13,9,-1)       180.0037         estimate D2E/DX2                !
 ! A41   L(12,13,14,20,-1)     179.6207         estimate D2E/DX2                !
 ! A42   L(3,12,13,9,-2)       180.0            estimate D2E/DX2                !
 ! A43   L(12,13,14,20,-2)     180.0262         estimate D2E/DX2                !
 ! D1    D(6,1,2,3)              0.0861         estimate D2E/DX2                !
 ! D2    D(6,1,2,8)           -179.9147         estimate D2E/DX2                !
 ! D3    D(7,1,2,3)           -179.919          estimate D2E/DX2                !
 ! D4    D(7,1,2,8)              0.0802         estimate D2E/DX2                !
 ! D5    D(2,1,6,5)             -0.0434         estimate D2E/DX2                !
 ! D6    D(2,1,6,11)           179.9588         estimate D2E/DX2                !
 ! D7    D(7,1,6,5)            179.9617         estimate D2E/DX2                !
 ! D8    D(7,1,6,11)            -0.036          estimate D2E/DX2                !
 ! D9    D(1,2,3,4)             -0.054          estimate D2E/DX2                !
 ! D10   D(1,2,3,12)           179.9349         estimate D2E/DX2                !
 ! D11   D(8,2,3,4)            179.9468         estimate D2E/DX2                !
 ! D12   D(8,2,3,12)            -0.0643         estimate D2E/DX2                !
 ! D13   D(2,3,4,5)             -0.0209         estimate D2E/DX2                !
 ! D14   D(2,3,4,9)            179.9785         estimate D2E/DX2                !
 ! D15   D(12,3,4,5)           179.9902         estimate D2E/DX2                !
 ! D16   D(12,3,4,9)            -0.0104         estimate D2E/DX2                !
 ! D17   D(2,3,14,15)         -175.3187         estimate D2E/DX2                !
 ! D18   D(2,3,14,16)            4.5606         estimate D2E/DX2                !
 ! D19   D(4,3,14,15)            4.6751         estimate D2E/DX2                !
 ! D20   D(4,3,14,16)         -175.4456         estimate D2E/DX2                !
 ! D21   D(3,4,5,6)              0.0636         estimate D2E/DX2                !
 ! D22   D(3,4,5,10)          -179.934          estimate D2E/DX2                !
 ! D23   D(9,4,5,6)           -179.9358         estimate D2E/DX2                !
 ! D24   D(9,4,5,10)             0.0666         estimate D2E/DX2                !
 ! D25   D(4,5,6,1)             -0.0315         estimate D2E/DX2                !
 ! D26   D(4,5,6,11)           179.9663         estimate D2E/DX2                !
 ! D27   D(10,5,6,1)           179.9662         estimate D2E/DX2                !
 ! D28   D(10,5,6,11)           -0.0361         estimate D2E/DX2                !
 ! D29   D(13,14,15,17)        179.3366         estimate D2E/DX2                !
 ! D30   D(13,14,15,18)         -0.5878         estimate D2E/DX2                !
 ! D31   D(16,14,15,17)         -0.5568         estimate D2E/DX2                !
 ! D32   D(16,14,15,18)        179.5188         estimate D2E/DX2                !
 ! D33   D(13,14,16,19)       -179.2569         estimate D2E/DX2                !
 ! D34   D(13,14,16,20)          0.805          estimate D2E/DX2                !
 ! D35   D(15,14,16,19)          0.6365         estimate D2E/DX2                !
 ! D36   D(15,14,16,20)       -179.3015         estimate D2E/DX2                !
 ! D37   D(14,15,17,21)         -0.0099         estimate D2E/DX2                !
 ! D38   D(14,15,17,22)       -179.9341         estimate D2E/DX2                !
 ! D39   D(18,15,17,21)        179.9145         estimate D2E/DX2                !
 ! D40   D(18,15,17,22)         -0.0097         estimate D2E/DX2                !
 ! D41   D(14,16,19,21)         -0.1487         estimate D2E/DX2                !
 ! D42   D(14,16,19,23)        179.8383         estimate D2E/DX2                !
 ! D43   D(20,16,19,21)        179.7893         estimate D2E/DX2                !
 ! D44   D(20,16,19,23)         -0.2237         estimate D2E/DX2                !
 ! D45   D(15,17,21,19)          0.4979         estimate D2E/DX2                !
 ! D46   D(15,17,21,24)       -179.4443         estimate D2E/DX2                !
 ! D47   D(22,17,21,19)       -179.5779         estimate D2E/DX2                !
 ! D48   D(22,17,21,24)          0.4799         estimate D2E/DX2                !
 ! D49   D(16,19,21,17)         -0.4189         estimate D2E/DX2                !
 ! D50   D(16,19,21,24)        179.5234         estimate D2E/DX2                !
 ! D51   D(23,19,21,17)        179.594          estimate D2E/DX2                !
 ! D52   D(23,19,21,24)         -0.4637         estimate D2E/DX2                !
 ! D53   D(17,21,24,25)        178.8586         estimate D2E/DX2                !
 ! D54   D(17,21,24,26)         -1.0364         estimate D2E/DX2                !
 ! D55   D(19,21,24,25)         -1.0836         estimate D2E/DX2                !
 ! D56   D(19,21,24,26)        179.0213         estimate D2E/DX2                !
 --------------------------------------------------------------------------------
 Trust Radius=3.00D-01 FncErr=1.00D-07 GrdErr=1.00D-06
 Number of steps in this run=    136 maximum allowed number of steps=    156.
 GradGradGradGradGradGradGradGradGradGradGradGradGradGradGradGradGradGrad

                          Input orientation:                          
 ---------------------------------------------------------------------
 Center     Atomic      Atomic             Coordinates (Angstroms)
 Number     Number       Type             X           Y           Z
 ---------------------------------------------------------------------
      1          6           0       -5.451621   -1.916073   -0.161159
      2          6           0       -4.054358   -1.802023   -0.176392
      3          6           0       -3.452152   -0.543275   -0.034648
      4          6           0       -4.247172    0.600269    0.121036
      5          6           0       -5.643427    0.486532    0.134688
      6          6           0       -6.245896   -0.771858   -0.006095
      7          1           0       -5.911926   -2.877186   -0.268056
      8          1           0       -3.448257   -2.675976   -0.296210
      9          1           0       -3.787018    1.561440    0.229616
     10          1           0       -6.249537    1.360773    0.252599
     11          1           0       -7.312254   -0.858993    0.004849
     12          6           0       -1.915793   -0.410890   -0.049016
     13          6           0       -0.719208   -0.307861   -0.060216
     14          6           0        0.814701   -0.185906   -0.076134
     15          6           0        1.422734    1.053628    0.162624
     16          6           0        1.604611   -1.314606   -0.327156
     17          6           0        2.821478    1.161181    0.161720
     18          1           0        0.820561    1.918787    0.347007
     19          6           0        3.002340   -1.208534   -0.326634
     20          1           0        1.140781   -2.257802   -0.520332
     21          6           0        3.610887    0.027938   -0.077959
     22          1           0        3.285794    2.108332    0.345252
     23          1           0        3.605258   -2.072292   -0.516036
     24          6           0        5.146289    0.140564   -0.066861
     25          8           0        5.849684   -0.881786   -0.260862
     26          1           0        5.615356    1.086454    0.107221
 ---------------------------------------------------------------------
                    Distance matrix (angstroms):
                    1          2          3          4          5
     1  C    0.000000
     2  C    1.401993   0.000000
     3  C    2.428674   1.402565   0.000000
     4  C    2.803981   2.428302   1.401424   0.000000
     5  C    2.428339   2.803461   2.427110   1.400946   0.000000
     6  C    1.401479   2.427566   2.803225   2.427714   1.402261
     7  H    1.071002   2.148241   3.398839   3.874983   3.398366
     8  H    2.146895   1.070284   2.148684   3.397961   3.873745
     9  H    3.875140   3.398411   2.147509   1.071158   2.147252
    10  H    3.397879   3.873774   3.396067   2.145959   1.070312
    11  H    2.146376   3.396475   3.873193   3.396715   2.147622
    12  C    3.844507   2.554396   1.542120   2.546898   3.838538
    13  C    4.999227   3.656397   2.743184   3.647476   4.991691
    14  C    6.501346   5.131240   4.281993   5.126354   6.496463
    15  C    7.495381   6.186131   5.133569   5.688155   7.088936
    16  C    7.083766   5.681922   5.123609   6.173410   7.482744
    17  C    8.832775   7.494799   6.504011   7.090986   8.491789
    18  H    7.369169   6.154933   4.946057   5.241323   6.624165
    19  C    8.485131   7.083204   6.495251   7.485159   8.822434
    20  H    6.611018   5.226423   4.926513   6.132696   7.347510
    21  C    9.269043   7.881270   7.086232   7.881386   9.268109
    22  H    9.633001   8.333115   7.250880   7.685707   9.077750
    23  H    9.065176   7.671904   7.237172   8.319201   9.618170
    24  C   10.796034   9.404124   8.625651   9.406580  10.797142
    25  O   11.348974   9.947061   9.310742  10.212191  11.581034
    26  H   11.470186  10.095895   9.213894   9.874514  11.274788
                    6          7          8          9         10
     6  C    0.000000
     7  H    2.147687   0.000000
     8  H    3.396558   2.472032   0.000000
     9  H    3.397929   4.946141   4.283333   0.000000
    10  H    2.148267   4.283147   4.944057   2.470788   0.000000
    11  H    1.069968   2.471537   4.280483   4.282091   2.473481
    12  C    4.345335   4.701029   2.745936   2.732985   4.691599
    13  C    5.546395   5.797323   3.620963   3.604130   5.785044
    14  C    7.085215   7.247574   4.941831   4.931787   7.239043
    15  C    7.884717   8.332708   6.151994   5.234872   7.678944
    16  C    7.875793   7.677466   5.233141   6.136066   8.317537
    17  C    9.272651   9.631482   7.364988   6.620954   9.073666
    18  H    7.569614   8.288910   6.304631   4.622906   7.092713
    19  C    9.264086   9.069287   6.615475   7.353744   9.619463
    20  H    7.552183   7.084346   4.613499   6.279510   8.264884
    21  C    9.889439   9.957904   7.562427   7.561431   9.955586
    22  H    9.963536  10.479961   8.285440   7.094867   9.565039
    23  H    9.949693   9.554378   7.082714   8.270777  10.463925
    24  C   11.428827  11.464354   9.047194   9.050457  11.465419
    25  O   12.098762  11.929676   9.469535   9.953691  12.316001
    26  H   12.006475  12.195470   9.821798   9.415160  11.868954
                   11         12         13         14         15
    11  H    0.000000
    12  C    5.415302   0.000000
    13  C    6.616361   1.201064   0.000000
    14  C    8.155182   2.739881   1.538832   0.000000
    15  C    8.943324   3.651762   2.547789   1.401126   0.000000
    16  C    8.934668   3.645176   2.546552   1.400334   2.425180
    17  C   10.334323   4.995753   3.839765   2.428656   1.402872
    18  H    8.600919   3.615502   2.737641   2.146814   1.070098
    19  C   10.325837   4.990124   3.838243   2.427815   2.802125
    20  H    8.584072   3.602203   2.733777   2.143920   3.392860
    21  C   10.959403   5.544150   4.343132   2.804352   2.428566
    22  H   11.010881   5.792964   4.694937   3.398145   2.148661
    23  H   10.997067   5.784493   4.692760   3.396936   3.872385
    24  C   12.498782   7.083602   5.882617   4.343883   3.840730
    25  O   13.164640   7.782625   6.596969   5.086200   4.850057
    26  H   13.073574   7.680146   6.488362   4.969789   4.193116
                   16         17         18         19         20
    16  C    0.000000
    17  C    2.801657   0.000000
    18  H    3.394710   2.147549   0.000000
    19  C    1.401747   2.426263   3.872220   0.000000
    20  H    1.068679   3.870320   4.277699   2.145666   0.000000
    21  C    2.426863   1.401732   3.397326   1.400369   3.394366
    22  H    3.872339   1.070686   2.472510   3.396083   4.940996
    23  H    2.147638   3.395439   4.942478   1.070262   2.471453
    24  C    3.837806   2.549246   4.695241   2.546383   4.690617
    25  O    4.267596   3.677271   5.788333   2.866786   4.912689
    26  H    4.694661   2.795409   4.872405   3.504719   5.621360
                   21         22         23         24         25
    21  C    0.000000
    22  H    2.147751   0.000000
    23  H    2.145438   4.280361   0.000000
    24  C    1.539567   2.739232   2.733727   0.000000
    25  O    2.423482   3.985187   2.553403   1.256025   0.000000
    26  H    2.274344   2.554947   3.795604   1.070063   2.016026
                   26
    26  H    0.000000
 Stoichiometry    C15H10O
 Framework group  C1[X(C15H10O)]
 Deg. of freedom    72
 Full point group                 C1      NOp   1
 Largest Abelian subgroup         C1      NOp   1
 Largest concise Abelian subgroup C1      NOp   1
                         Standard orientation:                         
 ---------------------------------------------------------------------
 Center     Atomic      Atomic             Coordinates (Angstroms)
 Number     Number       Type             X           Y           Z
 ---------------------------------------------------------------------
      1          6           0        5.103720   -1.296151   -0.055916
      2          6           0        3.702363   -1.254363   -0.049870
      3          6           0        3.038035   -0.020130    0.000416
      4          6           0        3.775071    1.170966    0.045747
      5          6           0        5.175387    1.129182    0.041292
      6          6           0        5.839970   -0.104531   -0.009880
      7          1           0        5.611472   -2.238307   -0.095616
      8          1           0        3.140564   -2.164719   -0.083660
      9          1           0        3.267486    2.113457    0.083799
     10          1           0        5.737159    2.039515    0.077010
     11          1           0        6.909449   -0.136626   -0.013836
     12          6           0        1.496843    0.033084    0.005833
     13          6           0        0.296499    0.074451    0.010049
     14          6           0       -1.241728    0.117254    0.015369
     15          6           0       -1.909782    1.347901   -0.033279
     16          6           0       -1.975512   -1.074329    0.066604
     17          6           0       -3.312120    1.385523   -0.042446
     18          1           0       -1.350716    2.259805   -0.064693
     19          6           0       -3.376744   -1.037888    0.055813
     20          1           0       -1.466144   -2.012560    0.114993
     21          6           0       -4.045041    0.191315   -0.003124
     22          1           0       -3.822286    2.326074   -0.080691
     23          1           0       -3.936682   -1.949256    0.092390
     24          6           0       -5.583972    0.229204   -0.025989
     25          8           0       -6.236165   -0.844135   -0.012276
     26          1           0       -6.098925    1.166757   -0.055204
 ---------------------------------------------------------------------
 Rotational constants (GHZ):      2.6063307      0.1534618      0.1449550
 Standard basis: 6-31+G(d) (6D, 7F)
 There are   324 symmetry adapted cartesian basis functions of A   symmetry.
 There are   324 symmetry adapted basis functions of A   symmetry.
   324 basis functions,   552 primitive gaussians,   324 cartesian basis functions
    54 alpha electrons       54 beta electrons
       nuclear repulsion energy       840.2344367754 Hartrees.
 NAtoms=   26 NActive=   26 NUniq=   26 SFac= 1.00D+00 NAtFMM=   60 NAOKFM=F Big=F
 Integral buffers will be    131072 words long.
 Raffenetti 2 integral format.
 Two-electron integral symmetry is turned on.
 Nuclear repulsion after empirical dispersion term =      840.2173013527 Hartrees.
 One-electron integrals computed using PRISM.
 NBasis=   324 RedAO= T EigKep=  2.39D-06  NBF=   324
 NBsUse=   320 1.00D-06 EigRej=  7.16D-07 NBFU=   320
 ExpMin= 4.38D-02 ExpMax= 5.48D+03 ExpMxC= 8.25D+02 IAcc=2 IRadAn=         4 AccDes= 0.00D+00
 Harris functional with IExCor=  402 and IRadAn=       4 diagonalized for initial guess.
 HarFok:  IExCor=  402 AccDes= 0.00D+00 IRadAn=         4 IDoV= 1 UseB2=F ITyADJ=14
 ICtDFT=  3500011 ScaDFX=  1.000000  1.000000  1.000000  1.000000
 FoFCou: FMM=F IPFlag=           0 FMFlag=      100000 FMFlg1=           0
         NFxFlg=           0 DoJE=T BraDBF=F KetDBF=T FulRan=T
         wScrn=  0.000000 ICntrl=     500 IOpCl=  0 I1Cent=   200000004 NGrid=           0
         NMat0=    1 NMatS0=      1 NMatT0=    0 NMatD0=    1 NMtDS0=    0 NMtDT0=    0
 Petite list used in FoFCou.
 Requested convergence on RMS density matrix=1.00D-08 within 128 cycles.
 Requested convergence on MAX density matrix=1.00D-06.
 Requested convergence on             energy=1.00D-06.
 No special actions if energy rises.
 SCF Done:  E(RB3LYP) =  -652.807715540     A.U. after   16 cycles
            NFock= 16  Conv=0.32D-08     -V/T= 2.0104

 **********************************************************************

            Population analysis using the SCF density.

 **********************************************************************

 Orbital symmetries:
       Occupied  (A) (A) (A) (A) (A) (A) (A) (A) (A) (A) (A) (A)
                 (A) (A) (A) (A) (A) (A) (A) (A) (A) (A) (A) (A)
                 (A) (A) (A) (A) (A) (A) (A) (A) (A) (A) (A) (A)
                 (A) (A) (A) (A) (A) (A) (A) (A) (A) (A) (A) (A)
                 (A) (A) (A) (A) (A) (A)
       Virtual   (A) (A) (A) (A) (A) (A) (A) (A) (A) (A) (A) (A)
                 (A) (A) (A) (A) (A) (A) (A) (A) (A) (A) (A) (A)
                 (A) (A) (A) (A) (A) (A) (A) (A) (A) (A) (A) (A)
                 (A) (A) (A) (A) (A) (A) (A) (A) (A) (A) (A) (A)
                 (A) (A) (A) (A) (A) (A) (A) (A) (A) (A) (A) (A)
                 (A) (A) (A) (A) (A) (A) (A) (A) (A) (A) (A) (A)
                 (A) (A) (A) (A) (A) (A) (A) (A) (A) (A) (A) (A)
                 (A) (A) (A) (A) (A) (A) (A) (A) (A) (A) (A) (A)
                 (A) (A) (A) (A) (A) (A) (A) (A) (A) (A) (A) (A)
                 (A) (A) (A) (A) (A) (A) (A) (A) (A) (A) (A) (A)
                 (A) (A) (A) (A) (A) (A) (A) (A) (A) (A) (A) (A)
                 (A) (A) (A) (A) (A) (A) (A) (A) (A) (A) (A) (A)
                 (A) (A) (A) (A) (A) (A) (A) (A) (A) (A) (A) (A)
                 (A) (A) (A) (A) (A) (A) (A) (A) (A) (A) (A) (A)
                 (A) (A) (A) (A) (A) (A) (A) (A) (A) (A) (A) (A)
                 (A) (A) (A) (A) (A) (A) (A) (A) (A) (A) (A) (A)
                 (A) (A) (A) (A) (A) (A) (A) (A) (A) (A) (A) (A)
                 (A) (A) (A) (A) (A) (A) (A) (A) (A) (A) (A) (A)
                 (A) (A) (A) (A) (A) (A) (A) (A) (A) (A) (A) (A)
                 (A) (A) (A) (A) (A) (A) (A) (A) (A) (A) (A) (A)
                 (A) (A) (A) (A) (A) (A) (A) (A) (A) (A) (A) (A)
                 (A) (A) (A) (A) (A) (A) (A) (A) (A) (A) (A) (A)
                 (A) (A)
 The electronic state is 1-A.
 Alpha  occ. eigenvalues --  -19.16465 -10.29504 -10.25224 -10.24276 -10.22561
 Alpha  occ. eigenvalues --  -10.22348 -10.21993 -10.21824 -10.21681 -10.21323
 Alpha  occ. eigenvalues --  -10.21253 -10.21235 -10.21046 -10.21021 -10.21019
 Alpha  occ. eigenvalues --  -10.20965  -1.03648  -0.88516  -0.87451  -0.80194
 Alpha  occ. eigenvalues --   -0.78099  -0.77348  -0.76519  -0.74082  -0.66761
 Alpha  occ. eigenvalues --   -0.63771  -0.62691  -0.62580  -0.59779  -0.55913
 Alpha  occ. eigenvalues --   -0.54238  -0.50760  -0.49200  -0.48007  -0.46842
 Alpha  occ. eigenvalues --   -0.46456  -0.45121  -0.44850  -0.44214  -0.43865
 Alpha  occ. eigenvalues --   -0.41287  -0.39221  -0.39111  -0.37934  -0.37494
 Alpha  occ. eigenvalues --   -0.37242  -0.36825  -0.32583  -0.29289  -0.28489
 Alpha  occ. eigenvalues --   -0.27772  -0.27184  -0.27015  -0.24192
 Alpha virt. eigenvalues --   -0.08843  -0.04092  -0.03441  -0.02765  -0.00358
 Alpha virt. eigenvalues --    0.00162   0.00466   0.01467   0.01867   0.02739
 Alpha virt. eigenvalues --    0.03324   0.03630   0.04200   0.04673   0.04781
 Alpha virt. eigenvalues --    0.05016   0.05655   0.06375   0.06567   0.06845
 Alpha virt. eigenvalues --    0.07850   0.08131   0.08819   0.08908   0.09080
 Alpha virt. eigenvalues --    0.09167   0.09902   0.10641   0.11736   0.11989
 Alpha virt. eigenvalues --    0.12486   0.12823   0.13913   0.14035   0.14144
 Alpha virt. eigenvalues --    0.14309   0.14718   0.14978   0.15130   0.15658
 Alpha virt. eigenvalues --    0.16031   0.16407   0.16613   0.16898   0.17950
 Alpha virt. eigenvalues --    0.18798   0.18881   0.19264   0.19504   0.19972
 Alpha virt. eigenvalues --    0.20808   0.21188   0.21344   0.21374   0.21834
 Alpha virt. eigenvalues --    0.22119   0.22898   0.23328   0.23590   0.24534
 Alpha virt. eigenvalues --    0.24891   0.24936   0.25401   0.26152   0.26515
 Alpha virt. eigenvalues --    0.26794   0.27102   0.27267   0.27359   0.27985
 Alpha virt. eigenvalues --    0.28460   0.29148   0.29838   0.30775   0.31946
 Alpha virt. eigenvalues --    0.32529   0.32740   0.32935   0.33004   0.33664
 Alpha virt. eigenvalues --    0.35102   0.35577   0.37073   0.38423   0.38835
 Alpha virt. eigenvalues --    0.39649   0.41060   0.41733   0.43677   0.47307
 Alpha virt. eigenvalues --    0.47983   0.55278   0.56886   0.58817   0.59232
 Alpha virt. eigenvalues --    0.63592   0.64826   0.65851   0.66098   0.66622
 Alpha virt. eigenvalues --    0.67290   0.68903   0.69103   0.69873   0.70092
 Alpha virt. eigenvalues --    0.70694   0.70754   0.72442   0.72562   0.72737
 Alpha virt. eigenvalues --    0.73370   0.74266   0.74533   0.75208   0.75571
 Alpha virt. eigenvalues --    0.76904   0.77084   0.78348   0.78571   0.79212
 Alpha virt. eigenvalues --    0.80683   0.81842   0.83068   0.84231   0.85989
 Alpha virt. eigenvalues --    0.86511   0.88524   0.89143   0.89360   0.91792
 Alpha virt. eigenvalues --    0.93616   0.94467   0.95284   0.95976   0.96303
 Alpha virt. eigenvalues --    0.97502   0.99883   1.01163   1.01640   1.04843
 Alpha virt. eigenvalues --    1.07451   1.07701   1.08429   1.10613   1.12024
 Alpha virt. eigenvalues --    1.13232   1.15899   1.16121   1.17850   1.19088
 Alpha virt. eigenvalues --    1.20394   1.21644   1.22217   1.22392   1.23261
 Alpha virt. eigenvalues --    1.23982   1.26974   1.27443   1.29068   1.29298
 Alpha virt. eigenvalues --    1.32429   1.32560   1.33580   1.33758   1.38149
 Alpha virt. eigenvalues --    1.39110   1.41300   1.41796   1.42736   1.43531
 Alpha virt. eigenvalues --    1.43765   1.44213   1.45340   1.47199   1.47879
 Alpha virt. eigenvalues --    1.48847   1.49934   1.51273   1.54259   1.55394
 Alpha virt. eigenvalues --    1.58411   1.62578   1.67565   1.73850   1.74607
 Alpha virt. eigenvalues --    1.77967   1.80030   1.81223   1.82807   1.85237
 Alpha virt. eigenvalues --    1.86684   1.88156   1.90382   1.90810   1.91862
 Alpha virt. eigenvalues --    1.95575   1.96334   1.97806   1.99066   1.99618
 Alpha virt. eigenvalues --    2.02951   2.06144   2.06906   2.08462   2.08740
 Alpha virt. eigenvalues --    2.09629   2.11166   2.12256   2.13277   2.14180
 Alpha virt. eigenvalues --    2.15535   2.16998   2.18704   2.20096   2.26636
 Alpha virt. eigenvalues --    2.27707   2.28413   2.28631   2.29787   2.31581
 Alpha virt. eigenvalues --    2.34214   2.37515   2.47290   2.47808   2.49785
 Alpha virt. eigenvalues --    2.52741   2.54240   2.59131   2.59798   2.61247
 Alpha virt. eigenvalues --    2.62241   2.62839   2.66045   2.68518   2.72628
 Alpha virt. eigenvalues --    2.72929   2.74190   2.78234   2.79349   2.80050
 Alpha virt. eigenvalues --    2.82935   2.89691   2.94232   2.95947   3.03801
 Alpha virt. eigenvalues --    3.09353   3.16748   3.29385   3.38337   3.54034
 Alpha virt. eigenvalues --    4.12848   4.17159   4.20426   4.22385   4.23042
 Alpha virt. eigenvalues --    4.23842   4.25587   4.31452   4.33954   4.38385
 Alpha virt. eigenvalues --    4.40006   4.43211   4.54056   4.61950   4.73632
 Alpha virt. eigenvalues --    4.87542
          Condensed to atoms (all electrons):
               1          2          3          4          5          6
     1  C    8.249163  -6.101760   1.188853   3.846060  -1.408420   0.498512
     2  C   -6.101760  22.360522  -3.015242 -11.719988   3.649804  -0.199413
     3  C    1.188853  -3.015242   9.298456  -1.458990   0.665288   0.214944
     4  C    3.846060 -11.719988  -1.458990  21.468484  -5.614452  -0.448424
     5  C   -1.408420   3.649804   0.665288  -5.614452   8.018977   0.591315
     6  C    0.498512  -0.199413   0.214944  -0.448424   0.591315   5.410237
     7  H    0.302727  -0.027175   0.007214   0.001231   0.003579   0.011335
     8  H   -0.066725   0.320523  -0.017353   0.020888  -0.003944   0.004874
     9  H   -0.004686   0.021540  -0.016840   0.317110  -0.064988   0.005123
    10  H    0.003751   0.001372   0.007294  -0.030764   0.305132   0.011933
    11  H   -0.009590   0.010754   0.000009   0.009128  -0.008529   0.290490
    12  C   -0.381236   1.171275  -1.383812   0.238158  -0.078078  -0.181199
    13  C   -0.028059  -0.117745   0.258988  -0.119102  -0.026642   0.020080
    14  C    0.023231  -0.023024   0.256290  -0.262283   0.093857  -0.016363
    15  C    0.033427  -0.290577  -0.102282   0.360516  -0.043945   0.000428
    16  C   -0.044462   0.358499  -0.218882  -0.277293   0.030472   0.001115
    17  C   -0.015564   0.057971   0.033625  -0.073612   0.019764   0.000701
    18  H    0.000024  -0.000297   0.000175   0.002338   0.000001   0.000020
    19  C    0.026704  -0.098672   0.116542   0.064009  -0.018396   0.000390
    20  H   -0.000052   0.000051   0.002291   0.000528   0.000015   0.000015
    21  C    0.001751  -0.002106  -0.020341   0.004148   0.002353  -0.000483
    22  H   -0.000001  -0.000028  -0.000093   0.000074   0.000002   0.000000
    23  H    0.000001   0.000046  -0.000074  -0.000017  -0.000001   0.000000
    24  C    0.000046   0.000058   0.000977  -0.000518   0.000223  -0.000027
    25  O    0.000000  -0.000004  -0.000013   0.000005   0.000000   0.000000
    26  H    0.000000   0.000000   0.000001   0.000000   0.000000   0.000000
               7          8          9         10         11         12
     1  C    0.302727  -0.066725  -0.004686   0.003751  -0.009590  -0.381236
     2  C   -0.027175   0.320523   0.021540   0.001372   0.010754   1.171275
     3  C    0.007214  -0.017353  -0.016840   0.007294   0.000009  -1.383812
     4  C    0.001231   0.020888   0.317110  -0.030764   0.009128   0.238158
     5  C    0.003579  -0.003944  -0.064988   0.305132  -0.008529  -0.078078
     6  C    0.011335   0.004874   0.005123   0.011933   0.290490  -0.181199
     7  H    0.530973  -0.004775   0.000016  -0.000168  -0.004950  -0.004397
     8  H   -0.004775   0.526939  -0.000151   0.000016  -0.000152   0.024051
     9  H    0.000016  -0.000151   0.527848  -0.004821  -0.000151   0.023270
    10  H   -0.000168   0.000016  -0.004821   0.531713  -0.004948  -0.004374
    11  H   -0.004950  -0.000152  -0.000151  -0.004948   0.536003  -0.000097
    12  C   -0.004397   0.024051   0.023270  -0.004374  -0.000097   6.641612
    13  C   -0.000372  -0.000088   0.001466  -0.000353   0.000141   0.469398
    14  C   -0.000109   0.000679   0.000733  -0.000100  -0.000015  -0.432175
    15  C   -0.000026   0.000187   0.000863   0.000069   0.000000   0.082176
    16  C    0.000068   0.000914   0.000244  -0.000028  -0.000002   0.066978
    17  C   -0.000001  -0.000026   0.000051   0.000003   0.000000  -0.031024
    18  H    0.000000   0.000000   0.000000   0.000000   0.000000  -0.002108
    19  C    0.000003   0.000031  -0.000020  -0.000001   0.000000  -0.127218
    20  H    0.000000   0.000000   0.000000   0.000000   0.000000  -0.006831
    21  C    0.000000  -0.000002  -0.000018   0.000000   0.000000  -0.072336
    22  H    0.000000   0.000000   0.000000   0.000000   0.000000   0.000802
    23  H    0.000000   0.000000   0.000000   0.000000   0.000000   0.000791
    24  C    0.000000  -0.000001  -0.000001   0.000000   0.000000  -0.023356
    25  O    0.000000   0.000000   0.000000   0.000000   0.000000   0.000034
    26  H    0.000000   0.000000   0.000000   0.000000   0.000000   0.000018
              13         14         15         16         17         18
     1  C   -0.028059   0.023231   0.033427  -0.044462  -0.015564   0.000024
     2  C   -0.117745  -0.023024  -0.290577   0.358499   0.057971  -0.000297
     3  C    0.258988   0.256290  -0.102282  -0.218882   0.033625   0.000175
     4  C   -0.119102  -0.262283   0.360516  -0.277293  -0.073612   0.002338
     5  C   -0.026642   0.093857  -0.043945   0.030472   0.019764   0.000001
     6  C    0.020080  -0.016363   0.000428   0.001115   0.000701   0.000020
     7  H   -0.000372  -0.000109  -0.000026   0.000068  -0.000001   0.000000
     8  H   -0.000088   0.000679   0.000187   0.000914  -0.000026   0.000000
     9  H    0.001466   0.000733   0.000863   0.000244   0.000051   0.000000
    10  H   -0.000353  -0.000100   0.000069  -0.000028   0.000003   0.000000
    11  H    0.000141  -0.000015   0.000000  -0.000002   0.000000   0.000000
    12  C    0.469398  -0.432175   0.082176   0.066978  -0.031024  -0.002108
    13  C    5.636225   0.288460  -0.103468  -0.455510   0.082533   0.025961
    14  C    0.288460   6.136796  -0.448534  -0.125640   0.775871  -0.017284
    15  C   -0.103468  -0.448534   9.399779  -1.538706  -2.033570   0.385109
    16  C   -0.455510  -0.125640  -1.538706  10.635076   0.089422   0.023450
    17  C    0.082533   0.775871  -2.033570   0.089422   9.492899  -0.124033
    18  H    0.025961  -0.017284   0.385109   0.023450  -0.124033   0.517580
    19  C    0.267306   0.307475   0.062700  -3.256193  -1.068051  -0.008258
    20  H    0.024896  -0.055135   0.018367   0.375485  -0.017922  -0.000152
    21  C   -0.191478  -0.216409   0.176928   0.127576  -1.016203   0.000011
    22  H   -0.005545   0.033711  -0.049740   0.004920   0.260492  -0.004117
    23  H   -0.004467   0.022598   0.000187  -0.108475   0.042710   0.000015
    24  C    0.024470  -0.303026   0.142733   0.261402   0.272893   0.003344
    25  O   -0.001577  -0.010875   0.034828   0.107297   0.007252   0.000026
    26  H    0.000326   0.000013   0.042565  -0.006251   0.115278   0.000005
              19         20         21         22         23         24
     1  C    0.026704  -0.000052   0.001751  -0.000001   0.000001   0.000046
     2  C   -0.098672   0.000051  -0.002106  -0.000028   0.000046   0.000058
     3  C    0.116542   0.002291  -0.020341  -0.000093  -0.000074   0.000977
     4  C    0.064009   0.000528   0.004148   0.000074  -0.000017  -0.000518
     5  C   -0.018396   0.000015   0.002353   0.000002  -0.000001   0.000223
     6  C    0.000390   0.000015  -0.000483   0.000000   0.000000  -0.000027
     7  H    0.000003   0.000000   0.000000   0.000000   0.000000   0.000000
     8  H    0.000031   0.000000  -0.000002   0.000000   0.000000  -0.000001
     9  H   -0.000020   0.000000  -0.000018   0.000000   0.000000  -0.000001
    10  H   -0.000001   0.000000   0.000000   0.000000   0.000000   0.000000
    11  H    0.000000   0.000000   0.000000   0.000000   0.000000   0.000000
    12  C   -0.127218  -0.006831  -0.072336   0.000802   0.000791  -0.023356
    13  C    0.267306   0.024896  -0.191478  -0.005545  -0.004467   0.024470
    14  C    0.307475  -0.055135  -0.216409   0.033711   0.022598  -0.303026
    15  C    0.062700   0.018367   0.176928  -0.049740   0.000187   0.142733
    16  C   -3.256193   0.375485   0.127576   0.004920  -0.108475   0.261402
    17  C   -1.068051  -0.017922  -1.016203   0.260492   0.042710   0.272893
    18  H   -0.008258  -0.000152   0.000011  -0.004117   0.000015   0.003344
    19  C    9.815291  -0.070947   0.606202   0.024327   0.306668  -0.518225
    20  H   -0.070947   0.515882   0.015331   0.000017  -0.004050   0.001871
    21  C    0.606202   0.015331   7.326584   0.048148   0.054784  -1.048344
    22  H    0.024327   0.000017   0.048148   0.529368  -0.000149  -0.034727
    23  H    0.306668  -0.004050   0.054784  -0.000149   0.486823  -0.025487
    24  C   -0.518225   0.001871  -1.048344  -0.034727  -0.025487   6.225127
    25  O   -0.188599   0.000168  -0.167490   0.000359   0.005931   0.513506
    26  H   -0.060205   0.000002  -0.263527   0.004194   0.000071   0.451677
              25         26
     1  C    0.000000   0.000000
     2  C   -0.000004   0.000000
     3  C   -0.000013   0.000001
     4  C    0.000005   0.000000
     5  C    0.000000   0.000000
     6  C    0.000000   0.000000
     7  H    0.000000   0.000000
     8  H    0.000000   0.000000
     9  H    0.000000   0.000000
    10  H    0.000000   0.000000
    11  H    0.000000   0.000000
    12  C    0.000034   0.000018
    13  C   -0.001577   0.000326
    14  C   -0.010875   0.000013
    15  C    0.034828   0.042565
    16  C    0.107297  -0.006251
    17  C    0.007252   0.115278
    18  H    0.000026   0.000005
    19  C   -0.188599  -0.060205
    20  H    0.000168   0.000002
    21  C   -0.167490  -0.263527
    22  H    0.000359   0.004194
    23  H    0.005931   0.000071
    24  C    0.513506   0.451677
    25  O    8.132851  -0.062098
    26  H   -0.062098   0.599555
 Mulliken charges:
               1
     1  C   -0.113693
     2  C   -0.356384
     3  C    0.182975
     4  C   -0.327235
     5  C   -0.113390
     6  C   -0.215602
     7  H    0.184826
     8  H    0.194114
     9  H    0.193412
    10  H    0.184273
    11  H    0.181909
    12  C    0.009679
    13  C   -0.045846
    14  C   -0.028743
    15  C   -0.130016
    16  C   -0.051475
    17  C   -0.871460
    18  H    0.198190
    19  C   -0.182864
    20  H    0.200168
    21  C    0.634920
    22  H    0.187986
    23  H    0.222093
    24  C    0.055388
    25  O   -0.371601
    26  H    0.178377
 Sum of Mulliken charges =   0.00000
 Mulliken charges with hydrogens summed into heavy atoms:
               1
     1  C    0.071133
     2  C   -0.162271
     3  C    0.182975
     4  C   -0.133823
     5  C    0.070883
     6  C   -0.033693
    12  C    0.009679
    13  C   -0.045846
    14  C   -0.028743
    15  C    0.068174
    16  C    0.148693
    17  C   -0.683474
    19  C    0.039229
    21  C    0.634920
    24  C    0.233764
    25  O   -0.371601
 Electronic spatial extent (au):  <R**2>=           6864.1504
 Charge=              0.0000 electrons
 Dipole moment (field-independent basis, Debye):
    X=              3.5198    Y=              2.0058    Z=             -0.0119  Tot=              4.0512
 Quadrupole moment (field-independent basis, Debye-Ang):
   XX=            -99.3089   YY=            -82.2723   ZZ=            -98.9884
   XY=            -13.8319   XZ=              0.0567   YZ=             -0.0690
 Traceless Quadrupole moment (field-independent basis, Debye-Ang):
   XX=             -5.7857   YY=             11.2509   ZZ=             -5.4652
   XY=            -13.8319   XZ=              0.0567   YZ=             -0.0690
 Octapole moment (field-independent basis, Debye-Ang**2):
  XXX=            249.8052  YYY=             -0.2994  ZZZ=             -0.1296  XYY=              3.9938
  XXY=             85.9094  XXZ=             -0.9112  XZZ=            -20.1179  YZZ=             -1.5552
  YYZ=             -0.0486  XYZ=              2.8884
 Hexadecapole moment (field-independent basis, Debye-Ang**3):
 XXXX=          -9351.6727 YYYY=           -597.2758 ZZZZ=           -120.7303 XXXY=           -553.3424
 XXXZ=              1.7492 YYYX=             -4.1225 YYYZ=             -0.1805 ZZZX=              0.8884
 ZZZY=             -0.0343 XXYY=          -1449.8924 XXZZ=          -1578.6252 YYZZ=           -142.2743
 XXYZ=              2.7664 YYXZ=             -0.2243 ZZXY=              8.8359
 N-N= 8.402173013527D+02 E-N=-3.193195192982D+03  KE= 6.461202499116D+02
 Calling FoFJK, ICntrl=      2127 FMM=F ISym2X=0 I1Cent= 0 IOpClX= 0 NMat=1 NMatS=1 NMatT=0.
 ***** Axes restored to original set *****
 -------------------------------------------------------------------
 Center     Atomic                   Forces (Hartrees/Bohr)
 Number     Number              X              Y              Z
 -------------------------------------------------------------------
      1        6           0.008349513    0.014689863    0.001551913
      2        6          -0.009835590    0.005729999    0.000890550
      3        6           0.055832824    0.004517688   -0.000519311
      4        6          -0.008863342   -0.006261674   -0.000540575
      5        6           0.009780787   -0.013649375   -0.001838399
      6        6           0.013733427    0.001520102   -0.000074336
      7        1          -0.004123316   -0.010263058   -0.001185890
      8        1           0.007110580   -0.008544341   -0.001134059
      9        1           0.005227909    0.009067041    0.000967332
     10        1          -0.006171615    0.009794926    0.001331652
     11        1          -0.012122729   -0.000912264    0.000135903
     12        6          -0.085710160   -0.007959925    0.000672278
     13        6           0.085900819    0.007064434   -0.001218866
     14        6          -0.058234905   -0.002169921    0.001028573
     15        6           0.012635145   -0.003018304   -0.000666465
     16        6           0.015389943    0.006650442    0.001228514
     17        6          -0.012652840   -0.012967619   -0.002510058
     18        1          -0.006864796    0.008499209    0.002000359
     19        6          -0.016037631    0.005713642    0.001486713
     20        1          -0.005563241   -0.010558757   -0.001876042
     21        6           0.029916675    0.011007960    0.001709677
     22        1           0.004791859    0.010963407    0.002226933
     23        1           0.007646442   -0.007824097   -0.001671009
     24        6          -0.013608333   -0.077588477   -0.014399135
     25        8          -0.022165946    0.044363447    0.008231764
     26        1           0.005638519    0.022135650    0.004171982
 -------------------------------------------------------------------
 Cartesian Forces:  Max     0.085900819 RMS     0.021227415

 GradGradGradGradGradGradGradGradGradGradGradGradGradGradGradGradGradGrad
 Berny optimization.
 FormGI is forming the generalized inverse of G from B-inverse, IUseBI=4.
 GSVD:  received Info=                   1 from GESDD.
 Internal  Forces:  Max     0.059309848 RMS     0.010352434
 Search for a local minimum.
 Step number   1 out of a maximum of  136
 All quantities printed in internal units (Hartrees-Bohrs-Radians)
 Mixed Optimization -- RFO/linear search
 Second derivative matrix not updated -- first step.
 ITU=  0
     Eigenvalues ---    0.00230   0.00243   0.00243   0.00245   0.00252
     Eigenvalues ---    0.01469   0.01502   0.01630   0.02058   0.02058
     Eigenvalues ---    0.02060   0.02062   0.02063   0.02063   0.02065
     Eigenvalues ---    0.02066   0.02068   0.02071   0.02073   0.02073
     Eigenvalues ---    0.02073   0.02077   0.02080   0.03964   0.04718
     Eigenvalues ---    0.16000   0.16000   0.16000   0.16000   0.16000
     Eigenvalues ---    0.16000   0.16000   0.16000   0.16000   0.16000
     Eigenvalues ---    0.22000   0.22000   0.22000   0.22000   0.22981
     Eigenvalues ---    0.23485   0.24000   0.25000   0.25000   0.25000
     Eigenvalues ---    0.28332   0.28557   0.28623   0.37084   0.37104
     Eigenvalues ---    0.37143   0.37191   0.37194   0.37197   0.37218
     Eigenvalues ---    0.37222   0.37234   0.37398   0.41199   0.41230
     Eigenvalues ---    0.41397   0.41712   0.45221   0.45223   0.45299
     Eigenvalues ---    0.45361   0.45381   0.45410   0.45481   0.45523
     Eigenvalues ---    0.81050   1.04290
 RFO step:  Lambda=-3.48518187D-02 EMin= 2.30000000D-03
 Linear search not attempted -- first point.
 Maximum step size (   0.300) exceeded in Quadratic search.
    -- Step size scaled by   0.948
 Iteration  1 RMS(Cart)=  0.08525289 RMS(Int)=  0.00050806
 Iteration  2 RMS(Cart)=  0.00056527 RMS(Int)=  0.00000310
 Iteration  3 RMS(Cart)=  0.00000057 RMS(Int)=  0.00000306
 Variable       Old X    -DE/DX   Delta X   Delta X   Delta X     New X
                                 (Linear)    (Quad)   (Total)
    R1        2.64938  -0.00512   0.00000  -0.01000  -0.01000   2.63938
    R2        2.64841  -0.00174   0.00000  -0.00364  -0.00364   2.64478
    R3        2.02390   0.01110   0.00000   0.02591   0.02591   2.04981
    R4        2.65046  -0.00091   0.00000  -0.00157  -0.00157   2.64889
    R5        2.02254   0.01113   0.00000   0.02593   0.02593   2.04847
    R6        2.64831   0.00048   0.00000   0.00119   0.00119   2.64949
    R7        2.91418  -0.05919   0.00000  -0.17627  -0.17627   2.73791
    R8        2.64740  -0.00440   0.00000  -0.00845  -0.00845   2.63896
    R9        2.02420   0.01048   0.00000   0.02448   0.02448   2.04867
   R10        2.64989  -0.00244   0.00000  -0.00494  -0.00494   2.64495
   R11        2.02260   0.01164   0.00000   0.02712   0.02712   2.04972
   R12        2.02195   0.01216   0.00000   0.02829   0.02829   2.05024
   R13        2.26968   0.02689   0.00000   0.02364   0.02364   2.29332
   R14        2.90797  -0.05931   0.00000  -0.17503  -0.17503   2.73294
   R15        2.64774   0.00130   0.00000   0.00271   0.00271   2.65045
   R16        2.64625   0.00469   0.00000   0.00930   0.00930   2.65555
   R17        2.65104  -0.00793   0.00000  -0.01549  -0.01549   2.63555
   R18        2.02219   0.01108   0.00000   0.02579   0.02579   2.04798
   R19        2.64892  -0.00881   0.00000  -0.01706  -0.01707   2.63185
   R20        2.01951   0.01207   0.00000   0.02798   0.02798   2.04749
   R21        2.64889   0.00111   0.00000   0.00192   0.00192   2.65081
   R22        2.02330   0.01216   0.00000   0.02836   0.02836   2.05166
   R23        2.64631   0.00083   0.00000   0.00141   0.00141   2.64773
   R24        2.02250   0.01092   0.00000   0.02543   0.02543   2.04793
   R25        2.90936  -0.03088   0.00000  -0.09132  -0.09132   2.81805
   R26        2.37354  -0.04979   0.00000  -0.05581  -0.05581   2.31773
   R27        2.02213   0.02272   0.00000   0.05288   0.05288   2.07501
    A1        2.09395   0.00120   0.00000   0.00396   0.00396   2.09791
    A2        2.09469  -0.00133   0.00000  -0.00551  -0.00551   2.08918
    A3        2.09454   0.00013   0.00000   0.00156   0.00155   2.09610
    A4        2.09419  -0.00188   0.00000  -0.00661  -0.00661   2.08757
    A5        2.09345   0.00193   0.00000   0.00812   0.00812   2.10157
    A6        2.09555  -0.00005   0.00000  -0.00150  -0.00150   2.09405
    A7        2.09436   0.00173   0.00000   0.00667   0.00667   2.10103
    A8        2.09886  -0.00169   0.00000  -0.00609  -0.00609   2.09277
    A9        2.08997  -0.00004   0.00000  -0.00058  -0.00058   2.08939
   A10        2.09466  -0.00188   0.00000  -0.00625  -0.00625   2.08841
   A11        2.09412   0.00013   0.00000  -0.00084  -0.00084   2.09328
   A12        2.09440   0.00176   0.00000   0.00709   0.00709   2.10149
   A13        2.09449   0.00073   0.00000   0.00260   0.00260   2.09709
   A14        2.09342  -0.00088   0.00000  -0.00381  -0.00381   2.08961
   A15        2.09528   0.00015   0.00000   0.00121   0.00121   2.09649
   A16        2.09472   0.00011   0.00000  -0.00036  -0.00036   2.09436
   A17        2.09379   0.00003   0.00000   0.00057   0.00056   2.09435
   A18        2.09468  -0.00013   0.00000  -0.00021  -0.00021   2.09447
   A19        2.09546  -0.00138   0.00000  -0.00509  -0.00508   2.09038
   A20        2.09469  -0.00108   0.00000  -0.00409  -0.00409   2.09060
   A21        2.09303   0.00245   0.00000   0.00918   0.00917   2.10220
   A22        2.09485  -0.00288   0.00000  -0.01010  -0.01010   2.08475
   A23        2.09486   0.00066   0.00000   0.00128   0.00129   2.09615
   A24        2.09347   0.00221   0.00000   0.00882   0.00882   2.10229
   A25        2.09602  -0.00128   0.00000  -0.00395  -0.00395   2.09207
   A26        2.09319   0.00028   0.00000   0.00019   0.00019   2.09338
   A27        2.09397   0.00101   0.00000   0.00376   0.00376   2.09773
   A28        2.09398   0.00097   0.00000   0.00334   0.00334   2.09732
   A29        2.09451  -0.00102   0.00000  -0.00430  -0.00430   2.09020
   A30        2.09470   0.00006   0.00000   0.00096   0.00096   2.09567
   A31        2.09462  -0.00093   0.00000  -0.00347  -0.00347   2.09115
   A32        2.09507   0.00229   0.00000   0.01063   0.01063   2.10571
   A33        2.09349  -0.00137   0.00000  -0.00717  -0.00717   2.08633
   A34        2.09378   0.00167   0.00000   0.00505   0.00505   2.09884
   A35        2.09586  -0.00075   0.00000  -0.00225  -0.00225   2.09361
   A36        2.09354  -0.00092   0.00000  -0.00280  -0.00281   2.09073
   A37        2.09191   0.01417   0.00000   0.05267   0.05267   2.14458
   A38        2.09787  -0.01194   0.00000  -0.04997  -0.04997   2.04790
   A39        2.09341  -0.00222   0.00000  -0.00270  -0.00270   2.09070
   A40        3.14166  -0.00015   0.00000  -0.00177  -0.00177   3.13989
   A41        3.13497   0.00024   0.00000   0.00609   0.00609   3.14106
   A42        3.14159  -0.00007   0.00000  -0.00089  -0.00088   3.14071
   A43        3.14205   0.00007   0.00000   0.00175   0.00174   3.14379
    D1        0.00150  -0.00003   0.00000  -0.00060  -0.00060   0.00091
    D2       -3.14010  -0.00004   0.00000  -0.00061  -0.00061  -3.14071
    D3       -3.14018  -0.00002   0.00000  -0.00033  -0.00033  -3.14051
    D4        0.00140  -0.00002   0.00000  -0.00034  -0.00034   0.00106
    D5       -0.00076   0.00002   0.00000   0.00037   0.00037  -0.00039
    D6        3.14087   0.00002   0.00000   0.00030   0.00030   3.14118
    D7        3.14092   0.00001   0.00000   0.00010   0.00010   3.14103
    D8       -0.00063   0.00000   0.00000   0.00003   0.00003  -0.00060
    D9       -0.00094   0.00001   0.00000   0.00029   0.00029  -0.00065
   D10        3.14046   0.00004   0.00000   0.00060   0.00059   3.14105
   D11        3.14066   0.00002   0.00000   0.00030   0.00030   3.14097
   D12       -0.00112   0.00004   0.00000   0.00061   0.00061  -0.00051
   D13       -0.00036   0.00002   0.00000   0.00024   0.00024  -0.00012
   D14        3.14122   0.00002   0.00000   0.00030   0.00030   3.14152
   D15        3.14142  -0.00001   0.00000  -0.00006  -0.00006   3.14136
   D16       -0.00018   0.00000   0.00000   0.00000   0.00000  -0.00018
   D17       -3.05989   0.00002   0.00000   0.00036   0.00037  -3.05952
   D18        0.07960  -0.00002   0.00000  -0.00064  -0.00065   0.07895
   D19        0.08160  -0.00003   0.00000  -0.00064  -0.00063   0.08096
   D20       -3.06210  -0.00007   0.00000  -0.00164  -0.00165  -3.06375
   D21        0.00111  -0.00003   0.00000  -0.00046  -0.00046   0.00065
   D22       -3.14044  -0.00002   0.00000  -0.00029  -0.00029  -3.14073
   D23       -3.14047  -0.00003   0.00000  -0.00052  -0.00052  -3.14100
   D24        0.00116  -0.00002   0.00000  -0.00035  -0.00035   0.00081
   D25       -0.00055   0.00001   0.00000   0.00015   0.00015  -0.00040
   D26        3.14100   0.00001   0.00000   0.00022   0.00022   3.14122
   D27        3.14100   0.00000   0.00000  -0.00002  -0.00002   3.14098
   D28       -0.00063   0.00000   0.00000   0.00005   0.00005  -0.00058
   D29        3.13001   0.00022   0.00000   0.00373   0.00372   3.13374
   D30       -0.01026   0.00017   0.00000   0.00287   0.00287  -0.00739
   D31       -0.00972   0.00020   0.00000   0.00346   0.00345  -0.00626
   D32        3.13319   0.00015   0.00000   0.00260   0.00260   3.13579
   D33       -3.12862  -0.00022   0.00000  -0.00382  -0.00382  -3.13245
   D34        0.01405  -0.00021   0.00000  -0.00363  -0.00364   0.01041
   D35        0.01111  -0.00021   0.00000  -0.00355  -0.00356   0.00755
   D36       -3.12940  -0.00019   0.00000  -0.00337  -0.00337  -3.13278
   D37       -0.00017  -0.00003   0.00000  -0.00044  -0.00043  -0.00061
   D38       -3.14044  -0.00005   0.00000  -0.00086  -0.00086  -3.14130
   D39        3.14010   0.00002   0.00000   0.00041   0.00042   3.14052
   D40       -0.00017   0.00000   0.00000  -0.00001  -0.00001  -0.00018
   D41       -0.00260   0.00005   0.00000   0.00069   0.00068  -0.00192
   D42        3.13877   0.00006   0.00000   0.00088   0.00087   3.13964
   D43        3.13792   0.00003   0.00000   0.00050   0.00049   3.13841
   D44       -0.00390   0.00004   0.00000   0.00069   0.00069  -0.00322
   D45        0.00869  -0.00014   0.00000  -0.00247  -0.00247   0.00622
   D46       -3.13189  -0.00011   0.00000  -0.00195  -0.00195  -3.13384
   D47       -3.13423  -0.00012   0.00000  -0.00205  -0.00205  -3.13628
   D48        0.00838  -0.00009   0.00000  -0.00153  -0.00153   0.00685
   D49       -0.00731   0.00014   0.00000   0.00239   0.00238  -0.00493
   D50        3.13327   0.00011   0.00000   0.00186   0.00186   3.13513
   D51        3.13451   0.00013   0.00000   0.00219   0.00219   3.13669
   D52       -0.00809   0.00010   0.00000   0.00167   0.00166  -0.00643
   D53        3.12167   0.00012   0.00000   0.00318   0.00319   3.12486
   D54       -0.01809   0.00004   0.00000   0.00110   0.00110  -0.01699
   D55       -0.01891   0.00015   0.00000   0.00371   0.00370  -0.01521
   D56        3.12451   0.00007   0.00000   0.00162   0.00162   3.12613
         Item               Value     Threshold  Converged?
 Maximum Force            0.059310     0.000450     NO 
 RMS     Force            0.010352     0.000300     NO 
 Maximum Displacement     0.330862     0.001800     NO 
 RMS     Displacement     0.085470     0.001200     NO 
 Predicted change in Energy=-1.894910D-02
 GradGradGradGradGradGradGradGradGradGradGradGradGradGradGradGradGradGrad

                          Input orientation:                          
 ---------------------------------------------------------------------
 Center     Atomic      Atomic             Coordinates (Angstroms)
 Number     Number       Type             X           Y           Z
 ---------------------------------------------------------------------
      1          6           0       -5.346181   -1.898194   -0.161955
      2          6           0       -3.953488   -1.793714   -0.178271
      3          6           0       -3.351637   -0.535735   -0.036423
      4          6           0       -4.139292    0.613513    0.120355
      5          6           0       -5.531124    0.500632    0.134673
      6          6           0       -6.136283   -0.753566   -0.006002
      7          1           0       -5.813465   -2.871051   -0.270583
      8          1           0       -3.338277   -2.677932   -0.299672
      9          1           0       -3.666249    1.582846    0.229534
     10          1           0       -6.141568    1.389088    0.255087
     11          1           0       -7.217827   -0.838499    0.005812
     12          6           0       -1.907509   -0.419987   -0.051745
     13          6           0       -0.698028   -0.321095   -0.063470
     14          6           0        0.743429   -0.204515   -0.075097
     15          6           0        1.343398    1.040156    0.165743
     16          6           0        1.533494   -1.339300   -0.325701
     17          6           0        2.734270    1.143014    0.162288
     18          1           0        0.728567    1.912738    0.353062
     19          6           0        2.922014   -1.231263   -0.326496
     20          1           0        1.061239   -2.295132   -0.518837
     21          6           0        3.524347    0.009444   -0.079576
     22          1           0        3.204041    2.103955    0.348391
     23          1           0        3.543493   -2.098512   -0.516459
     24          6           0        5.011258    0.122828   -0.072366
     25          8           0        5.752961   -0.835770   -0.260096
     26          1           0        5.440271    1.116889    0.110648
 ---------------------------------------------------------------------
                    Distance matrix (angstroms):
                    1          2          3          4          5
     1  C    0.000000
     2  C    1.396702   0.000000
     3  C    2.418730   1.401733   0.000000
     4  C    2.800884   2.432784   1.402052   0.000000
     5  C    2.424161   2.801945   2.419400   1.396476   0.000000
     6  C    1.399555   2.424083   2.793318   2.423395   1.399649
     7  H    1.084715   2.151440   3.401343   3.885598   3.407667
     8  H    2.158387   1.084004   2.158353   3.413452   3.885937
     9  H    3.884980   3.413204   2.158263   1.084111   2.158228
    10  H    3.407754   3.886608   3.402005   2.151460   1.084664
    11  H    2.157350   3.406205   3.878257   3.405707   2.157509
    12  C    3.744557   2.467623   1.448840   2.465480   3.743378
    13  C    4.909406   3.574885   2.662413   3.570655   4.906457
    14  C    6.321348   4.959559   4.108621   4.954628   6.317536
    15  C    7.313806   6.017156   4.956577   5.499452   6.895732
    16  C    6.904281   5.507740   4.959224   6.016057   7.314788
    17  C    8.639894   7.312076   6.316324   6.894054   8.290366
    18  H    7.189646   5.995143   4.774388   5.043628   6.420706
    19  C    8.296681   6.900061   6.318749   7.311970   8.641046
    20  H    6.429615   5.051226   4.775110   5.992854   7.190454
    21  C    9.073705   7.692797   6.897698   7.690008   9.071313
    22  H    9.454308   8.166971   7.077638   7.496530   8.883661
    23  H    8.898994   7.510792   7.086291   8.172257   9.461934
    24  C   10.553155   9.167934   8.388862   9.165723  10.551181
    25  O   11.150306   9.753948   9.112286  10.005090  11.369802
    26  H   11.203240   9.838587   8.947091   9.592784  10.988716
                    6          7          8          9         10
     6  C    0.000000
     7  H    2.158230   0.000000
     8  H    3.408557   2.482881   0.000000
     9  H    3.408132   4.969694   4.306025   0.000000
    10  H    2.158509   4.304970   4.970599   2.483023   0.000000
    11  H    1.084939   2.485939   4.304387   4.304262   2.486487
    12  C    4.242157   4.616503   2.684563   2.680228   4.614559
    13  C    5.455726   5.719517   3.547025   3.538527   5.714748
    14  C    6.901932   7.081066   4.777923   4.767884   7.074729
    15  C    7.693670   8.167535   5.996572   5.039359   7.493628
    16  C    7.698751   7.505139   5.052402   5.990371   8.166272
    17  C    9.072598   9.453247   7.189497   6.415965   8.879734
    18  H    7.373212   8.128454   6.167620   4.408910   6.890759
    19  C    9.076544   8.888230   6.425326   7.185651   9.452672
    20  H    7.378600   6.903251   4.421573   6.160187   8.127291
    21  C    9.690994   9.773867   7.373333   7.367211   9.769613
    22  H    9.774081  10.317424   8.129475   6.891049   9.373375
    23  H    9.786087   9.392015   6.909521   8.129531  10.322744
    24  C   11.182134  11.232864   8.809691   8.804653  11.229255
    25  O   11.892243  11.744135   9.276084   9.737092  12.111781
    26  H   11.727268  11.945526   9.572458   9.119208  11.585938
                   11         12         13         14         15
    11  H    0.000000
    12  C    5.327095   0.000000
    13  C    6.540665   1.213574   0.000000
    14  C    7.986870   2.659783   1.446210   0.000000
    15  C    8.766385   3.570395   2.464339   1.402560   0.000000
    16  C    8.771906   3.572211   2.466819   1.405255   2.437102
    17  C   10.148651   4.902540   3.738349   2.415706   1.394674
    18  H    8.416357   3.543215   2.683036   2.160163   1.083746
    19  C   10.152885   4.904890   3.741963   2.421496   2.809568
    20  H    8.422587   3.542288   2.683132   2.160691   3.416491
    21  C   10.775927   5.448875   4.235323   2.789140   2.424682
    22  H   10.834701   5.714747   4.612661   3.400440   2.151051
    23  H   10.847415   5.722485   4.621137   3.409161   3.893207
    24  C   12.267061   6.940058   5.726525   4.280365   3.788322
    25  O   12.973514   7.674574   6.474474   5.052536   4.810892
    26  H   12.808669   7.508544   6.306888   4.882718   4.097962
                   16         17         18         19         20
    16  C    0.000000
    17  C    2.800336   0.000000
    18  H    3.418243   2.156784   0.000000
    19  C    1.392717   2.431327   3.893296   0.000000
    20  H    1.083485   3.883789   4.310110   2.152045   0.000000
    21  C    2.417268   1.402748   3.409705   1.401117   3.401606
    22  H    3.886018   1.085691   2.482853   3.414482   4.969472
    23  H    2.157055   3.409257   4.976948   1.083718   2.490030
    24  C    3.781116   2.506096   4.661138   2.502616   4.652797
    25  O    4.249912   3.634074   5.759757   2.859211   4.920258
    26  H    4.635318   2.706620   4.784590   3.470812   5.586955
                   21         22         23         24         25
    21  C    0.000000
    22  H    2.161649   0.000000
    23  H    2.152839   4.303943   0.000000
    24  C    1.491245   2.714394   2.699242   0.000000
    25  O    2.390334   3.938177   2.557731   1.226490   0.000000
    26  H    2.221123   2.455920   3.785477   1.098046   2.011991
                   26
    26  H    0.000000
 Stoichiometry    C15H10O
 Framework group  C1[X(C15H10O)]
 Deg. of freedom    72
 Full point group                 C1      NOp   1
 Largest Abelian subgroup         C1      NOp   1
 Largest concise Abelian subgroup C1      NOp   1
                         Standard orientation:                         
 ---------------------------------------------------------------------
 Center     Atomic      Atomic             Coordinates (Angstroms)
 Number     Number       Type             X           Y           Z
 ---------------------------------------------------------------------
      1          6           0        4.992738   -1.287328   -0.055010
      2          6           0        3.596449   -1.253800   -0.049524
      3          6           0        2.933507   -0.019793    0.001363
      4          6           0        3.663868    1.176119    0.047385
      5          6           0        5.059698    1.133946    0.042500
      6          6           0        5.725767   -0.095986   -0.008870
      7          1           0        5.507278   -2.241385   -0.095383
      8          1           0        3.025323   -2.174488   -0.084347
      9          1           0        3.143762    2.126515    0.086533
     10          1           0        5.625839    2.058422    0.078885
     11          1           0        6.810286   -0.125903   -0.012897
     12          6           0        1.485295    0.022535    0.006670
     13          6           0        0.272307    0.060087    0.010336
     14          6           0       -1.173236    0.103961    0.012184
     15          6           0       -1.832470    1.340972   -0.036715
     16          6           0       -1.907832   -1.093003    0.061027
     17          6           0       -3.226707    1.375071   -0.044145
     18          1           0       -1.260363    2.260846   -0.068819
     19          6           0       -3.299951   -1.053255    0.051853
     20          1           0       -1.390177   -2.043724    0.106881
     21          6           0       -3.961274    0.180719   -0.003731
     22          1           0       -3.742222    2.329808   -0.082188
     23          1           0       -3.878997   -1.968621    0.087294
     24          6           0       -5.451829    0.222312   -0.021881
     25          8           0       -6.146295   -0.788496   -0.005734
     26          1           0       -5.928350    1.211149   -0.050736
 ---------------------------------------------------------------------
 Rotational constants (GHZ):      2.6175660      0.1605054      0.1512597
 Standard basis: 6-31+G(d) (6D, 7F)
 There are   324 symmetry adapted cartesian basis functions of A   symmetry.
 There are   324 symmetry adapted basis functions of A   symmetry.
   324 basis functions,   552 primitive gaussians,   324 cartesian basis functions
    54 alpha electrons       54 beta electrons
       nuclear repulsion energy       850.9574468428 Hartrees.
 NAtoms=   26 NActive=   26 NUniq=   26 SFac= 1.00D+00 NAtFMM=   60 NAOKFM=F Big=F
 Integral buffers will be    131072 words long.
 Raffenetti 2 integral format.
 Two-electron integral symmetry is turned on.
 Nuclear repulsion after empirical dispersion term =      850.9400476041 Hartrees.
 One-electron integrals computed using PRISM.
 NBasis=   324 RedAO= T EigKep=  2.02D-06  NBF=   324
 NBsUse=   320 1.00D-06 EigRej=  5.48D-07 NBFU=   320
 Initial guess from the checkpoint file:  "D:\ml\molecule_1.chk"
 B after Tr=     0.000000    0.000000    0.000000
         Rot=    1.000000   -0.000159    0.000002    0.000346 Ang=  -0.04 deg.
 ExpMin= 4.38D-02 ExpMax= 5.48D+03 ExpMxC= 8.25D+02 IAcc=2 IRadAn=         4 AccDes= 0.00D+00
 Harris functional with IExCor=  402 and IRadAn=       4 diagonalized for initial guess.
 HarFok:  IExCor=  402 AccDes= 0.00D+00 IRadAn=         4 IDoV= 1 UseB2=F ITyADJ=14
 ICtDFT=  3500011 ScaDFX=  1.000000  1.000000  1.000000  1.000000
 FoFCou: FMM=F IPFlag=           0 FMFlag=      100000 FMFlg1=           0
         NFxFlg=           0 DoJE=T BraDBF=F KetDBF=T FulRan=T
         wScrn=  0.000000 ICntrl=     500 IOpCl=  0 I1Cent=   200000004 NGrid=           0
         NMat0=    1 NMatS0=      1 NMatT0=    0 NMatD0=    1 NMtDS0=    0 NMtDT0=    0
 Petite list used in FoFCou.
 Requested convergence on RMS density matrix=1.00D-08 within 128 cycles.
 Requested convergence on MAX density matrix=1.00D-06.
 Requested convergence on             energy=1.00D-06.
 No special actions if energy rises.
 SCF Done:  E(RB3LYP) =  -652.828660970     A.U. after   14 cycles
            NFock= 14  Conv=0.57D-08     -V/T= 2.0099
 Calling FoFJK, ICntrl=      2127 FMM=F ISym2X=0 I1Cent= 0 IOpClX= 0 NMat=1 NMatS=1 NMatT=0.
 ***** Axes restored to original set *****
 -------------------------------------------------------------------
 Center     Atomic                   Forces (Hartrees/Bohr)
 Number     Number              X              Y              Z
 -------------------------------------------------------------------
      1        6           0.001875440    0.001424780    0.000125438
      2        6          -0.007737988   -0.002495261   -0.000214983
      3        6           0.024758594    0.002260442   -0.000263043
      4        6          -0.007935811    0.001262733    0.000405575
      5        6           0.002053216   -0.001256022   -0.000195736
      6        6           0.001137030    0.000103984   -0.000004479
      7        1          -0.000701203   -0.001273219   -0.000159898
      8        1           0.001249351   -0.000529188   -0.000048905
      9        1           0.001094769    0.000669387    0.000029836
     10        1          -0.000912644    0.001174309    0.000178440
     11        1          -0.001313918   -0.000105949    0.000014065
     12        6          -0.019481327   -0.001717700    0.000171039
     13        6           0.019404554    0.001602214   -0.000364892
     14        6          -0.025249136   -0.001740221    0.000198213
     15        6           0.008552826    0.003050571    0.000436842
     16        6           0.009940163   -0.001547454   -0.000500012
     17        6          -0.004331973   -0.001683548   -0.000376846
     18        1          -0.001363705    0.000353227    0.000223187
     19        6          -0.007942981   -0.001578147   -0.000139948
     20        1          -0.001537903   -0.000797630    0.000054730
     21        6           0.011464015    0.005839670    0.000984330
     22        1           0.001277184    0.001170700    0.000302592
     23        1           0.001811588   -0.000319081   -0.000044362
     24        6          -0.003255837   -0.019909712   -0.003928801
     25        8          -0.002960520    0.008664816    0.001593302
     26        1           0.000106220    0.007376296    0.001524314
 -------------------------------------------------------------------
 Cartesian Forces:  Max     0.025249136 RMS     0.006393807

 GradGradGradGradGradGradGradGradGradGradGradGradGradGradGradGradGradGrad
 Berny optimization.
 Using GEDIIS/GDIIS optimizer.
 FormGI is forming the generalized inverse of G from B-inverse, IUseBI=4.
 GSVD:  received Info=                   1 from GESDD.
 Internal  Forces:  Max     0.013622859 RMS     0.002669745
 Search for a local minimum.
 Step number   2 out of a maximum of  136
 All quantities printed in internal units (Hartrees-Bohrs-Radians)
 Mixed Optimization -- RFO/linear search
 Update second derivatives using D2CorX and points    1    2
 DE= -2.09D-02 DEPred=-1.89D-02 R= 1.11D+00
 TightC=F SS=  1.41D+00  RLast= 3.00D-01 DXNew= 5.0454D-01 9.0081D-01
 Trust test= 1.11D+00 RLast= 3.00D-01 DXMaxT set to 5.05D-01
 ITU=  1  0
 Use linear search instead of GDIIS.
     Eigenvalues ---    0.00230   0.00243   0.00243   0.00245   0.00252
     Eigenvalues ---    0.01471   0.01505   0.01638   0.02058   0.02058
     Eigenvalues ---    0.02060   0.02062   0.02063   0.02063   0.02065
     Eigenvalues ---    0.02066   0.02068   0.02071   0.02073   0.02073
     Eigenvalues ---    0.02073   0.02077   0.02080   0.03935   0.04718
     Eigenvalues ---    0.15745   0.16000   0.16000   0.16000   0.16000
     Eigenvalues ---    0.16000   0.16000   0.16000   0.16000   0.16013
     Eigenvalues ---    0.20872   0.22000   0.22000   0.22007   0.22977
     Eigenvalues ---    0.23180   0.23765   0.24954   0.25000   0.25001
     Eigenvalues ---    0.28052   0.28517   0.28613   0.36779   0.37091
     Eigenvalues ---    0.37115   0.37154   0.37192   0.37196   0.37210
     Eigenvalues ---    0.37228   0.37356   0.37622   0.41234   0.41246
     Eigenvalues ---    0.41529   0.41883   0.45087   0.45265   0.45296
     Eigenvalues ---    0.45364   0.45390   0.45427   0.45476   0.46239
     Eigenvalues ---    0.80487   1.03894
 RFO step:  Lambda=-1.39629655D-03 EMin= 2.29998530D-03
 Quartic linear search produced a step of  0.23423.
 Iteration  1 RMS(Cart)=  0.09266096 RMS(Int)=  0.00146106
 Iteration  2 RMS(Cart)=  0.00460621 RMS(Int)=  0.00005780
 Iteration  3 RMS(Cart)=  0.00000175 RMS(Int)=  0.00005779
 Iteration  4 RMS(Cart)=  0.00000000 RMS(Int)=  0.00005779
 Variable       Old X    -DE/DX   Delta X   Delta X   Delta X     New X
                                 (Linear)    (Quad)   (Total)
    R1        2.63938  -0.00112  -0.00234  -0.00051  -0.00285   2.63653
    R2        2.64478  -0.00028  -0.00085  -0.00036  -0.00123   2.64355
    R3        2.04981   0.00146   0.00607  -0.00206   0.00401   2.05383
    R4        2.64889   0.00523  -0.00037   0.01517   0.01482   2.66371
    R5        2.04847   0.00115   0.00607  -0.00311   0.00297   2.05144
    R6        2.64949   0.00514   0.00028   0.01417   0.01447   2.66396
    R7        2.73791  -0.01362  -0.04129  -0.00873  -0.05002   2.68789
    R8        2.63896  -0.00102  -0.00198  -0.00060  -0.00257   2.63638
    R9        2.04867   0.00108   0.00573  -0.00294   0.00280   2.05147
   R10        2.64495  -0.00026  -0.00116   0.00002  -0.00116   2.64380
   R11        2.04972   0.00150   0.00635  -0.00227   0.00408   2.05380
   R12        2.05024   0.00132   0.00663  -0.00317   0.00346   2.05369
   R13        2.29332   0.00593   0.00554   0.00168   0.00721   2.30054
   R14        2.73294  -0.01354  -0.04100  -0.00827  -0.04927   2.68367
   R15        2.65045   0.00542   0.00063   0.01435   0.01500   2.66545
   R16        2.65555   0.00566   0.00218   0.01334   0.01553   2.67108
   R17        2.63555  -0.00155  -0.00363  -0.00033  -0.00396   2.63159
   R18        2.04798   0.00110   0.00604  -0.00324   0.00281   2.05079
   R19        2.63185  -0.00230  -0.00400  -0.00185  -0.00585   2.62601
   R20        2.04749   0.00136   0.00655  -0.00295   0.00361   2.05110
   R21        2.65081   0.00054   0.00045   0.00056   0.00100   2.65180
   R22        2.05166   0.00164   0.00664  -0.00211   0.00453   2.05619
   R23        2.64773   0.00309   0.00033   0.00762   0.00794   2.65567
   R24        2.04793   0.00130   0.00596  -0.00246   0.00350   2.05143
   R25        2.81805  -0.00639  -0.02139  -0.00147  -0.02286   2.79518
[...]
 ,0.00003382,0.00000525,-0.00001611,0.00001152,0.00000140,-0.00000823,-
 0.00002243,-0.00000324,0.00003346,-0.00002840,-0.00000550,0.00002820,0
 .00000194,-0.00000026,-0.00493875,-0.00110078,-0.00007305,0.00936261,0
 .00329479,0.00047690,-0.03965493,0.06336941,0.01140017,-0.04159892,-0.
 02469419,-0.00334824,-0.35925337,-0.04901583,-0.00217192,0.05712068,-0
 .00987826,-0.00266155,-0.00041417,-0.00080114,-0.00013952,0.71961488,0
 .00016971,0.00002821,-0.00003725,0.00004637,-0.00037922,-0.00002334,0.
 00065244,0.00035654,0.00013524,-0.00013375,0.00024223,0.00004005,0.000
 11139,0.00005204,0.00001090,-0.00005271,0.00001711,0.00001211,0.000039
 34,0.00001342,-0.00000017,-0.00000746,0.00000501,0.00000841,-0.0000391
 6,0.00002514,0.00000206,0.00002482,-0.00000710,-0.00000078,0.00001403,
 0.00000525,0.00000078,-0.00112122,-0.00006033,-0.00009617,0.00612571,-
 0.00425863,-0.00179400,0.02178281,0.03832937,0.00522534,-0.02898748,-0
 .01820004,-0.00180364,0.01229315,-0.13051712,-0.01196624,0.02704613,-0
 .05203083,-0.01015637,-0.00078582,0.00001769,0.00012056,-0.03974759,0.
 68324166,0.00002657,-0.00002870,0.00022748,0.00001006,-0.00001114,-0.0
 0024683,0.00006726,0.00014772,-0.00051703,-0.00001519,0.00002691,0.000
 02164,0.00001409,0.00000802,-0.00002550,-0.00001113,0.00001015,-0.0000
 4766,0.00000619,-0.00000008,0.00000959,-0.00000168,0.00000807,-0.00004
 338,-0.00000601,0.00000174,0.00001793,0.00000336,0.00000029,-0.0000054
 4,0.00000174,0.00000104,-0.00000106,-0.00007649,-0.00009900,0.00064925
 ,0.00094666,-0.00173545,0.00549685,0.00449334,0.00439306,0.00492957,-0
 .00406266,-0.00189095,-0.00409193,0.00801458,-0.01074239,-0.06191301,0
 .00347260,-0.00942288,0.00423995,-0.00013469,0.00012202,-0.00059834,-0
 .01821845,0.09134863,0.15347726,0.00000391,-0.00001082,-0.00000280,0.0
 0002183,0.00004497,0.00000744,-0.00010563,-0.00004459,-0.00000167,0.00
 007091,0.00004037,0.00000489,0.00001243,-0.00002666,-0.00000464,0.0000
 1383,0.00000142,0.00000016,0.00000997,0.00000655,0.00000097,-0.0000472
 8,-0.00003497,-0.00000398,-0.00000886,0.00000160,0.00000052,0.00001403
 ,-0.00000449,-0.00000095,0.00000997,-0.00000268,-0.00000062,-0.0000205
 0,-0.00017215,-0.00002935,0.00111010,0.00101700,0.00008089,0.01033580,
 0.01789443,0.00283080,-0.00211947,0.00293169,0.00064308,-0.11409592,-0
 .11199714,-0.01705381,-0.00071624,0.00072048,0.00012328,0.00059905,0.0
 0092321,0.00014836,-0.00926487,-0.02929207,-0.00460627,0.11913329,0.00
 000161,0.00000343,0.00000769,0.00000835,-0.00003130,-0.00000817,0.0000
 4691,-0.00000999,-0.00002941,-0.00004067,-0.00004859,-0.00000310,-0.00
 000866,0.00002986,0.00000394,0.00000284,-0.00000088,-0.00000156,-0.000
 00608,-0.00000231,-0.00000099,0.00002614,0.00003845,-0.00000180,0.0000
 0341,0.00000247,-0.00000036,-0.00001071,0.00000231,-0.00000004,-0.0000
 0665,0.00000269,0.00000041,0.00066130,0.00028206,0.00003546,-0.0008916
 5,0.00035162,0.00062894,-0.01303411,-0.01830714,-0.00332763,0.00406692
 ,-0.00192071,-0.00135110,-0.11005515,-0.28210779,-0.03849113,0.0007024
 3,0.00031549,0.00012549,-0.00068343,-0.00093273,-0.00019667,0.00100028
 ,0.00285407,-0.00015710,0.11821215,0.29700085,-0.00000066,0.00000790,-
 0.00004130,0.00000132,-0.00000871,0.00001455,0.00001306,-0.00002772,0.
 00015779,-0.00000865,-0.00000466,-0.00002618,-0.00000155,0.00000420,0.
 00000827,0.00000034,-0.00000148,0.00000764,-0.00000112,-0.00000125,0.0
 0000423,0.00000620,-0.00000061,0.00004599,0.00000082,-0.00000032,0.000
 00419,-0.00000198,-0.00000017,0.00000386,-0.00000128,0.00000033,0.0000
 0111,0.00011096,0.00005287,-0.00000762,-0.00023697,0.00059031,-0.00322
 449,-0.00230230,-0.00394737,0.00268728,0.00083145,-0.00132817,0.005496
 14,-0.01673334,-0.03844794,-0.04304913,0.00011911,0.00012525,-0.000505
 51,-0.00011859,-0.00022833,0.00029689,0.00042519,0.00044631,0.00374598
 ,0.01775083,0.04275519,0.03197494,-0.00030164,0.00049360,0.00008863,-0
 .00002447,0.00086009,0.00014447,-0.00091643,-0.00006939,0.00000064,0.0
 0012346,-0.00085127,-0.00014257,-0.00022967,-0.00054256,-0.00008538,-0
 .00051485,-0.00003376,0.00000448,-0.00011322,-0.00011493,-0.00001685,0
 .00009460,0.00001354,0.00000022,0.00009548,0.00000272,-0.00000146,-0.0
 0012968,0.00009567,0.00001840,-0.00010327,-0.00000789,0.00000085,0.005
 35270,0.00038201,-0.00003994,-0.00954627,-0.00070629,0.00005566,0.0083
 8026,0.00441605,0.00045294,-0.03896750,0.02004491,0.00425756,-0.026660
 81,-0.02908032,-0.00415985,-0.17583444,0.10925408,0.02044964,-0.005137
 26,-0.00118773,0.00005143,-0.14788548,-0.08839951,-0.01300798,-0.00557
 903,0.00016325,0.00029761,0.62994913,-0.00008997,0.00012257,0.00001899
 ,0.00001488,0.00016801,0.00001584,-0.00008502,0.00000633,0.00006072,-0
 .00005401,-0.00016881,-0.00003924,0.00001158,-0.00009525,-0.00001877,-
 0.00012936,-0.00005384,-0.00000479,-0.00002507,-0.00002430,-0.00000340
 ,0.00001885,0.00000031,0.00000039,0.00001878,0.00000111,-0.00000014,-0
 .00002775,0.00002238,0.00000513,-0.00002218,-0.00000101,-0.00000084,0.
 00074086,0.00076171,0.00004187,-0.00152808,-0.00107377,0.00005090,0.00
 497557,-0.05689761,-0.00858077,0.06196579,0.03393483,0.00313281,-0.071
 54687,0.02193614,0.00392428,0.06132244,-0.25809411,-0.03388804,-0.0026
 3520,0.00147772,-0.00093134,-0.04272494,-0.27523360,-0.03424602,0.0011
 7449,0.00186099,-0.00103913,-0.00708301,0.68030630,-0.00000850,0.00000
 736,0.00002096,0.00000436,-0.00000108,0.00007033,-0.00000227,0.0000604
 4,-0.00033961,-0.00001011,-0.00002368,0.00007182,0.00000683,-0.0000074
 8,0.00001346,-0.00001133,-0.00000677,-0.00000996,-0.00000193,-0.000001
 65,-0.00000098,0.00000111,0.00000048,-0.00000442,0.00000120,0.00000019
 ,-0.00000020,-0.00000213,0.00000270,-0.00000464,-0.00000149,-0.0000011
 6,0.00000648,0.00002382,0.00005030,0.00042385,-0.00008583,0.00003267,-
 0.00118060,0.00053911,-0.00856518,-0.00726707,0.01121829,0.00396224,0.
 00806911,-0.01120716,0.00307289,0.00766283,0.01249395,-0.03484039,-0.0
 6756211,-0.00018710,-0.00096102,0.00725017,-0.00541976,-0.03333824,-0.
 06927836,0.00046568,-0.00101678,0.00778955,-0.01112553,0.09087579,0.14
 914566,-0.00000217,0.00000070,0.00000016,-0.00005189,0.00002310,0.0000
 0441,0.00012143,0.00010009,0.00001452,-0.00009232,-0.00005970,-0.00000
 776,-0.00000314,0.00001526,0.00000239,-0.00002832,-0.00000346,0.,-0.00
 001075,-0.00000562,-0.00000067,0.00001235,0.00001175,0.00000175,0.0000
 1061,-0.00000408,-0.00000073,-0.00001823,0.00000449,0.00000113,-0.0000
 0685,0.00000002,0.00000017,-0.00037514,0.00001284,0.00000638,-0.000231
 96,-0.00135606,-0.00021767,-0.00519539,0.00103299,0.00042214,-0.009122
 35,-0.02985911,-0.00470204,-0.00066456,0.00057767,0.00009565,-0.112347
 99,-0.10480004,-0.01591876,0.00066784,0.00035121,-0.00003791,-0.002182
 30,0.00288895,0.00064346,0.00006583,-0.00007777,-0.00003509,0.01297621
 ,0.01439145,0.00219329,0.11599733,-0.00000131,0.00000884,0.00000123,-0
 .00001804,0.00000777,0.00000582,0.00003531,-0.00000312,-0.00000257,-0.
 00001687,-0.00001731,-0.00000527,-0.00000236,-0.00000656,0.00000066,-0
 .00001905,-0.00000147,0.00000007,-0.00000432,-0.00000393,-0.00000094,0
 .00000530,0.00000377,0.00000013,0.00000546,-0.00000106,-0.00000162,-0.
 00000581,0.00000358,0.00000055,-0.00000445,-0.00000028,-0.00000023,0.0
 0005778,-0.00003443,0.00001622,-0.00005918,0.00000962,-0.00001677,0.00
 054846,0.00204050,-0.00090914,0.00095367,0.00219051,-0.00029967,0.0006
 4579,0.00027739,0.00014654,-0.10637468,-0.27727354,-0.03778119,-0.0002
 4943,0.00071365,0.00081809,0.00423463,-0.00232576,-0.00146477,-0.00010
 303,-0.00004349,0.00016820,-0.01185501,-0.01923757,-0.00347175,0.11438
 019,0.29396158,-0.00000015,0.00000124,0.00000151,-0.00000241,0.0000049
 3,-0.00002365,0.00000347,-0.00000379,0.00000671,-0.00000058,-0.0000044
 7,0.00001596,-0.00000055,0.00000030,-0.00001023,-0.00000258,-0.0000002
 6,0.00000051,-0.00000046,-0.00000091,0.00000211,0.00000068,-0.00000001
 ,0.00000238,0.00000085,-0.00000143,0.00000781,-0.00000058,0.00000034,0
 .00000106,-0.00000057,-0.00000032,0.00000157,0.00001459,0.00001722,-0.
 00013714,-0.00000306,0.00000918,0.00012087,0.00034311,-0.00091584,0.00
 728505,0.00041391,0.00031463,0.00392003,0.00010922,0.00014772,-0.00066
 025,-0.01617489,-0.03781847,-0.04314596,-0.00013798,0.00080567,-0.0040
 4209,0.00086631,-0.00143896,0.00572202,-0.00003916,0.00016739,-0.00101
 448,-0.00217124,-0.00399056,0.00246031,0.01720741,0.04232687,0.0322463
 7,-0.00000087,-0.00001787,-0.00000324,-0.00008109,0.00003853,0.0000084
 9,0.00009922,-0.00007170,-0.00001347,-0.00003445,-0.00002252,-0.000003
 63,-0.00000227,0.00000120,0.00000032,-0.00001879,-0.00000029,0.0000003
 4,-0.00001345,-0.00000449,-0.00000047,0.00000540,0.00000233,0.00000046
 ,0.00000969,-0.00000712,-0.00000135,-0.00000796,0.00000184,0.00000051,
 -0.00000372,-0.00000094,-0.00000005,-0.00030365,-0.00005167,-0.0000062
 6,-0.00041558,0.00113722,0.00019844,-0.00446098,-0.00184243,-0.0000593
 8,-0.00048469,-0.00078139,-0.00013583,-0.01244609,0.02573049,0.0046103
 4,-0.00132919,-0.00281612,-0.00032226,0.00004410,0.00008374,-0.0000077
 5,-0.15230289,0.13094699,0.02399924,0.00074059,-0.00028109,-0.00015123
 ,0.01378390,-0.01046700,-0.00193784,0.00039744,-0.00091334,-0.00014995
 ,0.15753457,0.00000249,-0.00000420,0.00000203,-0.00001279,0.00000329,-
 0.00000368,0.00001445,-0.00002517,-0.00000848,-0.00000224,-0.00000429,
 0.00000400,-0.00000073,0.00000295,-0.00000002,0.00000208,0.00000031,-0
 .00000019,-0.00000144,0.00000034,-0.00000002,0.00000004,0.00000146,-0.
 00000127,0.00000039,-0.00000092,-0.00000044,-0.00000034,-0.00000052,-0
 .00000047,0.00000042,-0.00000002,-0.00000032,-0.00012938,-0.00004652,0
 .00002902,-0.00004611,0.00028791,0.00003443,-0.00181231,0.00133910,-0.
 00105908,-0.00060642,0.00012823,0.00016575,-0.00389302,0.00742520,0.00
 057299,-0.00392983,-0.00314119,-0.00143072,0.00010738,-0.00000031,0.00
 017012,0.13061039,-0.24420063,-0.03657429,0.00029705,0.00064006,0.0008
 4916,0.01627106,-0.01932977,-0.00416893,0.00093028,-0.00094329,-0.0002
 5904,-0.14037017,0.25742510,0.00000006,0.00000253,-0.00001667,0.000000
 11,-0.00000473,0.00002658,0.00000067,-0.00000698,0.00002454,-0.0000001
 7,0.00000440,-0.00002749,-0.00000003,-0.00000009,0.00000317,0.00000076
 ,-0.00000016,0.00000123,0.00000004,0.00000004,0.00000063,0.00000008,-0
 .00000133,0.00000889,-0.00000010,-0.00000028,0.00000162,0.00000015,-0.
 00000051,0.00000225,0.00000018,-0.00000029,0.00000178,-0.00001903,0.00
 002805,-0.00020379,0.00000193,0.00000992,0.00008899,-0.00005287,-0.001
 06035,0.00775800,-0.00010420,0.00017035,-0.00076648,-0.00031475,-0.000
 01800,0.00444692,-0.00050958,-0.00145075,0.00571630,-0.00000360,0.0001
 7073,-0.00100927,0.02394666,-0.03657844,-0.04622496,-0.00005543,0.0008
 6020,-0.00436459,0.00250566,-0.00364028,0.00316475,0.00015611,-0.00022
 202,0.00046318,-0.02592198,0.04108359,0.03425742,0.00021253,-0.0004748
 7,-0.00008378,0.00027874,-0.00072759,-0.00012621,0.00003230,-0.0000022
 2,0.00000387,0.00015004,0.00075265,0.00012262,0.00014425,0.00050861,0.
 00008102,0.00063426,0.00004571,-0.00000477,0.00014105,0.00013813,0.000
 02015,-0.00012923,-0.00005003,-0.00000563,-0.00013446,0.00003156,0.000
 00801,0.00015680,-0.00011335,-0.00002196,0.00013304,0.00001068,-0.0000
 0093,-0.00309290,-0.00024790,0.00001478,0.00614751,0.00051637,-0.00005
 711,-0.00622661,0.00020391,0.00013919,0.00725072,0.00447689,0.00075950
 ,0.00920121,-0.00390256,-0.00069389,-0.03023737,0.01514573,0.00311248,
 0.00066354,-0.00035839,-0.00006152,-0.02796546,-0.02134782,-0.00293256
 ,0.00054773,0.00040574,0.00006102,-0.19251152,-0.02342384,-0.00147051,
 0.00000856,-0.00354409,-0.00067470,0.00003901,0.00296522,0.00041930,0.
 67312839,-0.00007054,0.00005503,0.00001413,0.00007124,0.00014575,0.000
 02214,-0.00037979,-0.00001141,-0.00002316,0.00010309,-0.00011840,-0.00
 002574,-0.00007299,-0.00006090,-0.00000307,-0.00000273,0.00000070,-0.0
 0000260,-0.00001401,-0.00001282,-0.00000225,0.00001472,-0.00000134,-0.
 00000111,0.00000259,-0.00000091,-0.00000097,-0.00000528,0.00000468,0.0
 0000043,-0.00000900,-0.00000107,0.00000047,0.00112609,0.00014396,0.000
 04731,-0.00186349,-0.00020369,0.00014996,0.00262692,-0.00437291,-0.000
 63560,0.00427828,-0.00514371,-0.00224108,-0.00692846,-0.00560898,-0.00
 192556,0.03326389,0.00349311,-0.00007371,0.00155872,0.00024459,-0.0000
 7912,-0.02788773,0.00952338,0.00175731,-0.00190781,-0.00009670,-0.0000
 1908,-0.05286707,-0.11619111,-0.00602442,0.00336689,-0.00063837,0.0005
 3478,-0.00088038,-0.00229996,0.00022290,-0.16899272,0.81373456,-0.0000
 1631,0.00002229,-0.00001834,0.00000618,0.00003756,0.00001199,-0.000059
 77,-0.00003026,0.00016741,0.00001444,-0.00003863,0.00001797,-0.0000155
 6,-0.00001462,-0.00003569,-0.00001288,-0.00000364,0.00001671,-0.000005
 09,-0.00000527,0.00000161,0.00000509,0.00000021,0.00000347,0.00000319,
 -0.00000154,0.00000419,-0.00000396,0.00000258,0.00000319,-0.00000421,0
 .00000010,-0.00000277,0.00024188,0.00007484,-0.00027252,-0.00044729,0.
 00010240,-0.00084993,0.00054033,-0.00059001,-0.00096646,0.00072275,-0.
 00224398,0.00744342,-0.00119912,-0.00198157,0.00649430,0.00612005,0.00
 029863,-0.00016361,0.00025671,-0.00004170,0.00052860,-0.00402806,0.001
 61886,0.00267495,-0.00032265,-0.00006471,0.00024086,-0.00634990,-0.006
 62786,-0.07441453,0.00047187,0.00067599,-0.00417055,-0.00021718,0.0001
 4601,-0.00350014,-0.03764241,0.10733875,0.20373176,-0.00010374,0.00023
 539,0.00004121,-0.00017575,0.00037091,0.00006525,0.00007320,0.00000967
 ,-0.00000055,-0.00009900,-0.00037551,-0.00006079,-0.00007199,-0.000260
 33,-0.00004162,-0.00033196,-0.00002178,0.00000306,-0.00007865,-0.00007
 549,-0.00001104,0.00007409,0.00003146,0.00000363,0.00007927,-0.0000251
 8,-0.00000588,-0.00008399,0.00006122,0.00001184,-0.00007413,-0.0000061
 7,0.00000041,0.00139302,0.00007466,-0.00001496,-0.00290184,-0.00027758
 ,0.00001785,0.00261871,0.00159548,0.00021131,-0.00467411,-0.00002164,0
 .00005535,-0.00146148,0.00206021,0.00035955,-0.00106053,-0.00977538,-0
 .00153250,-0.00104464,0.00000543,0.00001457,0.00392221,0.00604972,0.00
 091365,-0.00018378,-0.00018158,-0.00002394,-0.05714228,0.04369435,0.00
 872219,0.00057593,0.00074452,0.00012610,-0.00092796,-0.00033912,-0.000
 04149,-0.33601859,0.29520868,0.05425835,0.38098784,0.00011002,-0.00016
 166,-0.00002891,0.00003178,-0.00031923,-0.00005463,0.00028137,-0.00000
 252,-0.00000507,-0.00003698,0.00028300,0.00005071,0.00008781,0.0001949
 9,0.00002866,0.00017936,0.00001047,-0.00000189,0.00005006,0.00004659,0
 .00000742,-0.00004151,-0.00000672,0.00000063,-0.00004223,0.00001201,0.
 00000377,0.00004547,-0.00003469,-0.00000638,0.00004212,0.00000359,0.00
 000010,-0.00163821,-0.00013627,0.00000474,0.00295957,0.00051953,-0.000
 01281,-0.00323091,0.00065058,0.00018983,0.00161152,0.00209820,0.000611
 59,0.00428308,0.00045732,0.00009363,-0.00579672,0.00529699,0.00043244,
 0.00020355,-0.00006082,0.00004315,-0.00601016,-0.00888420,-0.00126865,
 0.00049271,0.00012351,-0.00001223,0.04190326,0.01009465,-0.00213452,-0
 .00141472,0.00058470,0.00000063,0.00012188,0.00254743,0.00044557,0.287
 73870,-0.47373738,-0.07389683,-0.35252852,0.50499315,0.00002025,-0.000
 03137,-0.00000636,0.00000892,-0.00006103,-0.00000555,0.00004494,-0.000
 00027,-0.00000294,-0.00000445,0.00005728,-0.00000808,0.00001619,0.0000
 3548,0.00001763,0.00003636,0.00000217,-0.00000037,0.00000978,0.0000099
 1,-0.00000268,-0.00000846,-0.00000083,-0.00000540,-0.00000868,0.000003
 41,-0.00000484,0.00000917,-0.00000666,-0.00000314,0.00000841,0.0000010
 5,-0.00000200,-0.00029823,-0.00002933,0.00003382,0.00055227,0.00005202
 ,0.00023380,-0.00058882,0.00009525,-0.00008112,0.00032373,0.00064534,-
 0.00168366,0.00072733,0.00013625,-0.00060529,-0.00087122,0.00050638,0.
 00348664,0.00004727,0.00004705,-0.00033844,-0.00108372,-0.00150341,-0.
 00075776,0.00008790,0.00000106,0.00013672,0.00843129,-0.00216843,0.017
 42897,-0.00022964,-0.00004514,0.00076159,0.00003610,0.00045371,-0.0000
 7619,0.05301570,-0.07403689,-0.07464901,-0.06538734,0.08662619,0.03901
 815,0.00000329,0.00001153,0.00000190,-0.00002364,-0.00000231,-0.000000
 15,0.00007070,-0.00000382,-0.00000223,-0.00002813,-0.00001244,-0.00000
 158,0.00000292,-0.00000538,-0.00000098,-0.00002362,-0.00000241,0.00000
 004,-0.00000422,-0.00000407,-0.00000058,0.00000609,0.00000550,0.000000
 85,0.00000508,-0.00000114,-0.00000023,-0.00000646,0.00000396,0.0000008
 0,-0.00000470,0.00000003,0.00000012,-0.00007300,0.00001106,0.00000499,
 0.00008769,0.00008998,0.00001058,0.00015999,0.00016292,0.00003139,0.00
 002048,0.00059301,0.00008929,0.00017226,-0.00196662,-0.00034768,0.0003
 2095,-0.00235501,-0.00042556,-0.00008934,0.00001159,0.00000464,-0.0060
 3720,0.00172303,0.00046032,-0.00054767,-0.00002378,-0.00000122,-0.0091
 5793,-0.02848671,-0.00419834,-0.00050020,0.00155987,0.00027321,0.00017
 972,-0.00005736,-0.00000848,-0.10255352,-0.07973912,-0.01231643,0.0167
 1014,0.03059769,0.00510497,0.10131030,-0.00001141,0.00003411,0.0000057
 7,-0.00003328,0.00003563,0.00000799,0.00005764,-0.00000225,-0.00000111
 ,-0.00003249,-0.00005281,-0.00000798,-0.00000466,-0.00003081,-0.000004
 47,-0.00005323,-0.00000479,0.00000037,-0.00000943,-0.00001014,-0.00000
 160,0.00001085,0.00000780,0.00000065,0.00001132,-0.00000106,-0.0000008
 7,-0.00001472,0.00000981,0.00000187,-0.00001091,-0.00000061,-0.0000000
 5,0.00008243,-0.00000671,-0.00001258,-0.00021915,0.00010981,0.00004090
 ,0.00029036,0.00024841,-0.00002506,-0.00073687,0.00023816,0.00012570,0
 .00017382,-0.00021086,0.00010469,0.00073292,0.00047010,0.00028459,-0.0
 0011364,0.00002159,-0.00000129,-0.00069539,0.00138634,-0.00018354,-0.0
 0016170,-0.00000624,0.00006746,-0.00110151,-0.00429229,-0.00350202,-0.
 00050731,0.00072827,0.00010316,0.00046430,0.00019541,-0.00001410,-0.08
 975452,-0.21884611,-0.02477761,0.01374657,-0.04457322,-0.01078919,0.07
 789002,0.26455246,-0.00000196,0.00000522,0.00000247,-0.00000522,0.0000
 0768,-0.00000848,0.00000795,0.00000034,-0.00000408,-0.00000483,-0.0000
 0823,-0.00000354,-0.00000091,-0.00000462,-0.00000334,-0.00000842,-0.00
 000058,-0.00000099,-0.00000148,-0.00000172,0.00000041,0.00000174,0.000
 00075,0.00000270,0.00000184,-0.00000062,0.00000269,-0.00000231,0.00000
 149,0.00000069,-0.00000170,-0.00000027,0.00000100,0.00001707,-0.000012
 42,0.00006520,-0.00004133,0.00003562,-0.00011003,0.00005332,-0.0000238
 9,0.00035927,-0.00013088,0.00010027,-0.00041559,0.00000589,0.00014879,
 -0.00083478,0.00008640,0.00034622,-0.00128053,-0.00001634,-0.00000375,
 0.00004235,0.00006187,-0.00023223,0.00253880,-0.00002348,0.00006482,-0
 .00038269,0.00034123,-0.00294713,0.01648423,-0.00007058,0.00006074,0.0
 0018533,0.00007762,-0.00000384,0.00022335,-0.01398165,-0.02499383,-0.0
 6229686,0.00231581,-0.01111712,0.01711550,0.01132036,0.03857832,0.0283
 1693||0.00002213,0.00000202,0.00000044,-0.00004197,-0.00000663,-0.0000
 0058,-0.00006396,0.00002271,-0.00001009,-0.00003923,-0.00001413,-0.000
 00068,0.00002273,0.00000105,0.00000112,-0.00004952,-0.00000539,0.00000
 021,0.00000843,0.00000028,-0.00000033,0.00001615,-0.00000078,0.0000004
 7,0.00001480,0.00000364,-0.00000066,0.00000799,-0.00000099,0.00000033,
 0.00001297,0.00000029,-0.00000002,0.00015431,-0.00000148,0.00003384,-0
 .00010342,-0.00002461,-0.00005043,0.00000503,0.00004599,0.00003170,0.0
 0002683,0.00000224,-0.00000971,0.00007457,-0.00002152,-0.00000982,-0.0
 0001597,-0.00000137,0.00000821,-0.00001675,0.00000010,0.00000192,-0.00
 007790,0.00001042,0.00000028,-0.00001866,-0.00000227,0.00000617,0.0000
 6894,-0.00003498,0.00001795,-0.00000767,0.00000261,0.00000650,0.000011
 32,-0.00000136,-0.00000072,-0.00000739,0.00003338,-0.00007408,-0.00000
 429,-0.00002308,0.00002659,0.00000053,0.00001387,0.00002139|||@


 WE LEARN WISDOM FROM FAILURE MUCH MORE THAN FROM SUCCESS.
 WE DISCOVER WHAT WILL DO BY FINDING OUT WHAT WILL NOT DO...
 AND HE WHO NEVER MADE A MISTAKE NEVER MADE A DISCOVERY
 Job cpu time:       0 days  0 hours 36 minutes 19.0 seconds.
 File lengths (MBytes):  RWF=    282 Int=      0 D2E=      0 Chk=      9 Scr=      1
 Normal termination of Gaussian 09 at Thu Aug 24 14:08:49 2023.
