 Entering Gaussian System, Link 0=C:\G09W\g09.exe
 Input=D:\machine learning\molecule_48.gjf
 Output=D:\machine learning\molecule_48.log
 Initial command:
 C:/G09W\l1.exe ".\Gau-408.inp" "D:\machine learning\molecule_48.log" /scrdir=".\"
 Entering Link 1 = C:/G09W\l1.exe PID=      3356.
  
 Copyright (c) 1988,1990,1992,1993,1995,1998,2003,2009,2013,
            Gaussian, Inc.  All Rights Reserved.
  
 This is part of the Gaussian(R) 09 program.  It is based on
 the Gaussian(R) 03 system (copyright 2003, Gaussian, Inc.),
 the Gaussian(R) 98 system (copyright 1998, Gaussian, Inc.),
 the Gaussian(R) 94 system (copyright 1995, Gaussian, Inc.),
 the Gaussian 92(TM) system (copyright 1992, Gaussian, Inc.),
 the Gaussian 90(TM) system (copyright 1990, Gaussian, Inc.),
 the Gaussian 88(TM) system (copyright 1988, Gaussian, Inc.),
 the Gaussian 86(TM) system (copyright 1986, Carnegie Mellon
 University), and the Gaussian 82(TM) system (copyright 1983,
 Carnegie Mellon University). Gaussian is a federally registered
 trademark of Gaussian, Inc.
  
 This software contains proprietary and confidential information,
 including trade secrets, belonging to Gaussian, Inc.
  
 This software is provided under written license and may be
 used, copied, transmitted, or stored only in accord with that
 written license.
  
 The following legend is applicable only to US Government
 contracts under FAR:
  
                    RESTRICTED RIGHTS LEGEND
  
 Use, reproduction and disclosure by the US Government is
 subject to restrictions as set forth in subparagraphs (a)
 and (c) of the Commercial Computer Software - Restricted
 Rights clause in FAR 52.227-19.
  
 Gaussian, Inc.
 340 Quinnipiac St., Bldg. 40, Wallingford CT 06492
  
  
 ---------------------------------------------------------------
 Warning -- This program may not be used in any manner that
 competes with the business of Gaussian, Inc. or will provide
 assistance to any competitor of Gaussian, Inc.  The licensee
 of this program is prohibited from giving any competitor of
 Gaussian, Inc. access to this program.  By using this program,
 the user acknowledges that Gaussian, Inc. is engaged in the
 business of creating and licensing software in the field of
 computational chemistry and represents and warrants to the
 licensee that it is not a competitor of Gaussian, Inc. and that
 it will not use this program in any manner prohibited above.
 ---------------------------------------------------------------
  

 Cite this work as:
 Gaussian 09, Revision D.01,
 M. J. Frisch, G. W. Trucks, H. B. Schlegel, G. E. Scuseria, 
 M. A. Robb, J. R. Cheeseman, G. Scalmani, V. Barone, B. Mennucci, 
 G. A. Petersson, H. Nakatsuji, M. Caricato, X. Li, H. P. Hratchian, 
 A. F. Izmaylov, J. Bloino, G. Zheng, J. L. Sonnenberg, M. Hada, 
 M. Ehara, K. Toyota, R. Fukuda, J. Hasegawa, M. Ishida, T. Nakajima, 
 Y. Honda, O. Kitao, H. Nakai, T. Vreven, J. A. Montgomery, Jr., 
 J. E. Peralta, F. Ogliaro, M. Bearpark, J. J. Heyd, E. Brothers, 
 K. N. Kudin, V. N. Staroverov, T. Keith, R. Kobayashi, J. Normand, 
 K. Raghavachari, A. Rendell, J. C. Burant, S. S. Iyengar, J. Tomasi, 
 M. Cossi, N. Rega, J. M. Millam, M. Klene, J. E. Knox, J. B. Cross, 
 V. Bakken, C. Adamo, J. Jaramillo, R. Gomperts, R. E. Stratmann, 
 O. Yazyev, A. J. Austin, R. Cammi, C. Pomelli, J. W. Ochterski, 
 R. L. Martin, K. Morokuma, V. G. Zakrzewski, G. A. Voth, 
 P. Salvador, J. J. Dannenberg, S. Dapprich, A. D. Daniels, 
 O. Farkas, J. B. Foresman, J. V. Ortiz, J. Cioslowski, 
 and D. J. Fox, Gaussian, Inc., Wallingford CT, 2013.
 
 ******************************************
 Gaussian 09:  EM64W-G09RevD.01 13-Apr-2013
                25-Aug-2023 
 ******************************************
 %nprocshared=6
 Will use up to    6 processors via shared memory.
 %mem=6GB
 %chk=D:\machine learning\molecule_48.chk
 --------------------------------------------------------------------
 # opt freq b3lyp/6-31+g(d) geom=connectivity empiricaldispersion=gd3
 --------------------------------------------------------------------
 1/14=-1,18=20,19=15,26=3,38=1,57=2/1,3;
 2/9=110,12=2,17=6,18=5,40=1/2;
 3/5=1,6=6,7=11,11=2,16=1,25=1,30=1,71=1,74=-5,124=31/1,2,3;
 4//1;
 5/5=2,38=5/2;
 6/7=2,8=2,9=2,10=2,28=1/1;
 7//1,2,3,16;
 1/14=-1,18=20,19=15,26=3/3(2);
 2/9=110/2;
 99//99;
 2/9=110/2;
 3/5=1,6=6,7=11,11=2,16=1,25=1,30=1,71=1,74=-5,124=31/1,2,3;
 4/5=5,16=3,69=1/1;
 5/5=2,38=5/2;
 7//1,2,3,16;
 1/14=-1,18=20,19=15,26=3/3(-5);
 2/9=110/2;
 6/7=2,8=2,9=2,10=2,19=2,28=1/1;
 99/9=1/99;
 -------------------
 Title Card Required
 -------------------
 Symbolic Z-matrix:
 Charge =  0 Multiplicity = 1
 C                    -5.36675   1.73389   2.49017 
 C                    -4.2077    0.90089   0.5274 
 C                    -4.60045  -0.40643   0.85565 
 C                    -5.39008  -0.63795   1.99189 
 C                    -5.78938   0.43536   2.79811 
 H                    -5.64983   2.54887   3.12405 
 H                    -4.30373  -1.2298    0.23536 
 H                    -5.69835  -1.63292   2.24006 
 C                    -3.39461   1.17143  -0.74871 
 C                    -2.74961   1.38497  -1.76123 
 C                    -1.94097   1.65211  -3.0307 
 C                    -1.29589   1.86519  -4.04342 
 C                    -0.48887   2.13163  -5.31035 
 C                    -0.01729   1.0631   -6.0797 
 C                     0.74334   1.30704  -7.22577 
 H                    -0.23694   0.05873  -5.78495 
 C                     0.54697   3.69644  -6.83388 
 C                     1.03106   2.63146  -7.60009 
 H                     1.10811   0.49495  -7.81291 
 H                     0.75732   4.70095  -7.12714 
 C                    -4.5745    1.9672    1.35849 
 H                    -4.25661   2.96327   1.12543 
 H                     1.62379   2.82193  -8.47311 
 N                    -0.21169   3.44862  -5.68549 
 H                    -6.41535   0.26257   3.64868 
 

 GradGradGradGradGradGradGradGradGradGradGradGradGradGradGradGradGradGrad
 Berny optimization.
 Initialization pass.
                           ----------------------------
                           !    Initial Parameters    !
                           ! (Angstroms and Degrees)  !
 --------------------------                            --------------------------
 ! Name  Definition              Value          Derivative Info.                !
 --------------------------------------------------------------------------------
 ! R1    R(1,5)                  1.3999         estimate D2E/DX2                !
 ! R2    R(1,6)                  1.0706         estimate D2E/DX2                !
 ! R3    R(1,21)                 1.401          estimate D2E/DX2                !
 ! R4    R(2,3)                  1.404          estimate D2E/DX2                !
 ! R5    R(2,9)                  1.5371         estimate D2E/DX2                !
 ! R6    R(2,21)                 1.4008         estimate D2E/DX2                !
 ! R7    R(3,4)                  1.4029         estimate D2E/DX2                !
 ! R8    R(3,7)                  1.0727         estimate D2E/DX2                !
 ! R9    R(4,5)                  1.4005         estimate D2E/DX2                !
 ! R10   R(4,8)                  1.0708         estimate D2E/DX2                !
 ! R11   R(5,25)                 1.0701         estimate D2E/DX2                !
 ! R12   R(9,10)                 1.2193         estimate D2E/DX2                !
 ! R13   R(10,11)                1.5287         estimate D2E/DX2                !
 ! R14   R(11,12)                1.2195         estimate D2E/DX2                !
 ! R15   R(12,13)                1.5256         estimate D2E/DX2                !
 ! R16   R(13,14)                1.3986         estimate D2E/DX2                !
 ! R17   R(13,24)                1.3971         estimate D2E/DX2                !
 ! R18   R(14,15)                1.397          estimate D2E/DX2                !
 ! R19   R(14,16)                1.0695         estimate D2E/DX2                !
 ! R20   R(15,18)                1.4061         estimate D2E/DX2                !
 ! R21   R(15,19)                1.0664         estimate D2E/DX2                !
 ! R22   R(17,18)                1.3984         estimate D2E/DX2                !
 ! R23   R(17,20)                1.0674         estimate D2E/DX2                !
 ! R24   R(17,24)                1.3985         estimate D2E/DX2                !
 ! R25   R(18,23)                1.0723         estimate D2E/DX2                !
 ! R26   R(21,22)                1.0712         estimate D2E/DX2                !
 ! A1    A(5,1,6)              119.7402         estimate D2E/DX2                !
 ! A2    A(5,1,21)             120.1916         estimate D2E/DX2                !
 ! A3    A(6,1,21)             120.0681         estimate D2E/DX2                !
 ! A4    A(3,2,9)              120.3956         estimate D2E/DX2                !
 ! A5    A(3,2,21)             119.7913         estimate D2E/DX2                !
 ! A6    A(9,2,21)             119.8075         estimate D2E/DX2                !
 ! A7    A(2,3,4)              120.0323         estimate D2E/DX2                !
 ! A8    A(2,3,7)              120.1424         estimate D2E/DX2                !
 ! A9    A(4,3,7)              119.824          estimate D2E/DX2                !
 ! A10   A(3,4,5)              120.016          estimate D2E/DX2                !
 ! A11   A(3,4,8)              120.2048         estimate D2E/DX2                !
 ! A12   A(5,4,8)              119.7759         estimate D2E/DX2                !
 ! A13   A(1,5,4)              119.8796         estimate D2E/DX2                !
 ! A14   A(1,5,25)             120.0817         estimate D2E/DX2                !
 ! A15   A(4,5,25)             120.0386         estimate D2E/DX2                !
 ! A16   A(12,13,14)           120.117          estimate D2E/DX2                !
 ! A17   A(12,13,24)           119.5089         estimate D2E/DX2                !
 ! A18   A(14,13,24)           120.3695         estimate D2E/DX2                !
 ! A19   A(13,14,15)           120.0975         estimate D2E/DX2                !
 ! A20   A(13,14,16)           119.7763         estimate D2E/DX2                !
 ! A21   A(15,14,16)           120.1255         estimate D2E/DX2                !
 ! A22   A(14,15,18)           119.6241         estimate D2E/DX2                !
 ! A23   A(14,15,19)           120.3277         estimate D2E/DX2                !
 ! A24   A(18,15,19)           120.0477         estimate D2E/DX2                !
 ! A25   A(18,17,20)           119.8643         estimate D2E/DX2                !
 ! A26   A(18,17,24)           120.1824         estimate D2E/DX2                !
 ! A27   A(20,17,24)           119.9532         estimate D2E/DX2                !
 ! A28   A(15,18,17)           120.0422         estimate D2E/DX2                !
 ! A29   A(15,18,23)           119.8144         estimate D2E/DX2                !
 ! A30   A(17,18,23)           120.1434         estimate D2E/DX2                !
 ! A31   A(1,21,2)             120.0369         estimate D2E/DX2                !
 ! A32   A(1,21,22)            119.894          estimate D2E/DX2                !
 ! A33   A(2,21,22)            120.0671         estimate D2E/DX2                !
 ! A34   A(13,24,17)           119.68           estimate D2E/DX2                !
 ! A35   L(2,9,10,22,-1)       180.0511         estimate D2E/DX2                !
 ! A36   L(9,10,11,22,-1)      180.0217         estimate D2E/DX2                !
 ! A37   L(10,11,12,16,-1)     179.9986         estimate D2E/DX2                !
 ! A38   L(11,12,13,16,-1)     179.9951         estimate D2E/DX2                !
 ! A39   L(2,9,10,22,-2)       179.9981         estimate D2E/DX2                !
 ! A40   L(9,10,11,22,-2)      179.9982         estimate D2E/DX2                !
 ! A41   L(10,11,12,16,-2)     180.0            estimate D2E/DX2                !
 ! A42   L(11,12,13,16,-2)     180.0            estimate D2E/DX2                !
 ! D1    D(6,1,5,4)           -178.23           estimate D2E/DX2                !
 ! D2    D(6,1,5,25)             1.6876         estimate D2E/DX2                !
 ! D3    D(21,1,5,4)             1.6612         estimate D2E/DX2                !
 ! D4    D(21,1,5,25)         -178.4212         estimate D2E/DX2                !
 ! D5    D(5,1,21,2)             0.293          estimate D2E/DX2                !
 ! D6    D(5,1,21,22)          179.787          estimate D2E/DX2                !
 ! D7    D(6,1,21,2)          -179.8161         estimate D2E/DX2                !
 ! D8    D(6,1,21,22)           -0.3222         estimate D2E/DX2                !
 ! D9    D(9,2,3,4)           -177.3151         estimate D2E/DX2                !
 ! D10   D(9,2,3,7)              2.2616         estimate D2E/DX2                !
 ! D11   D(21,2,3,4)             1.8218         estimate D2E/DX2                !
 ! D12   D(21,2,3,7)          -178.6015         estimate D2E/DX2                !
 ! D13   D(3,2,13,14)           -6.6049         estimate D2E/DX2                !
 ! D14   D(3,2,13,24)          174.1747         estimate D2E/DX2                !
 ! D15   D(21,2,13,14)         174.2567         estimate D2E/DX2                !
 ! D16   D(21,2,13,24)          -4.9637         estimate D2E/DX2                !
 ! D17   D(3,2,21,1)            -2.0318         estimate D2E/DX2                !
 ! D18   D(3,2,21,22)          178.4751         estimate D2E/DX2                !
 ! D19   D(9,2,21,1)           177.1102         estimate D2E/DX2                !
 ! D20   D(9,2,21,22)           -2.3828         estimate D2E/DX2                !
 ! D21   D(2,3,4,5)              0.1279         estimate D2E/DX2                !
 ! D22   D(2,3,4,8)            179.4647         estimate D2E/DX2                !
 ! D23   D(7,3,4,5)           -179.4502         estimate D2E/DX2                !
 ! D24   D(7,3,4,8)             -0.1133         estimate D2E/DX2                !
 ! D25   D(3,4,5,1)             -1.8683         estimate D2E/DX2                !
 ! D26   D(3,4,5,25)           178.2141         estimate D2E/DX2                !
 ! D27   D(8,4,5,1)            178.792          estimate D2E/DX2                !
 ! D28   D(8,4,5,25)            -1.1256         estimate D2E/DX2                !
 ! D29   D(12,13,14,15)       -178.7765         estimate D2E/DX2                !
 ! D30   D(12,13,14,16)          0.9254         estimate D2E/DX2                !
 ! D31   D(24,13,14,15)          0.4354         estimate D2E/DX2                !
 ! D32   D(24,13,14,16)       -179.8627         estimate D2E/DX2                !
 ! D33   D(12,13,24,17)        178.9245         estimate D2E/DX2                !
 ! D34   D(14,13,24,17)         -0.2921         estimate D2E/DX2                !
 ! D35   D(13,14,15,18)         -0.0046         estimate D2E/DX2                !
 ! D36   D(13,14,15,19)        179.7518         estimate D2E/DX2                !
 ! D37   D(16,14,15,18)       -179.7054         estimate D2E/DX2                !
 ! D38   D(16,14,15,19)          0.0509         estimate D2E/DX2                !
 ! D39   D(14,15,18,17)         -0.567          estimate D2E/DX2                !
 ! D40   D(14,15,18,23)        179.3219         estimate D2E/DX2                !
 ! D41   D(19,15,18,17)        179.6759         estimate D2E/DX2                !
 ! D42   D(19,15,18,23)         -0.4351         estimate D2E/DX2                !
 ! D43   D(20,17,18,15)       -179.2723         estimate D2E/DX2                !
 ! D44   D(20,17,18,23)          0.8391         estimate D2E/DX2                !
 ! D45   D(24,17,18,15)          0.7121         estimate D2E/DX2                !
 ! D46   D(24,17,18,23)       -179.1764         estimate D2E/DX2                !
 ! D47   D(18,17,24,13)         -0.2821         estimate D2E/DX2                !
 ! D48   D(20,17,24,13)        179.7023         estimate D2E/DX2                !
 --------------------------------------------------------------------------------
 Trust Radius=3.00D-01 FncErr=1.00D-07 GrdErr=1.00D-06
 Number of steps in this run=    126 maximum allowed number of steps=    150.
 GradGradGradGradGradGradGradGradGradGradGradGradGradGradGradGradGradGrad

                          Input orientation:                          
 ---------------------------------------------------------------------
 Center     Atomic      Atomic             Coordinates (Angstroms)
 Number     Number       Type             X           Y           Z
 ---------------------------------------------------------------------
      1          6           0       -5.366751    1.733891    2.490169
      2          6           0       -4.207695    0.900893    0.527397
      3          6           0       -4.600449   -0.406426    0.855649
      4          6           0       -5.390080   -0.637945    1.991893
      5          6           0       -5.789381    0.435363    2.798114
      6          1           0       -5.649829    2.548869    3.124047
      7          1           0       -4.303730   -1.229805    0.235364
      8          1           0       -5.698350   -1.632915    2.240063
      9          6           0       -3.394608    1.171429   -0.748713
     10          6           0       -2.749606    1.384969   -1.761228
     11          6           0       -1.940972    1.652109   -3.030699
     12          6           0       -1.295886    1.865190   -4.043416
     13          6           0       -0.488873    2.131627   -5.310351
     14          6           0       -0.017288    1.063100   -6.079701
     15          6           0        0.743338    1.307042   -7.225772
     16          1           0       -0.236943    0.058726   -5.784953
     17          6           0        0.546974    3.696444   -6.833877
     18          6           0        1.031064    2.631459   -7.600092
     19          1           0        1.108113    0.494952   -7.812912
     20          1           0        0.757316    4.700949   -7.127135
     21          6           0       -4.574503    1.967196    1.358487
     22          1           0       -4.256605    2.963267    1.125431
     23          1           0        1.623793    2.821935   -8.473107
     24          7           0       -0.211689    3.448616   -5.685492
     25          1           0       -6.415347    0.262567    3.648684
 ---------------------------------------------------------------------
                    Distance matrix (angstroms):
                    1          2          3          4          5
     1  C    0.000000
     2  C    2.426885   0.000000
     3  C    2.799970   1.403955   0.000000
     4  C    2.423723   2.431215   1.402914   0.000000
     5  C    1.399865   2.806173   2.428031   1.400509   0.000000
     6  H    1.070571   3.396788   3.870477   3.391906   2.143038
     7  H    3.872681   2.152761   1.072730   2.148452   3.398181
     8  H    3.392329   3.402273   2.150875   1.070786   2.144174
     9  C    3.833546   1.537126   2.552970   3.842742   4.342432
    10  C    5.004555   2.756475   3.671888   5.014997   5.561437
    11  C    6.497895   4.285137   5.139463   6.509003   7.089836
    12  C    7.699150   5.504619   6.330973   7.710581   8.309178
    13  C    9.208692   7.030195   7.833666   9.220365   9.834628
    14  C   10.124692   7.825571   8.441798   9.844342  10.607860
    15  C   11.485422   9.208112   9.838771  11.241314  11.996439
    16  H    9.879208   7.504790   7.959532   9.355186  10.229392
    17  C   11.214348   9.198388  10.122170  11.486068  11.981623
    18  C   11.981279   9.823214  10.603879  11.996927  12.627906
    19  H   12.231611   9.898654  10.418451  11.817113  12.655941
    20  H   11.781349   9.883502  10.886495  12.225013  12.631906
    21  C    1.400997   1.400808   2.426438   2.802344   2.427955
    22  H    2.146229   2.147888   3.397917   3.873532   3.396700
    23  H   13.047796  10.895216  11.670013  13.064510  13.700048
    24  N    9.816129   7.814022   8.769783  10.122152  10.590652
    25  H    2.146277   3.876032   3.397418   2.146404   1.070122
                    6          7          8          9         10
     6  H    0.000000
     7  H    4.943162   0.000000
     8  H    4.274470   2.475133   0.000000
     9  C    4.688458   2.749697   4.701527   0.000000
    10  C    5.799299   3.638505   5.814898   1.219349   0.000000
    11  C    7.241595   4.955322   7.258801   2.748012   1.528662
    12  C    8.414082   6.077341   8.432113   3.967493   2.748144
    13  C    9.896900   7.523783   9.915603   5.493070   4.273720
    14  C   10.892291   7.969381  10.428874   6.311691   5.120387
    15  C   12.228389   9.358260  11.821198   7.687216   6.485983
    16  H   10.717762   7.378569   9.853400   6.047534   4.925724
    17  C   11.784632   9.887943  12.236933   7.677304   6.476274
    18  C   12.635202  10.235417  12.660906   8.286112   7.066791
    19  H   13.019425   9.850765  12.325504   8.404464   7.231667
    20  H   12.278831  10.723545  13.020670   8.389294   7.217145
    21  C    2.147527   3.399344   3.873114   2.542773   3.660855
    22  H    2.471288   4.286758   4.944282   2.732425   3.618684
    23  H   13.692120  11.286700  13.719748   9.358140   8.138846
    24  N   10.391867   8.584227  10.896781   6.299868   5.108768
    25  H    2.467476   4.282155   2.468025   5.411839   6.630580
                   11         12         13         14         15
    11  C    0.000000
    12  C    1.219482   0.000000
    13  C    2.745058   1.525576   0.000000
    14  C    3.652931   2.534682   1.398585   0.000000
    15  C    4.992318   3.820649   2.422215   1.396976   0.000000
    16  H    3.609501   2.723531   2.141409   1.069529   2.143643
    17  C    4.983307   3.812650   2.417181   2.796726   2.429277
    18  C    5.538184   4.318774   2.793377   2.422887   1.406052
    19  H    5.788393   4.676095   3.389968   2.143208   1.066435
    20  H    5.775550   4.665458   3.384540   3.864075   3.395369
    21  C    5.128325   6.319834   7.822584   8.769962  10.119524
    22  H    4.935049   6.057113   7.503781   8.573003   9.873456
    23  H    6.610284   5.390923   3.865606   3.393383   2.150802
    24  N    3.642223   2.525695   1.397148   2.425671   2.805509
    25  H    8.158738   9.377936  10.903247  11.671224  13.061068
                   16         17         18         19         20
    16  H    0.000000
    17  C    3.866234   0.000000
    18  C    3.394338   1.398436   0.000000
    19  H    2.472263   3.394546   2.148463   0.000000
    20  H    4.933583   1.067368   2.140424   4.275952   0.000000
    21  C    8.572364   9.815022  10.588663  10.889178  10.387853
    22  H    8.505731   9.325370  10.208051  10.712925   9.811412
    23  H    4.280635   2.147413   1.072271   2.473183   2.468425
    24  N    3.391443   1.398491   2.424433   3.871941   2.141412
    25  H   11.278640  13.044137  13.696556  13.712207  13.684466
                   21         22         23         24         25
    21  C    0.000000
    22  H    1.071229   0.000000
    23  H   11.653743  11.257487   0.000000
    24  N    8.417030   7.936346   3.395957   0.000000
    25  H    3.396979   4.280275  14.768750  11.651744   0.000000
 Stoichiometry    C15H9N
 Framework group  C1[X(C15H9N)]
 Deg. of freedom    69
 Full point group                 C1      NOp   1
 Largest Abelian subgroup         C1      NOp   1
 Largest concise Abelian subgroup C1      NOp   1
                         Standard orientation:                         
 ---------------------------------------------------------------------
 Center     Atomic      Atomic             Coordinates (Angstroms)
 Number     Number       Type             X           Y           Z
 ---------------------------------------------------------------------
      1          6           0        5.616806   -1.216055    0.043558
      2          6           0        3.517809    0.002113    0.036682
      3          6           0        4.225702    1.212878   -0.026749
      4          6           0        5.627865    1.204889   -0.071942
      5          6           0        6.322402   -0.011173   -0.056513
      6          1           0        6.151336   -2.142760    0.083794
      7          1           0        3.696551    2.145783   -0.047645
      8          1           0        6.170270    2.126369   -0.128991
      9          6           0        1.980736   -0.001683    0.024469
     10          6           0        0.761427   -0.003606    0.014746
     11          6           0       -0.767186   -0.005437    0.002549
     12          6           0       -1.986628   -0.006869   -0.007178
     13          6           0       -3.512155   -0.008531   -0.019342
     14          6           0       -4.215774    1.198432    0.045489
     15          6           0       -5.612669    1.195070    0.060095
     16          1           0       -3.680725    2.123500    0.088658
     17          6           0       -5.596981   -1.230797   -0.067614
     18          6           0       -6.305322   -0.027478    0.009185
     19          1           0       -6.152842    2.113030    0.113449
     20          1           0       -6.125832   -2.156576   -0.117857
     21          6           0        4.216702   -1.210573    0.093258
     22          1           0        3.681439   -2.135601    0.166393
     23          1           0       -7.377346   -0.034170    0.031221
     24          7           0       -4.198554   -1.223979   -0.079055
     25          1           0        7.390624   -0.018812   -0.119795
 ---------------------------------------------------------------------
 Rotational constants (GHZ):      2.8608936      0.1242912      0.1191489
 Standard basis: 6-31+G(d) (6D, 7F)
 There are   322 symmetry adapted cartesian basis functions of A   symmetry.
 There are   322 symmetry adapted basis functions of A   symmetry.
   322 basis functions,   548 primitive gaussians,   322 cartesian basis functions
    53 alpha electrons       53 beta electrons
       nuclear repulsion energy       779.3904823194 Hartrees.
 NAtoms=   25 NActive=   25 NUniq=   25 SFac= 1.00D+00 NAtFMM=   60 NAOKFM=F Big=F
 Integral buffers will be    131072 words long.
 Raffenetti 2 integral format.
 Two-electron integral symmetry is turned on.
 Nuclear repulsion after empirical dispersion term =      779.3764548468 Hartrees.
 One-electron integrals computed using PRISM.
 NBasis=   322 RedAO= T EigKep=  1.24D-06  NBF=   322
 NBsUse=   318 1.00D-06 EigRej=  1.67D-07 NBFU=   318
 ExpMin= 4.38D-02 ExpMax= 4.17D+03 ExpMxC= 6.27D+02 IAcc=2 IRadAn=         4 AccDes= 0.00D+00
 Harris functional with IExCor=  402 and IRadAn=       4 diagonalized for initial guess.
 HarFok:  IExCor=  402 AccDes= 0.00D+00 IRadAn=         4 IDoV= 1 UseB2=F ITyADJ=14
 ICtDFT=  3500011 ScaDFX=  1.000000  1.000000  1.000000  1.000000
 FoFCou: FMM=F IPFlag=           0 FMFlag=      100000 FMFlg1=           0
         NFxFlg=           0 DoJE=T BraDBF=F KetDBF=T FulRan=T
         wScrn=  0.000000 ICntrl=     500 IOpCl=  0 I1Cent=   200000004 NGrid=           0
         NMat0=    1 NMatS0=      1 NMatT0=    0 NMatD0=    1 NMtDS0=    0 NMtDT0=    0
 Petite list used in FoFCou.
 Requested convergence on RMS density matrix=1.00D-08 within 128 cycles.
 Requested convergence on MAX density matrix=1.00D-06.
 Requested convergence on             energy=1.00D-06.
 No special actions if energy rises.
 SCF Done:  E(RB3LYP) =  -631.651657952     A.U. after   15 cycles
            NFock= 15  Conv=0.88D-08     -V/T= 2.0112

 **********************************************************************

            Population analysis using the SCF density.

 **********************************************************************

 Orbital symmetries:
       Occupied  (A) (A) (A) (A) (A) (A) (A) (A) (A) (A) (A) (A)
                 (A) (A) (A) (A) (A) (A) (A) (A) (A) (A) (A) (A)
                 (A) (A) (A) (A) (A) (A) (A) (A) (A) (A) (A) (A)
                 (A) (A) (A) (A) (A) (A) (A) (A) (A) (A) (A) (A)
                 (A) (A) (A) (A) (A)
       Virtual   (A) (A) (A) (A) (A) (A) (A) (A) (A) (A) (A) (A)
                 (A) (A) (A) (A) (A) (A) (A) (A) (A) (A) (A) (A)
                 (A) (A) (A) (A) (A) (A) (A) (A) (A) (A) (A) (A)
                 (A) (A) (A) (A) (A) (A) (A) (A) (A) (A) (A) (A)
                 (A) (A) (A) (A) (A) (A) (A) (A) (A) (A) (A) (A)
                 (A) (A) (A) (A) (A) (A) (A) (A) (A) (A) (A) (A)
                 (A) (A) (A) (A) (A) (A) (A) (A) (A) (A) (A) (A)
                 (A) (A) (A) (A) (A) (A) (A) (A) (A) (A) (A) (A)
                 (A) (A) (A) (A) (A) (A) (A) (A) (A) (A) (A) (A)
                 (A) (A) (A) (A) (A) (A) (A) (A) (A) (A) (A) (A)
                 (A) (A) (A) (A) (A) (A) (A) (A) (A) (A) (A) (A)
                 (A) (A) (A) (A) (A) (A) (A) (A) (A) (A) (A) (A)
                 (A) (A) (A) (A) (A) (A) (A) (A) (A) (A) (A) (A)
                 (A) (A) (A) (A) (A) (A) (A) (A) (A) (A) (A) (A)
                 (A) (A) (A) (A) (A) (A) (A) (A) (A) (A) (A) (A)
                 (A) (A) (A) (A) (A) (A) (A) (A) (A) (A) (A) (A)
                 (A) (A) (A) (A) (A) (A) (A) (A) (A) (A) (A) (A)
                 (A) (A) (A) (A) (A) (A) (A) (A) (A) (A) (A) (A)
                 (A) (A) (A) (A) (A) (A) (A) (A) (A) (A) (A) (A)
                 (A) (A) (A) (A) (A) (A) (A) (A) (A) (A) (A) (A)
                 (A) (A) (A) (A) (A) (A) (A) (A) (A) (A) (A) (A)
                 (A) (A) (A) (A) (A) (A) (A) (A) (A) (A) (A) (A)
                 (A)
 The electronic state is 1-A.
 Alpha  occ. eigenvalues --  -14.35890 -10.27841 -10.24691 -10.24366 -10.23865
 Alpha  occ. eigenvalues --  -10.23444 -10.22666 -10.22404 -10.22393 -10.22074
 Alpha  occ. eigenvalues --  -10.21864 -10.21296 -10.21185 -10.20973 -10.20922
 Alpha  occ. eigenvalues --  -10.20873  -0.93693  -0.87458  -0.81438  -0.80275
 Alpha  occ. eigenvalues --   -0.79056  -0.76602  -0.76425  -0.73832  -0.65744
 Alpha  occ. eigenvalues --   -0.64592  -0.63055  -0.62538  -0.58120  -0.55117
 Alpha  occ. eigenvalues --   -0.53712  -0.50138  -0.49577  -0.49125  -0.46841
 Alpha  occ. eigenvalues --   -0.46304  -0.45151  -0.44079  -0.42302  -0.40953
 Alpha  occ. eigenvalues --   -0.39185  -0.39075  -0.37339  -0.36773  -0.34509
 Alpha  occ. eigenvalues --   -0.33638  -0.31172  -0.29458  -0.27570  -0.27090
 Alpha  occ. eigenvalues --   -0.26924  -0.26742  -0.23953
 Alpha virt. eigenvalues --   -0.07199  -0.04761  -0.03372  -0.02688  -0.01921
 Alpha virt. eigenvalues --   -0.00139   0.00180   0.01899   0.02329   0.02453
 Alpha virt. eigenvalues --    0.02989   0.03318   0.04642   0.04712   0.05262
 Alpha virt. eigenvalues --    0.05305   0.05359   0.05602   0.06675   0.07381
 Alpha virt. eigenvalues --    0.07826   0.08421   0.08794   0.08982   0.09245
 Alpha virt. eigenvalues --    0.09537   0.09955   0.10185   0.10802   0.11083
 Alpha virt. eigenvalues --    0.12339   0.12642   0.12944   0.13544   0.13859
 Alpha virt. eigenvalues --    0.14097   0.14175   0.14420   0.14569   0.15008
 Alpha virt. eigenvalues --    0.15131   0.15491   0.16176   0.16584   0.16782
 Alpha virt. eigenvalues --    0.17134   0.17317   0.18873   0.19086   0.19781
 Alpha virt. eigenvalues --    0.20087   0.20385   0.20517   0.20768   0.20865
 Alpha virt. eigenvalues --    0.21555   0.21768   0.21936   0.22679   0.23088
 Alpha virt. eigenvalues --    0.23894   0.23991   0.24791   0.25077   0.25444
 Alpha virt. eigenvalues --    0.26028   0.26372   0.26966   0.27254   0.27923
 Alpha virt. eigenvalues --    0.28309   0.28506   0.28907   0.29892   0.30450
 Alpha virt. eigenvalues --    0.31204   0.32093   0.32363   0.32904   0.33293
 Alpha virt. eigenvalues --    0.33659   0.34074   0.34550   0.36309   0.38901
 Alpha virt. eigenvalues --    0.39507   0.41981   0.45392   0.47290   0.51129
 Alpha virt. eigenvalues --    0.53687   0.54968   0.56094   0.58738   0.62444
 Alpha virt. eigenvalues --    0.63933   0.64753   0.64822   0.66222   0.67257
 Alpha virt. eigenvalues --    0.68871   0.69221   0.69962   0.70008   0.70518
 Alpha virt. eigenvalues --    0.70977   0.71258   0.71471   0.72116   0.72193
 Alpha virt. eigenvalues --    0.73633   0.73845   0.74219   0.75230   0.75526
 Alpha virt. eigenvalues --    0.76620   0.77476   0.78621   0.80422   0.80754
 Alpha virt. eigenvalues --    0.82278   0.83485   0.84213   0.84857   0.88124
 Alpha virt. eigenvalues --    0.89702   0.90641   0.91289   0.91898   0.93532
 Alpha virt. eigenvalues --    0.93941   0.94489   0.94637   0.95424   0.96040
 Alpha virt. eigenvalues --    0.96918   1.00098   1.00765   1.01220   1.02084
 Alpha virt. eigenvalues --    1.02941   1.03483   1.06815   1.07673   1.09250
 Alpha virt. eigenvalues --    1.11919   1.13483   1.14795   1.15392   1.16187
 Alpha virt. eigenvalues --    1.17297   1.17599   1.19088   1.20886   1.22630
 Alpha virt. eigenvalues --    1.23621   1.24794   1.26011   1.26625   1.28018
 Alpha virt. eigenvalues --    1.28598   1.31724   1.34866   1.41243   1.41632
 Alpha virt. eigenvalues --    1.42035   1.42928   1.44019   1.44777   1.45308
 Alpha virt. eigenvalues --    1.45776   1.46685   1.47610   1.47693   1.48935
 Alpha virt. eigenvalues --    1.49492   1.51325   1.51713   1.56662   1.58403
 Alpha virt. eigenvalues --    1.61127   1.63395   1.64426   1.75687   1.77069
 Alpha virt. eigenvalues --    1.79994   1.82107   1.82742   1.83817   1.84999
 Alpha virt. eigenvalues --    1.85973   1.86346   1.89711   1.90855   1.93724
 Alpha virt. eigenvalues --    1.95481   1.96231   1.96519   1.97018   1.99689
 Alpha virt. eigenvalues --    2.00799   2.03167   2.07653   2.08463   2.10026
 Alpha virt. eigenvalues --    2.12667   2.13229   2.13970   2.14127   2.14953
 Alpha virt. eigenvalues --    2.15263   2.17237   2.17550   2.23409   2.25040
 Alpha virt. eigenvalues --    2.28228   2.28424   2.28654   2.28714   2.30996
 Alpha virt. eigenvalues --    2.38067   2.46602   2.50632   2.55330   2.56160
 Alpha virt. eigenvalues --    2.56628   2.58848   2.61151   2.61619   2.62143
 Alpha virt. eigenvalues --    2.62316   2.63851   2.65902   2.70714   2.73038
 Alpha virt. eigenvalues --    2.73362   2.76997   2.78830   2.79621   2.82135
 Alpha virt. eigenvalues --    2.90627   2.92855   2.94034   3.06816   3.14895
 Alpha virt. eigenvalues --    3.18786   3.33775   3.41088   3.61480   4.07025
 Alpha virt. eigenvalues --    4.18895   4.19295   4.23938   4.24306   4.26038
 Alpha virt. eigenvalues --    4.27616   4.30575   4.34019   4.38318   4.40166
 Alpha virt. eigenvalues --    4.53960   4.55883   4.69188   4.76487   5.25385
          Condensed to atoms (all electrons):
               1          2          3          4          5          6
     1  C    9.273387   1.499185   5.222278  -1.970255   0.729790   0.313949
     2  C    1.499185  16.090379  -4.489747   1.677384   0.250978   0.001108
     3  C    5.222278  -4.489747  29.342286  -7.930749  -0.575760  -0.004823
     4  C   -1.970255   1.677384  -7.930749   9.059671   0.744345   0.009173
     5  C    0.729790   0.250978  -0.575760   0.744345   5.407156   0.015654
     6  H    0.313949   0.001108  -0.004823   0.009173   0.015654   0.530689
     7  H   -0.008466  -0.059874   0.332521  -0.075749   0.008251   0.000017
     8  H    0.008206   0.002397  -0.036199   0.314104   0.016828  -0.000173
     9  C   -0.820915  -5.347093   2.246873  -0.968468  -0.259112  -0.007784
    10  C    0.123558   2.034134  -0.612423   0.137969   0.053128  -0.000749
    11  C   -0.050238  -1.958856   0.212306  -0.077453  -0.012946  -0.000131
    12  C   -0.007733  -0.050712  -0.028029  -0.000194   0.003115  -0.000009
    13  C   -0.002476  -0.246162  -0.001373  -0.001903  -0.000031   0.000000
    14  C   -0.000118   0.032801  -0.001846   0.000164   0.000025   0.000000
    15  C    0.000003  -0.006849   0.000059   0.000009  -0.000006   0.000000
    16  H    0.000000   0.000111  -0.000006   0.000000   0.000000   0.000000
    17  C    0.000054  -0.002243   0.000264  -0.000021  -0.000003   0.000000
    18  C   -0.000008   0.001533  -0.000105   0.000004   0.000001   0.000000
    19  H    0.000000   0.000000   0.000000   0.000000   0.000000   0.000000
    20  H    0.000000  -0.000002   0.000000   0.000000   0.000000   0.000000
    21  C   -8.226378  -3.908417 -17.252347   5.104996  -0.511282  -0.032950
    22  H   -0.076372  -0.058000   0.027451  -0.008697   0.008751  -0.004729
    23  H    0.000000   0.000000   0.000000   0.000000   0.000000   0.000000
    24  N   -0.000015   0.000353   0.000048   0.000009  -0.000001   0.000000
    25  H   -0.012215  -0.001762   0.012432  -0.012569   0.289460  -0.004976
               7          8          9         10         11         12
     1  C   -0.008466   0.008206  -0.820915   0.123558  -0.050238  -0.007733
     2  C   -0.059874   0.002397  -5.347093   2.034134  -1.958856  -0.050712
     3  C    0.332521  -0.036199   2.246873  -0.612423   0.212306  -0.028029
     4  C   -0.075749   0.314104  -0.968468   0.137969  -0.077453  -0.000194
     5  C    0.008251   0.016828  -0.259112   0.053128  -0.012946   0.003115
     6  H    0.000017  -0.000173  -0.007784  -0.000749  -0.000131  -0.000009
     7  H    0.523198  -0.004666   0.053013   0.000926   0.006033   0.000776
     8  H   -0.004666   0.530750  -0.008207  -0.000546  -0.000142  -0.000007
     9  C    0.053013  -0.008207  11.895512  -1.439193   0.587453  -0.332650
    10  C    0.000926  -0.000546  -1.439193   9.202065  -2.508370   0.034970
    11  C    0.006033  -0.000142   0.587453  -2.508370   9.253332  -0.257244
    12  C    0.000776  -0.000007  -0.332650   0.034970  -0.257244   9.057917
    13  C    0.000118   0.000000  -0.235250  -1.364094   0.475379  -1.596012
    14  C   -0.000004   0.000000   0.074066   0.146254  -0.354201   0.387493
    15  C    0.000000   0.000000  -0.027178  -0.054781  -0.001723  -0.128650
    16  H    0.000000   0.000000   0.000760   0.006673   0.008076   0.054080
    17  C    0.000000   0.000000  -0.015759  -0.012577  -0.058792   0.075343
    18  C    0.000000   0.000000   0.007835   0.007745  -0.010123  -0.158677
    19  H    0.000000   0.000000  -0.000006  -0.000121  -0.000618  -0.008284
    20  H    0.000000   0.000000  -0.000019  -0.000469   0.000444  -0.012231
    21  C    0.026852  -0.002844   1.669297  -0.560751   0.119007   0.010438
    22  H   -0.000148   0.000017   0.049034   0.001492   0.005770   0.000851
    23  H    0.000000   0.000000   0.000001   0.000020   0.000334   0.002591
    24  N    0.000000   0.000000   0.006592   0.029179   0.000689   0.051709
    25  H   -0.000148  -0.004942   0.002269   0.000443   0.000028   0.000003
              13         14         15         16         17         18
     1  C   -0.002476  -0.000118   0.000003   0.000000   0.000054  -0.000008
     2  C   -0.246162   0.032801  -0.006849   0.000111  -0.002243   0.001533
     3  C   -0.001373  -0.001846   0.000059  -0.000006   0.000264  -0.000105
     4  C   -0.001903   0.000164   0.000009   0.000000  -0.000021   0.000004
     5  C   -0.000031   0.000025  -0.000006   0.000000  -0.000003   0.000001
     6  H    0.000000   0.000000   0.000000   0.000000   0.000000   0.000000
     7  H    0.000118  -0.000004   0.000000   0.000000   0.000000   0.000000
     8  H    0.000000   0.000000   0.000000   0.000000   0.000000   0.000000
     9  C   -0.235250   0.074066  -0.027178   0.000760  -0.015759   0.007835
    10  C   -1.364094   0.146254  -0.054781   0.006673  -0.012577   0.007745
    11  C    0.475379  -0.354201  -0.001723   0.008076  -0.058792  -0.010123
    12  C   -1.596012   0.387493  -0.128650   0.054080   0.075343  -0.158677
    13  C   11.274494  -4.881054   2.485302  -0.038772   0.980862  -1.206025
    14  C   -4.881054  14.537264  -4.346702   0.264371  -1.870532   1.936207
    15  C    2.485302  -4.346702   7.966223  -0.006521   1.063519  -0.810399
    16  H   -0.038772   0.264371  -0.006521   0.512851  -0.002807  -0.001817
    17  C    0.980862  -1.870532   1.063519  -0.002807   6.070316  -0.470479
    18  C   -1.206025   1.936207  -0.810399  -0.001817  -0.470479   6.327018
    19  H    0.000363  -0.009000   0.290030  -0.004953  -0.005419   0.025841
    20  H    0.055809  -0.036849   0.037206   0.000019   0.426858  -0.117451
    21  C    0.009957   0.001710  -0.000142   0.000002  -0.000405   0.000110
    22  H    0.000117  -0.000001   0.000000   0.000000   0.000000   0.000000
    23  H    0.010851  -0.010877   0.013185  -0.000118   0.008689   0.265099
    24  N   -0.179817   0.304459  -0.213391   0.005131   0.040114   0.164679
    25  H    0.000000   0.000000   0.000000   0.000000   0.000000   0.000000
              19         20         21         22         23         24
     1  C    0.000000   0.000000  -8.226378  -0.076372   0.000000  -0.000015
     2  C    0.000000  -0.000002  -3.908417  -0.058000   0.000000   0.000353
     3  C    0.000000   0.000000 -17.252347   0.027451   0.000000   0.000048
     4  C    0.000000   0.000000   5.104996  -0.008697   0.000000   0.000009
     5  C    0.000000   0.000000  -0.511282   0.008751   0.000000  -0.000001
     6  H    0.000000   0.000000  -0.032950  -0.004729   0.000000   0.000000
     7  H    0.000000   0.000000   0.026852  -0.000148   0.000000   0.000000
     8  H    0.000000   0.000000  -0.002844   0.000017   0.000000   0.000000
     9  C   -0.000006  -0.000019   1.669297   0.049034   0.000001   0.006592
    10  C   -0.000121  -0.000469  -0.560751   0.001492   0.000020   0.029179
    11  C   -0.000618   0.000444   0.119007   0.005770   0.000334   0.000689
    12  C   -0.008284  -0.012231   0.010438   0.000851   0.002591   0.051709
    13  C    0.000363   0.055809   0.009957   0.000117   0.010851  -0.179817
    14  C   -0.009000  -0.036849   0.001710  -0.000001  -0.010877   0.304459
    15  C    0.290030   0.037206  -0.000142   0.000000   0.013185  -0.213391
    16  H   -0.004953   0.000019   0.000002   0.000000  -0.000118   0.005131
    17  C   -0.005419   0.426858  -0.000405   0.000000   0.008689   0.040114
    18  C    0.025841  -0.117451   0.000110   0.000000   0.265099   0.164679
    19  H    0.522837  -0.000156   0.000000   0.000000  -0.004919   0.001212
    20  H   -0.000156   0.534815   0.000000   0.000000  -0.001633  -0.079521
    21  C    0.000000   0.000000  29.698765   0.334278   0.000000  -0.000086
    22  H    0.000000   0.000000   0.334278   0.520397   0.000000   0.000000
    23  H   -0.004919  -0.001633   0.000000   0.000000   0.525534   0.003618
    24  N    0.001212  -0.079521  -0.000086   0.000000   0.003618   7.017134
    25  H    0.000000   0.000000   0.013640  -0.000148   0.000000   0.000000
              25
     1  C   -0.012215
     2  C   -0.001762
     3  C    0.012432
     4  C   -0.012569
     5  C    0.289460
     6  H   -0.004976
     7  H   -0.000148
     8  H   -0.004942
     9  C    0.002269
    10  C    0.000443
    11  C    0.000028
    12  C    0.000003
    13  C    0.000000
    14  C    0.000000
    15  C    0.000000
    16  H    0.000000
    17  C    0.000000
    18  C    0.000000
    19  H    0.000000
    20  H    0.000000
    21  C    0.013640
    22  H   -0.000148
    23  H    0.000000
    24  N    0.000000
    25  H    0.535731
 Mulliken charges:
               1
     1  C    0.004777
     2  C    0.539354
     3  C   -0.463110
     4  C   -0.001767
     5  C   -0.168339
     6  H    0.185737
     7  H    0.197351
     8  H    0.185426
     9  C   -1.131072
    10  C    0.775518
    11  C    0.621988
    12  C   -1.098852
    13  C    0.459719
    14  C   -0.173630
    15  C   -0.259196
    16  H    0.202919
    17  C   -0.226979
    18  C    0.039013
    19  H    0.193193
    20  H    0.193181
    21  C   -0.493449
    22  H    0.199935
    23  H    0.187624
    24  N   -0.152094
    25  H    0.182754
 Sum of Mulliken charges =   0.00000
 Mulliken charges with hydrogens summed into heavy atoms:
               1
     1  C    0.190514
     2  C    0.539354
     3  C   -0.265758
     4  C    0.183659
     5  C    0.014415
     9  C   -1.131072
    10  C    0.775518
    11  C    0.621988
    12  C   -1.098852
    13  C    0.459719
    14  C    0.029289
    15  C   -0.066003
    17  C   -0.033798
    18  C    0.226637
    21  C   -0.293514
    24  N   -0.152094
 Electronic spatial extent (au):  <R**2>=           8337.9053
 Charge=              0.0000 electrons
 Dipole moment (field-independent basis, Debye):
    X=             -0.4206    Y=              2.0156    Z=              0.1048  Tot=              2.0617
 Quadrupole moment (field-independent basis, Debye-Ang):
   XX=            -47.9264   YY=            -85.9579   ZZ=            -99.0875
   XY=             -6.7490   XZ=             -0.8506   YZ=             -0.2935
 Traceless Quadrupole moment (field-independent basis, Debye-Ang):
   XX=             29.7309   YY=             -8.3006   ZZ=            -21.4303
   XY=             -6.7490   XZ=             -0.8506   YZ=             -0.2935
 Octapole moment (field-independent basis, Debye-Ang**2):
  XXX=            -83.1854  YYY=              9.1814  ZZZ=             -0.1937  XYY=              8.3814
  XXY=             16.4422  XXZ=             -1.4636  XZZ=             -7.2190  YZZ=             -0.8523
  YYZ=              0.8455  XYZ=             -3.6764
 Hexadecapole moment (field-independent basis, Debye-Ang**3):
 XXXX=          -8667.8129 YYYY=           -565.6703 ZZZZ=           -123.2627 XXXY=            -23.6850
 XXXZ=            -40.5996 YYYX=            -29.5501 YYYZ=             -1.3506 ZZZX=              0.3399
 ZZZY=              0.1126 XXYY=          -1721.0215 XXZZ=          -2066.7408 YYZZ=           -132.6958
 XXYZ=             -1.9016 YYXZ=             -1.3758 ZZXY=              3.7279
 N-N= 7.793764548468D+02 E-N=-3.020064551178D+03  KE= 6.246349773444D+02
 Calling FoFJK, ICntrl=      2127 FMM=F ISym2X=0 I1Cent= 0 IOpClX= 0 NMat=1 NMatS=1 NMatT=0.
 ***** Axes restored to original set *****
 -------------------------------------------------------------------
 Center     Atomic                   Forces (Hartrees/Bohr)
 Number     Number              X              Y              Z
 -------------------------------------------------------------------
      1        6           0.004862905   -0.010853576   -0.009365494
      2        6           0.027863052    0.008070457   -0.044841324
      3        6          -0.005255152    0.003130500    0.007684337
      4        6           0.005245732    0.014907762   -0.006048285
      5        6           0.008485911    0.001673698   -0.010475422
      6        1          -0.002875067    0.009566782    0.005793969
      7        1           0.002827977   -0.006354812   -0.006298523
      8        1          -0.002663474   -0.010923128    0.001437936
      9        6          -0.023278199   -0.009429572    0.040225006
     10        6           0.046848490    0.015365017   -0.074361618
     11        6          -0.046182761   -0.015624702    0.072636517
     12        6           0.022155270    0.013747753   -0.035778393
     13        6          -0.005641240    0.033858035    0.013053228
     14        6           0.002884508    0.002519515   -0.004432585
     15        6          -0.005778704    0.020774964    0.010130751
     16        1          -0.002774372   -0.011433687    0.003665002
     17        6          -0.028138241   -0.050564092    0.041250975
     18        6          -0.005091432   -0.006075194    0.006993525
     19        1           0.004627226   -0.011396668   -0.007399759
     20        1          -0.002202283    0.015397226    0.004254702
     21        6          -0.005967578   -0.005369208    0.006197212
     22        1           0.003203145    0.009396060   -0.003296391
     23        1           0.005652139    0.002395528   -0.009026099
     24        7           0.007479722   -0.010771789   -0.012077803
     25        1          -0.006287574   -0.002006870    0.010078537
 -------------------------------------------------------------------
 Cartesian Forces:  Max     0.074361618 RMS     0.020767188

 GradGradGradGradGradGradGradGradGradGradGradGradGradGradGradGradGradGrad
 Berny optimization.
 FormGI is forming the generalized inverse of G from B-inverse, IUseBI=4.
 Internal  Forces:  Max     0.100193813 RMS     0.014740945
 Search for a local minimum.
 Step number   1 out of a maximum of  126
 All quantities printed in internal units (Hartrees-Bohrs-Radians)
 Mixed Optimization -- RFO/linear search
 Second derivative matrix not updated -- first step.
 ITU=  0
     Eigenvalues ---    0.00230   0.00335   0.00385   0.00389   0.00428
     Eigenvalues ---    0.01445   0.01546   0.01807   0.01968   0.02039
     Eigenvalues ---    0.02043   0.02051   0.02053   0.02066   0.02073
     Eigenvalues ---    0.02077   0.02078   0.02083   0.02084   0.02087
     Eigenvalues ---    0.02094   0.02118   0.03542   0.04327   0.04477
     Eigenvalues ---    0.04478   0.15999   0.15999   0.16000   0.16000
     Eigenvalues ---    0.16000   0.16000   0.16000   0.16000   0.16000
     Eigenvalues ---    0.21996   0.21997   0.22000   0.22409   0.23480
     Eigenvalues ---    0.24408   0.24997   0.24998   0.28775   0.29547
     Eigenvalues ---    0.29836   0.36887   0.36945   0.37075   0.37131
     Eigenvalues ---    0.37158   0.37215   0.37290   0.37565   0.37684
     Eigenvalues ---    0.41189   0.41481   0.41652   0.42148   0.45132
     Eigenvalues ---    0.45199   0.45308   0.45508   0.45560   0.45868
     Eigenvalues ---    0.45951   0.46072   0.95613   0.95672
 RFO step:  Lambda=-6.56440670D-02 EMin= 2.30000000D-03
 Linear search not attempted -- first point.
 Maximum step size (   0.300) exceeded in Quadratic search.
    -- Step size scaled by   0.715
 Iteration  1 RMS(Cart)=  0.11785687 RMS(Int)=  0.00027436
 Iteration  2 RMS(Cart)=  0.00041879 RMS(Int)=  0.00002066
 Iteration  3 RMS(Cart)=  0.00000034 RMS(Int)=  0.00002066
 Variable       Old X    -DE/DX   Delta X   Delta X   Delta X     New X
                                 (Linear)    (Quad)   (Total)
    R1        2.64536  -0.00035   0.00000  -0.00050  -0.00050   2.64486
    R2        2.02309   0.01147   0.00000   0.01875   0.01875   2.04184
    R3        2.64750  -0.00478   0.00000  -0.00644  -0.00644   2.64106
    R4        2.65309  -0.00157   0.00000  -0.00216  -0.00216   2.65093
    R5        2.90475  -0.05834   0.00000  -0.11796  -0.11796   2.78679
    R6        2.64714   0.00126   0.00000   0.00187   0.00187   2.64902
    R7        2.65112  -0.00637   0.00000  -0.00892  -0.00892   2.64220
    R8        2.02717   0.00930   0.00000   0.01530   0.01530   2.04246
    R9        2.64658  -0.00046   0.00000  -0.00077  -0.00078   2.64580
   R10        2.02349   0.01125   0.00000   0.01840   0.01840   2.04189
   R11        2.02224   0.01201   0.00000   0.01961   0.01961   2.04184
   R12        2.30424  -0.01097   0.00000  -0.00767  -0.00767   2.29657
   R13        2.88875  -0.10019   0.00000  -0.19824  -0.19824   2.69051
   R14        2.30449  -0.01271   0.00000  -0.00889  -0.00889   2.29560
   R15        2.88292  -0.05655   0.00000  -0.11100  -0.11100   2.77192
   R16        2.64294   0.00279   0.00000   0.00439   0.00436   2.64731
   R17        2.64023  -0.04721   0.00000  -0.06588  -0.06592   2.57430
   R18        2.63990  -0.00907   0.00000  -0.00988  -0.00986   2.63004
   R19        2.02112   0.01232   0.00000   0.02007   0.02007   2.04118
   R20        2.65705  -0.01242   0.00000  -0.01545  -0.01541   2.64164
   R21        2.01527   0.01434   0.00000   0.02315   0.02315   2.03842
   R22        2.64266  -0.00041   0.00000  -0.00115  -0.00113   2.64153
   R23        2.01703   0.01289   0.00000   0.02087   0.02087   2.03790
   R24        2.64276  -0.05088   0.00000  -0.07175  -0.07177   2.57100
   R25        2.02630   0.01090   0.00000   0.01790   0.01790   2.04420
   R26        2.02433   0.01040   0.00000   0.01704   0.01704   2.04136
    A1        2.08986   0.00129   0.00000   0.00385   0.00385   2.09371
    A2        2.09774  -0.00015   0.00000  -0.00002  -0.00003   2.09771
    A3        2.09558  -0.00114   0.00000  -0.00383  -0.00382   2.09176
    A4        2.10130  -0.00251   0.00000  -0.00588  -0.00588   2.09542
    A5        2.09075   0.00324   0.00000   0.00777   0.00777   2.09852
    A6        2.09104  -0.00073   0.00000  -0.00186  -0.00186   2.08917
    A7        2.09496  -0.00221   0.00000  -0.00553  -0.00554   2.08942
    A8        2.09688  -0.00009   0.00000  -0.00101  -0.00100   2.09588
    A9        2.09132   0.00230   0.00000   0.00656   0.00656   2.09788
   A10        2.09467   0.00094   0.00000   0.00205   0.00205   2.09672
   A11        2.09797  -0.00186   0.00000  -0.00542  -0.00542   2.09255
   A12        2.09048   0.00092   0.00000   0.00340   0.00340   2.09388
   A13        2.09229   0.00068   0.00000   0.00157   0.00156   2.09386
   A14        2.09582  -0.00039   0.00000  -0.00095  -0.00094   2.09488
   A15        2.09507  -0.00029   0.00000  -0.00062  -0.00062   2.09445
   A16        2.09644  -0.00252   0.00000  -0.00494  -0.00491   2.09152
   A17        2.08582  -0.01621   0.00000  -0.03594  -0.03591   2.04991
   A18        2.10084   0.01874   0.00000   0.04093   0.04087   2.14171
   A19        2.09610  -0.00916   0.00000  -0.01659  -0.01659   2.07951
   A20        2.09049   0.00419   0.00000   0.00707   0.00707   2.09756
   A21        2.09659   0.00497   0.00000   0.00953   0.00953   2.10611
   A22        2.08783  -0.01005   0.00000  -0.01645  -0.01639   2.07144
   A23        2.10011   0.00428   0.00000   0.00587   0.00584   2.10595
   A24        2.09523   0.00577   0.00000   0.01059   0.01056   2.10579
   A25        2.09203   0.00018   0.00000   0.00943   0.00942   2.10145
   A26        2.09758   0.01918   0.00000   0.04302   0.04303   2.14061
   A27        2.09358  -0.01936   0.00000  -0.05245  -0.05246   2.04112
   A28        2.09513  -0.00678   0.00000  -0.01394  -0.01388   2.08126
   A29        2.09116   0.00385   0.00000   0.00844   0.00840   2.09956
   A30        2.09690   0.00293   0.00000   0.00551   0.00547   2.10237
   A31        2.09504  -0.00246   0.00000  -0.00549  -0.00549   2.08955
   A32        2.09254   0.00223   0.00000   0.00593   0.00593   2.09847
   A33        2.09557   0.00023   0.00000  -0.00042  -0.00042   2.09515
   A34        2.08881  -0.01193   0.00000  -0.03694  -0.03702   2.05179
   A35        3.14248  -0.00053   0.00000  -0.00338  -0.00338   3.13910
   A36        3.14197  -0.00040   0.00000  -0.00408  -0.00408   3.13789
   A37        3.14157  -0.00059   0.00000  -0.00385  -0.00385   3.13772
   A38        3.14151  -0.00216   0.00000  -0.02206  -0.02206   3.11944
   A39        3.14156   0.00069   0.00000   0.00463   0.00461   3.14617
   A40        3.14156  -0.00010   0.00000  -0.00067  -0.00067   3.14089
   A41        3.14159   0.00016   0.00000   0.00062   0.00061   3.14220
   A42        3.14159   0.00038   0.00000   0.00281   0.00278   3.14437
    D1       -3.11070  -0.00062   0.00000  -0.00489  -0.00487  -3.11557
    D2        0.02945  -0.00041   0.00000  -0.00330  -0.00329   0.02616
    D3        0.02899  -0.00067   0.00000  -0.00537  -0.00535   0.02364
    D4       -3.11404  -0.00046   0.00000  -0.00377  -0.00377  -3.11781
    D5        0.00511  -0.00019   0.00000  -0.00135  -0.00133   0.00379
    D6        3.13787   0.00020   0.00000   0.00182   0.00184   3.13971
    D7       -3.13838  -0.00024   0.00000  -0.00182  -0.00180  -3.14019
    D8       -0.00562   0.00015   0.00000   0.00135   0.00137  -0.00426
    D9       -3.09473  -0.00098   0.00000  -0.00810  -0.00810  -3.10284
   D10        0.03947  -0.00065   0.00000  -0.00540  -0.00542   0.03405
   D11        0.03180  -0.00071   0.00000  -0.00600  -0.00599   0.02580
   D12       -3.11718  -0.00038   0.00000  -0.00330  -0.00331  -3.12049
   D13       -0.11528   0.00024   0.00000   0.00173   0.00168  -0.11360
   D14        3.03992  -0.00014   0.00000  -0.00067  -0.00066   3.03926
   D15        3.04135   0.00017   0.00000   0.00104   0.00103   3.04238
   D16       -0.08663  -0.00020   0.00000  -0.00136  -0.00131  -0.08794
   D17       -0.03546   0.00083   0.00000   0.00691   0.00690  -0.02856
   D18        3.11498   0.00043   0.00000   0.00370   0.00371   3.11869
   D19        3.09116   0.00108   0.00000   0.00896   0.00897   3.10013
   D20       -0.04159   0.00068   0.00000   0.00575   0.00577  -0.03581
   D21        0.00223  -0.00005   0.00000  -0.00049  -0.00050   0.00173
   D22        3.13225   0.00034   0.00000   0.00273   0.00272   3.13497
   D23       -3.13200  -0.00037   0.00000  -0.00314  -0.00316  -3.13515
   D24       -0.00198   0.00002   0.00000   0.00007   0.00006  -0.00192
   D25       -0.03261   0.00075   0.00000   0.00621   0.00621  -0.02640
   D26        3.11042   0.00054   0.00000   0.00462   0.00463   3.11505
   D27        3.12051   0.00039   0.00000   0.00306   0.00304   3.12355
   D28       -0.01965   0.00018   0.00000   0.00147   0.00147  -0.01818
   D29       -3.12024  -0.00042   0.00000  -0.00393  -0.00396  -3.12420
   D30        0.01615  -0.00022   0.00000  -0.00255  -0.00260   0.01355
   D31        0.00760  -0.00005   0.00000  -0.00030  -0.00029   0.00731
   D32       -3.13920   0.00015   0.00000   0.00108   0.00108  -3.13811
   D33        3.12282   0.00047   0.00000   0.00391   0.00389   3.12671
   D34       -0.00510   0.00000   0.00000   0.00006   0.00007  -0.00503
   D35       -0.00008   0.00005   0.00000  -0.00038  -0.00041  -0.00049
   D36        3.13726   0.00020   0.00000   0.00090   0.00087   3.13813
   D37       -3.13645  -0.00015   0.00000  -0.00175  -0.00177  -3.13822
   D38        0.00089   0.00000   0.00000  -0.00048  -0.00050   0.00039
   D39       -0.00990   0.00032   0.00000   0.00190   0.00187  -0.00802
   D40        3.12976   0.00028   0.00000   0.00188   0.00187   3.13163
   D41        3.13594   0.00018   0.00000   0.00064   0.00061   3.13655
   D42       -0.00759   0.00013   0.00000   0.00062   0.00061  -0.00699
   D43       -3.12889  -0.00020   0.00000  -0.00160  -0.00160  -3.13049
   D44        0.01465  -0.00016   0.00000  -0.00159  -0.00160   0.01305
   D45        0.01243  -0.00017   0.00000  -0.00176  -0.00177   0.01065
   D46       -3.12722  -0.00013   0.00000  -0.00175  -0.00177  -3.12899
   D47       -0.00492   0.00007   0.00000   0.00087   0.00087  -0.00406
   D48        3.13640   0.00010   0.00000   0.00071   0.00071   3.13710
         Item               Value     Threshold  Converged?
 Maximum Force            0.100194     0.000450     NO 
 RMS     Force            0.014741     0.000300     NO 
 Maximum Displacement     0.336411     0.001800     NO 
 RMS     Displacement     0.118062     0.001200     NO 
 Predicted change in Energy=-3.311840D-02
 GradGradGradGradGradGradGradGradGradGradGradGradGradGradGradGradGradGrad

                          Input orientation:                          
 ---------------------------------------------------------------------
 Center     Atomic      Atomic             Coordinates (Angstroms)
 Number     Number       Type             X           Y           Z
 ---------------------------------------------------------------------
      1          6           0       -5.295985    1.752628    2.383088
      2          6           0       -4.144402    0.927763    0.419824
      3          6           0       -4.531868   -0.382341    0.738232
      4          6           0       -5.313454   -0.617375    1.873495
      5          6           0       -5.709322    0.450618    2.687716
      6          1           0       -5.581531    2.573519    3.025014
      7          1           0       -4.230657   -1.205309    0.105638
      8          1           0       -5.618688   -1.624617    2.118080
      9          6           0       -3.361540    1.190193   -0.802067
     10          6           0       -2.720121    1.409969   -1.810637
     11          6           0       -1.968108    1.672503   -2.990735
     12          6           0       -1.325702    1.891866   -3.998148
     13          6           0       -0.544823    2.124668   -5.217840
     14          6           0       -0.085663    1.035613   -5.969926
     15          6           0        0.671726    1.272553   -7.113256
     16          1           0       -0.315814    0.026564   -5.660778
     17          6           0        0.450757    3.635561   -6.683352
     18          6           0        0.948321    2.594805   -7.472783
     19          1           0        1.040399    0.452123   -7.708684
     20          1           0        0.644183    4.662656   -6.949114
     21          6           0       -4.511905    1.994495    1.251729
     22          1           0       -4.193939    2.999372    1.014988
     23          1           0        1.542329    2.808623   -8.351191
     24          7           0       -0.288436    3.417518   -5.562171
     25          1           0       -6.333742    0.269538    3.550725
 ---------------------------------------------------------------------
                    Distance matrix (angstroms):
                    1          2          3          4          5
     1  C    0.000000
     2  C    2.420940   0.000000
     3  C    2.801343   1.402814   0.000000
     4  C    2.424233   2.422251   1.398192   0.000000
     5  C    1.399599   2.796422   2.425017   1.400099   0.000000
     6  H    1.080494   3.400127   3.881787   3.402891   2.153325
     7  H    3.882151   2.157812   1.080824   2.154863   3.405242
     8  H    3.402962   3.401799   2.151374   1.080521   2.153903
     9  C    3.768770   1.474707   2.493000   3.773050   4.270555
    10  C    4.933540   2.689991   3.604376   4.940479   5.485513
    11  C    6.321326   4.113734   4.969954   6.332111   6.909016
    12  C    7.516828   5.328511   6.155063   7.528257   8.123675
    13  C    8.971402   6.795057   7.593181   8.974724   9.590219
    14  C    9.870887   7.570594   8.171824   9.569818  10.340335
    15  C   11.226068   8.947696   9.563573  10.961565  11.724010
    16  H    9.616922   7.241821   7.673959   9.064014   9.948221
    17  C   10.898202   8.882722   9.800509  11.159446  11.657931
    18  C   11.697812   9.539816  10.310995  11.699609  12.335213
    19  H   11.986866   9.653033  10.153663  11.547010  12.395317
    20  H   11.438700   9.548885  10.551719  11.883207  12.287261
    21  C    1.397589   1.401799   2.431753   2.801953   2.424752
    22  H    2.154199   2.155976   3.409805   3.882165   3.404490
    23  H   12.771156  10.621076  11.388403  12.778241  13.416561
    24  N    9.538058   7.540001   8.493569   9.839731  10.307723
    25  H    2.154036   3.876727   3.403206   2.154228   1.080497
                    6          7          8          9         10
     6  H    0.000000
     7  H    4.962576   0.000000
     8  H    4.295143   2.480398   0.000000
     9  C    4.635569   2.705129   4.641673   0.000000
    10  C    5.738034   3.576801   5.748497   1.215291   0.000000
    11  C    7.075160   4.794628   7.092089   2.639043   1.423756
    12  C    8.240238   5.905278   8.258548   3.853818   2.638528
    13  C    9.670291   7.281039   9.675586   5.320356   4.105088
    14  C   10.652636   7.688639  10.154163   6.120623   4.937631
    15  C   11.982498   9.071140  11.540384   7.490335   6.296132
    16  H   10.471759   7.077786   9.558112   5.851287   4.745323
    17  C   11.479059   9.562428  11.915235   7.423136   6.225036
    18  C   12.362975   9.934542  12.365831   8.065128   6.849905
    19  H   12.789158   9.570514  12.050792   8.223331   7.060166
    20  H   11.941827  10.390698  12.687291   8.117266   6.949998
    21  C    2.150327   3.410479   3.882461   2.487633   3.595865
    22  H    2.479307   4.302047   4.962660   2.695868   3.561249
    23  H   13.424705  10.998044  13.436496   9.146394   7.931177
    24  N   10.122694   8.308772  10.621722   6.087983   4.900751
    25  H    2.480025   4.297297   2.480241   5.350550   6.565290
                   11         12         13         14         15
    11  C    0.000000
    12  C    1.214777   0.000000
    13  C    2.681452   1.466839   0.000000
    14  C    3.581173   2.481688   1.400894   0.000000
    15  C    4.911604   3.751955   2.408048   1.391755   0.000000
    16  H    3.545182   2.695100   2.156544   1.080148   2.153466
    17  C    4.831140   3.661503   2.328455   2.748900   2.411939
    18  C    5.426320   4.211697   2.745046   2.399746   1.397896
    19  H    5.727083   4.630268   3.393324   2.152152   1.078685
    20  H    5.606589   4.501770   3.294302   3.827130   3.394186
    21  C    4.957125   6.141956   7.590125   8.524281   9.867330
    22  H    4.770820   5.880891   7.275252   8.338063   9.629379
    23  H    6.507567   5.292924   3.826473   3.385905   2.156373
    24  N    3.532514   2.418617   1.362262   2.425047   2.815785
    25  H    7.988603   9.203145  10.669621  11.413507  12.798559
                   16         17         18         19         20
    16  H    0.000000
    17  C    3.828596   0.000000
    18  C    3.387810   1.397836   0.000000
    19  H    2.492856   3.396066   2.157594   0.000000
    20  H    4.906603   1.078410   2.154701   4.296804   0.000000
    21  C    8.322421   9.501927  10.309779  10.653450  10.047794
    22  H    8.273046   9.013455   9.932208  10.487575   9.465773
    23  H    4.293119   2.158019   1.081742   2.493561   2.491972
    24  N    3.392497   1.360512   2.420095   3.894469   2.084168
    25  H   11.005739  12.731687  13.414657  13.460519  13.350563
                   21         22         23         24         25
    21  C    0.000000
    22  H    1.080244   0.000000
    23  H   11.381241  10.984829   0.000000
    24  N    8.141985   7.660733   3.391325   0.000000
    25  H    3.402932   4.296593  14.496036  11.379823   0.000000
 Stoichiometry    C15H9N
 Framework group  C1[X(C15H9N)]
 Deg. of freedom    69
 Full point group                 C1      NOp   1
 Largest Abelian subgroup         C1      NOp   1
 Largest concise Abelian subgroup C1      NOp   1
                         Standard orientation:                         
 ---------------------------------------------------------------------
 Center     Atomic      Atomic             Coordinates (Angstroms)
 Number     Number       Type             X           Y           Z
 ---------------------------------------------------------------------
      1          6           0        5.485210   -1.206122    0.045838
      2          6           0        3.387341    0.002060    0.031930
      3          6           0        4.083690    1.218193   -0.031345
      4          6           0        5.481353    1.215353   -0.069714
      5          6           0        6.182644    0.003759   -0.047176
      6          1           0        6.027504   -2.139742    0.087525
      7          1           0        3.541070    2.152644   -0.054701
      8          1           0        6.020480    2.150151   -0.124668
      9          6           0        1.912682   -0.006056    0.023309
     10          6           0        0.697485   -0.016015    0.011944
     11          6           0       -0.726117   -0.032906   -0.000470
     12          6           0       -1.940815   -0.042640   -0.010358
     13          6           0       -3.407494   -0.022117   -0.017351
     14          6           0       -4.087730    1.200791    0.048082
     15          6           0       -5.479418    1.202462    0.061608
     16          1           0       -3.535174    2.127918    0.090954
     17          6           0       -5.412419   -1.205173   -0.065891
     18          6           0       -6.152418   -0.021619    0.008597
     19          1           0       -6.027916    2.129762    0.114758
     20          1           0       -5.912540   -2.159183   -0.117956
     21          6           0        4.088262   -1.210631    0.087897
     22          1           0        3.549200   -2.144137    0.157935
     23          1           0       -7.233601   -0.051167    0.026925
     24          7           0       -4.052043   -1.220754   -0.077211
     25          1           0        7.261763    0.002994   -0.101707
 ---------------------------------------------------------------------
 Rotational constants (GHZ):      2.8632595      0.1314365      0.1257020
 Standard basis: 6-31+G(d) (6D, 7F)
 There are   322 symmetry adapted cartesian basis functions of A   symmetry.
 There are   322 symmetry adapted basis functions of A   symmetry.
   322 basis functions,   548 primitive gaussians,   322 cartesian basis functions
    53 alpha electrons       53 beta electrons
       nuclear repulsion energy       792.0287925213 Hartrees.
 NAtoms=   25 NActive=   25 NUniq=   25 SFac= 1.00D+00 NAtFMM=   60 NAOKFM=F Big=F
 Integral buffers will be    131072 words long.
 Raffenetti 2 integral format.
 Two-electron integral symmetry is turned on.
 Nuclear repulsion after empirical dispersion term =      792.0145807645 Hartrees.
 One-electron integrals computed using PRISM.
 NBasis=   322 RedAO= T EigKep=  1.44D-06  NBF=   322
 NBsUse=   317 1.00D-06 EigRej=  7.02D-07 NBFU=   317
 Initial guess from the checkpoint file:  "D:\machine learning\molecule_48.chk"
 B after Tr=     0.000000    0.000000    0.000000
         Rot=    1.000000   -0.000182    0.000036   -0.000434 Ang=  -0.05 deg.
 ExpMin= 4.38D-02 ExpMax= 4.17D+03 ExpMxC= 6.27D+02 IAcc=2 IRadAn=         4 AccDes= 0.00D+00
 Harris functional with IExCor=  402 and IRadAn=       4 diagonalized for initial guess.
 HarFok:  IExCor=  402 AccDes= 0.00D+00 IRadAn=         4 IDoV= 1 UseB2=F ITyADJ=14
 ICtDFT=  3500011 ScaDFX=  1.000000  1.000000  1.000000  1.000000
 FoFCou: FMM=F IPFlag=           0 FMFlag=      100000 FMFlg1=           0
         NFxFlg=           0 DoJE=T BraDBF=F KetDBF=T FulRan=T
         wScrn=  0.000000 ICntrl=     500 IOpCl=  0 I1Cent=   200000004 NGrid=           0
         NMat0=    1 NMatS0=      1 NMatT0=    0 NMatD0=    1 NMtDS0=    0 NMtDT0=    0
 Petite list used in FoFCou.
 Requested convergence on RMS density matrix=1.00D-08 within 128 cycles.
 Requested convergence on MAX density matrix=1.00D-06.
 Requested convergence on             energy=1.00D-06.
 No special actions if energy rises.
 SCF Done:  E(RB3LYP) =  -631.686083915     A.U. after   15 cycles
            NFock= 15  Conv=0.94D-08     -V/T= 2.0103
 Calling FoFJK, ICntrl=      2127 FMM=F ISym2X=0 I1Cent= 0 IOpClX= 0 NMat=1 NMatS=1 NMatT=0.
 ***** Axes restored to original set *****
 -------------------------------------------------------------------
 Center     Atomic                   Forces (Hartrees/Bohr)
 Number     Number              X              Y              Z
 -------------------------------------------------------------------
      1        6           0.002183403   -0.003991107   -0.003709687
      2        6           0.019009945    0.006045940   -0.030188786
      3        6          -0.004449379   -0.001436177    0.006194697
      4        6           0.001815481    0.005753362   -0.002546948
      5        6           0.003202038    0.000438089   -0.003717846
      6        1          -0.001349078    0.003625551    0.002095159
      7        1           0.001123895   -0.001897515   -0.002769104
      8        1          -0.001130240   -0.004159721    0.000548250
      9        6          -0.017488344   -0.007018630    0.029822189
     10        6           0.028286330    0.010655752   -0.044495731
     11        6          -0.028161001   -0.010719524    0.044017130
     12        6           0.015067018    0.006085541   -0.024266464
     13        6          -0.008313024    0.012564898    0.015053029
     14        6           0.001810527   -0.003014068   -0.003101035
     15        6          -0.002115875    0.007886913    0.003900280
     16        1          -0.001400400   -0.003344338    0.001986287
     17        6          -0.012222993   -0.018363232    0.018073117
     18        6           0.000024860   -0.001251150   -0.000316798
     19        1           0.001738035   -0.004370216   -0.002730104
     20        1          -0.000306279    0.006637970    0.001097832
     21        6          -0.004842967   -0.000953782    0.006358722
     22        1           0.001223852    0.003235332   -0.001792862
     23        1           0.001556837    0.001782472   -0.002895333
     24        7           0.006645310   -0.003361720   -0.010619982
     25        1          -0.001907951   -0.000830638    0.004003990
 -------------------------------------------------------------------
 Cartesian Forces:  Max     0.044495731 RMS     0.012168389

 GradGradGradGradGradGradGradGradGradGradGradGradGradGradGradGradGradGrad
 Berny optimization.
 Using GEDIIS/GDIIS optimizer.
 FormGI is forming the generalized inverse of G from B-inverse, IUseBI=4.
 GSVD:  received Info=                   1 from GESDD.
 Internal  Forces:  Max     0.048626640 RMS     0.006536954
 Search for a local minimum.
 Step number   2 out of a maximum of  126
 All quantities printed in internal units (Hartrees-Bohrs-Radians)
 Mixed Optimization -- RFO/linear search
 Update second derivatives using D2CorX and points    1    2
 DE= -3.44D-02 DEPred=-3.31D-02 R= 1.04D+00
 TightC=F SS=  1.41D+00  RLast= 3.01D-01 DXNew= 5.0454D-01 9.0278D-01
 Trust test= 1.04D+00 RLast= 3.01D-01 DXMaxT set to 5.05D-01
 ITU=  1  0
 Use linear search instead of GDIIS.
     Eigenvalues ---    0.00230   0.00335   0.00385   0.00389   0.00429
     Eigenvalues ---    0.01454   0.01557   0.01811   0.01974   0.02039
     Eigenvalues ---    0.02043   0.02051   0.02052   0.02066   0.02073
     Eigenvalues ---    0.02077   0.02078   0.02083   0.02084   0.02087
     Eigenvalues ---    0.02093   0.02118   0.03519   0.04326   0.04477
     Eigenvalues ---    0.04479   0.15959   0.15999   0.16000   0.16000
     Eigenvalues ---    0.16000   0.16000   0.16000   0.16000   0.16112
     Eigenvalues ---    0.21866   0.21998   0.21998   0.22460   0.23170
     Eigenvalues ---    0.24188   0.24956   0.24999   0.26923   0.29133
     Eigenvalues ---    0.30035   0.36893   0.36971   0.37087   0.37136
     Eigenvalues ---    0.37167   0.37227   0.37366   0.37530   0.37711
     Eigenvalues ---    0.41215   0.41412   0.41456   0.42054   0.45108
     Eigenvalues ---    0.45299   0.45390   0.45553   0.45628   0.45803
     Eigenvalues ---    0.45920   0.47743   0.95643   0.97627
 RFO step:  Lambda=-3.53465114D-03 EMin= 2.29999911D-03
 Quartic linear search produced a step of  0.57875.
 Iteration  1 RMS(Cart)=  0.13750050 RMS(Int)=  0.01098646
 Iteration  2 RMS(Cart)=  0.10208870 RMS(Int)=  0.00194791
 Iteration  3 RMS(Cart)=  0.00539440 RMS(Int)=  0.00011876
 Iteration  4 RMS(Cart)=  0.00000028 RMS(Int)=  0.00011876
 Variable       Old X    -DE/DX   Delta X   Delta X   Delta X     New X
                                 (Linear)    (Quad)   (Total)
    R1        2.64486  -0.00020  -0.00029  -0.00066  -0.00096   2.64390
    R2        2.04184   0.00436   0.01085  -0.00039   0.01047   2.05230
    R3        2.64106  -0.00195  -0.00373  -0.00051  -0.00424   2.63682
    R4        2.65093   0.00294  -0.00125   0.01274   0.01150   2.66244
    R5        2.78679  -0.03008  -0.06827  -0.03584  -0.10411   2.68269
    R6        2.64902   0.00391   0.00108   0.01223   0.01333   2.66234
    R7        2.64220  -0.00247  -0.00516  -0.00018  -0.00535   2.63685
    R8        2.04246   0.00338   0.00885  -0.00098   0.00787   2.05033
    R9        2.64580  -0.00045  -0.00045  -0.00137  -0.00183   2.64397
   R10        2.04189   0.00432   0.01065  -0.00017   0.01047   2.05236
   R11        2.04184   0.00444   0.01135  -0.00091   0.01044   2.05228
   R12        2.29657   0.00516  -0.00444   0.01483   0.01040   2.30696
   R13        2.69051  -0.04863  -0.11473  -0.04477  -0.15951   2.53100
   R14        2.29560   0.00471  -0.00515   0.01511   0.00996   2.30556
   R15        2.77192  -0.02447  -0.06424  -0.00964  -0.07388   2.69804
   R16        2.64731   0.00414   0.00253   0.01094   0.01343   2.66074
   R17        2.57430  -0.01385  -0.03815   0.01392  -0.02426   2.55004
   R18        2.63004  -0.00073  -0.00571   0.00904   0.00333   2.63336
   R19        2.04118   0.00399   0.01161  -0.00327   0.00834   2.04952
   R20        2.64164  -0.00212  -0.00892   0.00857  -0.00032   2.64132
   R21        2.03842   0.00543   0.01340  -0.00050   0.01289   2.05131
   R22        2.64153   0.00010  -0.00066   0.00050  -0.00012   2.64141
   R23        2.03790   0.00600   0.01208   0.00420   0.01627   2.05417
   R24        2.57100  -0.02075  -0.04154  -0.00523  -0.04676   2.52424
   R25        2.04420   0.00356   0.01036  -0.00284   0.00752   2.05172
   R26        2.04136   0.00376   0.00986  -0.00114   0.00872   2.05008
    A1        2.09371   0.00024   0.00223  -0.00203   0.00022   2.09393
    A2        2.09771   0.00034  -0.00002   0.00144   0.00140   2.09911
    A3        2.09176  -0.00057  -0.00221   0.00059  -0.00161   2.09015
    A4        2.09542   0.00053  -0.00340   0.00914   0.00572   2.10114
    A5        2.09852  -0.00186   0.00450  -0.01866  -0.01417   2.08436
    A6        2.08917   0.00133  -0.00108   0.00958   0.00849   2.09767
    A7        2.08942   0.00033  -0.00321   0.00946   0.00625   2.09567
    A8        2.09588  -0.00118  -0.00058  -0.00941  -0.00999   2.08589
    A9        2.09788   0.00085   0.00380  -0.00006   0.00374   2.10162
   A10        2.09672   0.00068   0.00118   0.00082   0.00197   2.09870
   A11        2.09255  -0.00078  -0.00314   0.00133  -0.00180   2.09075
   A12        2.09388   0.00010   0.00197  -0.00213  -0.00015   2.09373
   A13        2.09386   0.00035   0.00090  -0.00171  -0.00084   2.09302
   A14        2.09488  -0.00019  -0.00055   0.00091   0.00038   2.09526
   A15        2.09445  -0.00016  -0.00036   0.00080   0.00046   2.09491
   A16        2.09152  -0.00035  -0.00284   0.00346   0.00065   2.09217
   A17        2.04991  -0.00304  -0.02078   0.02177   0.00102   2.05093
   A18        2.14171   0.00339   0.02365  -0.02523  -0.00165   2.14006
   A19        2.07951  -0.00368  -0.00960   0.00102  -0.00862   2.07088
   A20        2.09756   0.00074   0.00409  -0.00946  -0.00535   2.09221
   A21        2.10611   0.00294   0.00551   0.00844   0.01398   2.12009
   A22        2.07144  -0.00230  -0.00949   0.01129   0.00184   2.07328
   A23        2.10595   0.00077   0.00338  -0.00612  -0.00276   2.10319
   A24        2.10579   0.00153   0.00611  -0.00517   0.00093   2.10671
   A25        2.10145  -0.00038   0.00545  -0.00816  -0.00273   2.09872
   A26        2.14061   0.00699   0.02490  -0.00762   0.01733   2.15794
   A27        2.04112  -0.00661  -0.03036   0.01578  -0.01460   2.02652
   A28        2.08126  -0.00352  -0.00803  -0.00695  -0.01491   2.06635
   A29        2.09956   0.00287   0.00486   0.01226   0.01708   2.11664
   A30        2.10237   0.00064   0.00317  -0.00530  -0.00217   2.10020
   A31        2.08955   0.00018  -0.00318   0.00895   0.00576   2.09531
   A32        2.09847   0.00086   0.00343   0.00041   0.00384   2.10232
   A33        2.09515  -0.00104  -0.00024  -0.00935  -0.00959   2.08556
   A34        2.05179  -0.00088  -0.02143   0.02753   0.00607   2.05785
   A35        3.13910  -0.00014  -0.00196   0.00533   0.00340   3.14250
   A36        3.13789   0.00041  -0.00236   0.14836   0.14604   3.28393
   A37        3.13772   0.00097  -0.00223   0.04275   0.04053   3.17825
   A38        3.11944   0.00004  -0.01277   0.31856   0.30580   3.42524
   A39        3.14617   0.00024   0.00267  -0.00557  -0.00259   3.14358
   A40        3.14089  -0.00004  -0.00039   0.00216   0.00205   3.14293
   A41        3.14220   0.00011   0.00035   0.00187   0.00194   3.14414
   A42        3.14437   0.00012   0.00161  -0.01497  -0.01384   3.13053
    D1       -3.11557  -0.00047  -0.00282  -0.00720  -0.01005  -3.12562
    D2        0.02616  -0.00036  -0.00190  -0.00705  -0.00896   0.01720
    D3        0.02364  -0.00051  -0.00310  -0.00687  -0.00998   0.01366
[...]
 4279710,0.00851976,-0.00817349,-0.01344716,-0.00212705,-0.05101728,-0.
 00499636,0.00020330,0.00086406,-0.00014020,0.05640581,0.75019349,-0.00
 000354,0.00000662,0.00009221,-0.00035458,0.00000608,0.00052747,0.00011
 101,0.00010883,-0.00002966,-0.00007312,0.00000067,0.00001405,0.0000988
 5,0.00000272,-0.00013246,0.00001186,-0.00001474,-0.00001352,-0.0000016
 7,-0.00000739,0.00001055,0.00000119,0.00000885,-0.00000868,0.00076736,
 0.00000110,-0.00106202,-0.00144369,0.00001164,0.00142762,0.00236075,0.
 00001865,-0.00362073,-0.00057282,-0.00000074,0.00992394,0.01982371,0.0
 7988034,-0.01734352,0.02320817,-0.02358780,-0.04851513,-0.02974815,-0.
 04468004,0.04788618,0.00048859,-0.00121966,-0.00132034,-0.23104502,-0.
 00364003,0.51904340,-0.00001618,-0.00004385,0.00001013,-0.00006776,0.0
 0002165,0.00007857,-0.00000020,0.00008381,0.00004953,-0.00002135,0.000
 05311,0.00000841,-0.00001879,-0.00001487,0.00004653,-0.00000934,0.0000
 1008,0.00001380,0.00000305,-0.00000206,-0.00001010,-0.00000850,-0.0000
 1907,0.00000967,0.00022821,0.00004540,-0.00043578,-0.00027167,-0.00013
 610,0.00082947,0.00061461,0.00038821,-0.00157001,-0.00160437,-0.000884
 14,0.00205323,-0.00580131,0.00861933,-0.00546403,-0.00079824,-0.021316
 18,0.00767184,-0.09261146,-0.06671429,0.03988391,0.00410370,-0.0006326
 3,0.00614457,-0.10364578,0.05558123,0.06430382,0.30751980,-0.00000231,
 -0.00012631,-0.00002031,0.00010842,-0.00002025,-0.00013998,-0.00004703
 ,0.00012041,0.00006021,-0.00000998,0.00011404,0.00005418,-0.00011277,-
 0.00003155,0.00016092,-0.00001914,0.00002335,0.00003367,0.00001471,0.0
 0001333,-0.00001788,-0.00001475,-0.00002989,0.00002072,0.00009337,0.00
 010661,-0.00015841,-0.00032741,-0.00023600,0.00046461,0.00040243,0.000
 85645,-0.00046574,-0.00057932,-0.00061546,0.00086802,0.00051106,-0.067
 95020,-0.00911512,-0.04280271,0.01350469,0.06876499,-0.03261219,-0.321
 94489,0.01419985,-0.00018871,0.00215689,-0.00054782,0.01731157,-0.2409
 7084,-0.05219789,0.05086236,0.66297059,0.00001111,0.00006581,-0.000025
 28,0.00010665,-0.00001072,-0.00013885,-0.00000193,-0.00012528,-0.00004
 027,0.00002429,-0.00006987,-0.00003611,0.00002178,0.00002264,-0.000037
 94,0.00000708,-0.00000776,-0.00001524,-0.00000367,-0.00000201,0.000008
 52,0.00000962,0.00001619,-0.00001023,-0.00043725,-0.00006817,0.0005727
 9,0.00081244,0.00016360,-0.00096171,-0.00157251,-0.00045235,0.00198916
 ,0.00210821,0.00135365,-0.00335479,-0.00662100,-0.02193469,-0.00270659
 ,0.00457432,0.03478876,0.00372449,0.04478577,0.06812281,-0.12238453,0.
 00621118,0.00016389,-0.00175248,0.05880378,-0.11273496,-0.17720598,-0.
 27902916,-0.00346853,0.56730158,0.00000060,-0.00000050,0.00000241,0.00
 001735,0.00000704,-0.00002709,-0.00000663,0.00000902,0.00001877,-0.000
 00472,-0.00000235,-0.00000051,-0.00000643,-0.00000057,0.00000872,-0.00
 000131,0.00000115,0.00000421,0.00000478,0.00000236,-0.00000123,-0.0000
 0179,-0.00000283,0.00000402,-0.00001146,-0.00000404,0.00001590,0.00002
 539,-0.00004491,-0.00000055,-0.00020845,-0.00002598,0.00007600,-0.0002
 3001,0.00065398,0.00028385,0.00468415,-0.00204226,0.00599023,-0.000187
 62,0.01387940,0.00987533,-0.07158028,0.06208064,0.05828292,-0.00276426
 ,0.00009564,-0.00226517,0.00579317,-0.00234892,0.00381591,0.00713173,-
 0.00609753,-0.00441478,0.06292938,0.00000287,0.00001425,0.00000198,-0.
 00002033,0.00002613,0.00001501,0.00000143,-0.00001012,0.00001453,0.000
 00206,-0.00000122,-0.00001594,0.00001190,-0.00000092,-0.00001125,0.000
 00074,-0.00000156,-0.00000177,-0.00000233,-0.00000390,0.00000082,0.000
 00017,-0.00000088,-0.00000135,0.00000039,-0.00004318,0.00001345,0.0000
 2687,0.00002578,-0.00005202,-0.00008674,-0.00008205,0.00015351,0.00000
 620,0.00028365,0.00004279,-0.00176598,0.00140720,0.00174911,-0.0025383
 1,0.00882191,0.00459756,0.06215547,-0.21992435,-0.12407500,0.00050801,
 0.00075186,-0.00009089,-0.00296559,-0.00458748,0.00282000,0.01033369,-
 0.01660498,-0.01942023,-0.06631982,0.22998950,0.00000498,0.00000518,-0
 .00000076,-0.00003956,0.00000990,0.00004477,0.00001914,-0.00001789,-0.
 00000889,-0.00000196,0.00000944,-0.00001349,0.00001414,-0.00000268,-0.
 00001645,0.00000424,-0.00000231,-0.00000519,-0.00000308,-0.00000565,0.
 00000536,0.00000370,0.00000287,-0.00000575,0.00002705,-0.00002419,-0.0
 0002703,0.00000506,0.00009376,0.00002366,0.00006770,0.00003497,-0.0002
 5388,0.00019044,-0.00096666,-0.00055391,0.00603065,0.00218330,-0.00057
 093,0.00751909,-0.02137295,-0.01015450,0.05829368,-0.12394793,-0.15034
 833,-0.00220633,0.00055888,-0.00063577,0.00372555,0.00185105,0.0027874
 4,-0.00205521,0.00655613,0.00909078,-0.06752694,0.13412388,0.15229460,
 0.00000314,-0.00000022,0.00000345,0.00000774,0.00001365,-0.00002771,-0
 .00000934,0.00000941,0.00002456,-0.00000852,0.00000579,-0.00000298,-0.
 00000480,-0.00000511,0.00000828,-0.00000191,0.00000084,0.00000497,0.00
 000371,0.00000368,-0.00000145,-0.00000190,-0.00000281,0.00000319,0.000
 03699,-0.00002859,0.00002385,-0.00013702,0.00009681,-0.00004973,0.0000
 3670,-0.00010552,0.00015066,0.00026415,-0.00048419,0.00024583,0.006401
 44,-0.00156640,0.00657752,-0.00050533,-0.00009890,0.00014203,0.0043193
 6,0.00110160,0.00443545,-0.00121899,0.00002208,-0.00092253,-0.05532584
 ,-0.05068665,0.01456122,0.00799292,0.00985978,-0.00076608,-0.00015621,
 0.00060719,-0.00032401,0.05070416,0.00000121,-0.00000640,0.00000082,0.
 00000991,0.00003538,-0.00002956,-0.00001302,0.00001415,0.00004095,-0.0
 0000426,0.00001818,-0.00000210,-0.00000810,-0.00001142,0.00001832,-0.0
 0000391,0.00000331,0.00000722,0.00000151,0.00000395,-0.00000472,-0.000
 00394,-0.00000672,0.00000396,0.00002372,-0.00003935,-0.00002790,-0.000
 03681,0.00004764,0.00007650,0.00002786,-0.00007762,-0.00006835,-0.0001
 5803,-0.00008167,0.00016764,-0.00001965,0.00302511,-0.00107460,0.00032
 957,0.00049040,-0.00038464,0.00167483,-0.00158325,-0.00389030,0.000105
 49,-0.00008720,0.00007854,-0.05140064,-0.31636452,0.04182934,-0.006001
 46,-0.01653114,0.00617465,-0.00032202,-0.00092720,0.00043609,0.0602597
 8,0.33213702,0.00000103,-0.00000290,-0.00000091,-0.00001692,-0.0000268
 2,0.00003143,0.00001582,-0.00001274,-0.00004106,-0.00000014,-0.0000088
 6,0.00000141,0.00000368,0.00000828,-0.00001080,0.00000399,-0.00000099,
 -0.00000616,-0.00000036,-0.00000483,0.00000506,0.00000390,0.00000480,-
 0.00000394,0.00001748,0.00004800,0.00001226,-0.00006189,-0.00013506,-0
 .00008611,0.00016787,0.00014481,-0.00010973,0.00029369,0.00068154,0.00
 010095,0.00679975,0.00137929,0.00014855,0.00020148,0.00028449,-0.00069
 236,0.00451979,-0.00297795,-0.00054680,-0.00090990,0.00021121,-0.00033
 349,0.01446242,0.04070152,-0.05854348,-0.00304654,-0.01891336,0.008711
 39,-0.00045714,-0.00103485,0.00015877,-0.02937379,-0.05144917,0.065732
 78,-0.14349744,-0.00752968,0.12838224,-0.09116765,0.02376782,0.0478919
 8,0.02365304,0.01650399,-0.02045371,-0.01940040,0.01086418,0.02222019,
 -0.00126095,-0.04367913,0.00705712,-0.00142075,-0.00250182,0.00691108,
 0.00395203,-0.00266016,0.00291134,-0.00071028,0.00040834,0.00012914,-0
 .01489294,0.01134092,0.02165295,0.00688570,0.00148690,-0.00116223,-0.0
 0259614,-0.00120896,0.00108962,0.00089541,0.00023982,-0.00074306,-0.00
 007000,0.00002640,0.00010298,0.00001089,-0.00013006,0.00004974,0.00002
 829,-0.00000588,0.00003513,-0.00000749,-0.00001320,-0.00002801,-0.0001
 1280,0.00005703,0.00007585,0.00000950,-0.00005181,-0.00001435,-0.00001
 539,0.00000487,0.00001356,-0.00001036,-0.00001024,0.00001270,0.2949119
 1,-0.04114934,-0.13644437,0.05442296,0.04744345,-0.23463352,-0.0994201
 7,-0.00370356,-0.04957726,-0.00252241,0.01015054,-0.00792526,-0.016268
 09,-0.01916850,0.01281041,0.03111273,0.01411548,0.00816869,-0.02160480
 ,-0.00202134,-0.00388723,0.00178014,0.00040790,0.00047745,-0.00048634,
 0.00720737,0.01342208,-0.00917473,-0.00594436,-0.00370223,0.00800076,0
 .00214171,0.00054723,-0.00305274,-0.00135609,-0.00043474,0.00202713,0.
 00070784,0.00022233,-0.00107594,-0.00024943,0.00011193,0.00040767,0.00
 011400,0.00014238,-0.00014456,0.00000071,-0.00004546,-0.00002275,0.000
 06145,0.00010419,-0.00007769,-0.00011060,-0.00013636,0.00013363,-0.000
 01167,-0.00000689,0.00000993,-0.00002349,-0.00003779,0.00003862,0.0605
 9906,0.71396193,0.12359799,0.00125502,-0.25693142,0.05127159,-0.062012
 66,-0.15290979,-0.02332501,-0.03446155,0.04121998,0.02211256,-0.017398
 21,-0.04377219,0.01054777,0.06987543,0.00038974,0.00927893,0.00466356,
 -0.01083099,0.00299878,0.00280089,0.00168359,0.00013001,-0.00047654,-0
 .00094062,0.02104616,-0.01571361,-0.03776245,-0.00220981,-0.00373380,0
 .00899342,0.00155342,0.00224752,-0.00395028,-0.00097210,-0.00049506,0.
 00187682,0.00020147,-0.00002507,-0.00032280,0.00003910,0.00022016,0.00
 003207,0.00005567,0.00002113,-0.00002046,-0.00003332,0.00001089,0.0000
 1562,0.00008684,-0.00005924,-0.00022125,-0.00003279,0.00007083,0.00005
 424,0.00001108,-0.00001341,-0.00003302,0.00000954,0.00000609,-0.000011
 62,-0.24692773,-0.01319887,0.52195157,0.00007362,-0.01647479,0.0034265
 6,0.00531532,0.00974658,-0.00196176,0.00372313,0.00111415,0.00382118,-
 0.00066503,0.00037763,0.00001967,0.00359016,-0.00014574,0.00591853,-0.
 00277946,0.00047328,-0.00212931,0.00048700,0.00049364,0.00000387,-0.00
 077021,0.00002809,-0.00056725,-0.00214316,0.00084613,-0.00201052,0.000
 05290,-0.00010691,0.00002982,0.00004971,-0.00000238,0.00011017,0.00004
 691,0.00000161,-0.00003887,-0.00005563,-0.00001084,0.00005597,0.000018
 54,0.00000643,-0.00002655,0.00000316,-0.00001165,0.00001055,-0.0000045
 4,0.00000299,0.00000139,-0.00001228,-0.00000785,-0.00000896,0.00000923
 ,0.00001017,-0.00000468,0.00000247,0.00000008,-0.00000298,0.00000181,0
 .00000360,-0.00000301,-0.06041830,-0.06713649,0.02805121,0.05355726,0.
 00009411,-0.00013320,-0.00068553,-0.00679367,-0.01771262,0.00771461,0.
 00174136,-0.00146675,-0.00377669,0.00036554,0.00050618,-0.00044086,-0.
 00065718,0.00172662,0.00025806,0.00010888,0.00079622,0.00053408,-0.000
 38347,-0.00093385,0.00040598,0.00003052,-0.00004034,0.00010555,-0.0003
 2724,0.00019886,0.00109400,0.00043960,0.00038079,-0.00067811,-0.000060
 41,-0.00010128,0.00007836,0.00003191,0.00006098,-0.00005307,0.00002250
 ,-0.00001144,-0.00004525,-0.00001263,-0.00001851,0.00003390,-0.0000069
 8,0.00000476,-0.00000799,0.00000309,-0.00000243,-0.00000277,-0.0000044
 8,0.00000667,-0.00000003,0.00001032,-0.00000695,-0.00000005,-0.0000026
 1,0.00000696,0.00000712,-0.00000205,-0.00000088,0.00000108,-0.06623261
 ,-0.30735633,0.06620499,0.07160225,0.32420829,0.00578287,0.02550710,-0
 .00179605,-0.00430817,-0.01836739,0.00740913,0.00389576,-0.00282901,-0
 .00053432,0.00002592,-0.00041890,-0.00077955,0.00584488,-0.00057509,-0
 .00198384,-0.00218075,-0.00004329,-0.00072533,-0.00012104,-0.00097678,
 0.00049810,-0.00056669,0.00011075,-0.00021955,-0.00218287,-0.00084800,
 -0.00016661,0.00010877,0.00024599,-0.00005656,0.00009746,-0.00005185,-
 0.00004052,-0.00003369,0.00001899,0.00007800,0.00006503,0.00000764,-0.
 00011778,-0.00003383,-0.00000995,0.00004982,0.00001548,0.00001623,-0.0
 0000604,0.00000008,-0.00000708,-0.00000650,-0.00000347,0.00001940,-0.0
 0000719,-0.00000935,-0.00001666,0.00001276,-0.00000341,0.00000067,0.00
 000512,-0.00000410,-0.00000720,0.00000592,0.02818519,0.06763627,-0.071
 58456,-0.03484948,-0.07066699,0.07013375,-0.00000537,-0.00000685,-0.00
 000270,0.00002213,-0.00002137,-0.00001969,-0.00001027,0.00000859,-0.00
 001059,0.00000379,-0.00000429,0.00001196,-0.00000949,0.00000363,0.0000
 0750,-0.00000084,0.00000119,0.00000235,0.00000317,0.00000357,-0.000001
 48,0.,-0.00000063,0.00000262,-0.00002575,0.00003938,0.00000392,0.00009
 422,-0.00005276,0.00004306,0.00000019,0.00003865,0.00003981,-0.0011953
 1,0.00005386,-0.00075639,0.00018755,0.00047708,-0.00065400,0.00581617,
 -0.00168822,0.00269061,-0.00028656,-0.00010175,0.00478863,0.00011105,0
 .00010358,0.00033305,-0.00306467,-0.00446441,0.00580081,-0.12347675,-0
 .03542596,0.13445493,-0.00258311,0.00008482,-0.00211836,-0.00198983,0.
 00051979,-0.00147313,-0.00000542,0.00000249,0.00001799,0.00000297,-0.0
 0000473,-0.00000078,0.12145480,-0.00000077,-0.00000312,-0.00000014,0.0
 0000867,-0.00000913,-0.00000824,-0.00000091,0.00000125,-0.00000481,0.0
 0000101,0.00000013,0.00000271,-0.00000499,0.00000198,0.00000570,-0.000
 00094,0.00000134,0.00000109,0.00000164,0.00000131,-0.00000135,-0.00000
 031,-0.00000116,0.00000075,-0.00000384,0.00002280,0.00000395,-0.000002
 11,-0.00005708,-0.00001802,-0.00000170,0.00009769,0.00001138,0.0001767
 8,0.00018039,-0.00001134,-0.00015236,-0.00199906,-0.00000601,-0.001271
 02,-0.00548843,0.00011869,-0.01663530,-0.00104728,0.02576804,-0.000839
 70,-0.00002113,0.00128103,0.01295232,0.01166088,-0.01895436,-0.0354491
 2,-0.07431580,0.05046053,0.00053159,0.00080646,-0.00016103,-0.00002900
 ,0.00031512,0.00051701,-0.00000323,-0.00000060,0.00000654,0.00000041,0
 .00000028,-0.00000016,0.03900771,0.07276418,-0.00000022,0.00000650,-0.
 00000046,-0.00002332,0.00000808,0.00002816,0.00000635,-0.00000995,-0.0
 0000945,0.00000175,-0.00000031,-0.00000446,0.00000897,-0.00000086,-0.0
 0001159,0.00000267,-0.00000202,-0.00000351,-0.00000277,-0.00000397,0.0
 0000334,0.00000242,0.00000305,-0.00000301,0.00000407,-0.00002299,-0.00
 001376,0.00004523,0.00002557,0.00004603,0.00003932,-0.00002634,-0.0000
 3799,-0.00074238,0.00016601,-0.00048395,-0.00074902,-0.00099669,0.0007
 6815,0.00275691,0.00078077,0.00342929,0.00241167,-0.00038320,-0.001125
 46,0.00019739,-0.00021131,-0.00003059,0.00829767,0.00858905,-0.0108884
 3,0.13445473,0.05042750,-0.24067254,-0.00205387,0.00054369,-0.00060329
 ,-0.00155195,-0.00035089,-0.00056433,0.00001122,0.00000828,-0.00001628
 ,-0.00000154,0.00000341,0.00000472,-0.14734227,-0.05480809,0.24993835,
 -0.00007320,-0.00003121,0.00004713,-0.00014879,-0.00010828,0.00021906,
 -0.00000158,0.00020271,0.00007525,-0.00001411,-0.00001060,0.00009242,-
 0.00000120,-0.00000117,0.00000577,-0.00001944,0.00001051,0.00002906,0.
 00000125,0.00002437,-0.00003303,-0.00002281,-0.00002077,0.00002358,0.0
 0060707,0.00018503,-0.00106506,-0.00096430,0.00055484,0.00246129,0.003
 30885,0.00024935,-0.00308359,-0.01508604,-0.02526915,0.01656955,-0.087
 74624,-0.03668199,0.02407665,0.03461378,-0.01063254,-0.02126860,-0.020
 98098,-0.02303146,0.01657829,0.00474986,0.00132126,0.00380516,-0.14717
 366,-0.03185629,0.12781797,0.00074993,0.03912953,0.04092786,-0.0028304
 8,-0.00004629,-0.00164204,-0.01040140,-0.00497160,0.00883659,-0.000010
 97,-0.00019051,-0.00004123,0.00001730,-0.00001464,-0.00003455,0.004956
 94,0.00171603,0.00422521,0.23648471,-0.00008624,-0.00011616,0.00011821
 ,-0.00045208,-0.00022687,0.00071594,0.00007597,0.00036736,-0.00010538,
 -0.00009419,0.00005429,0.00017324,-0.00000424,0.00000658,-0.00000508,-
 0.00002097,0.00001303,0.00003436,0.00001987,0.00002219,-0.00002095,-0.
 00001302,-0.00001609,0.00002113,0.00158019,0.00054402,-0.00244508,-0.0
 0310948,-0.00041194,0.00480076,0.00607608,0.00084101,-0.00969185,-0.02
 455644,-0.01547566,0.03695548,-0.03435966,-0.28943233,0.02273017,0.015
 99608,-0.06444031,-0.03773654,-0.02162442,-0.03000213,0.03111291,0.001
 80296,-0.00358959,-0.00437555,-0.01855965,-0.13087919,0.01968590,0.005
 31850,0.05965801,-0.00317444,-0.00003425,0.00006130,0.00061836,-0.0189
 4714,-0.00033362,0.03054612,0.00008414,-0.00032219,-0.00016648,0.00001
 412,-0.00000515,-0.00002071,0.00142664,-0.00291107,-0.00374575,0.08947
 705,0.47659648,0.00003977,0.00004231,-0.00009642,0.00016579,0.00013507
 ,-0.00024575,0.00005893,-0.00027636,-0.00010666,0.00008109,0.00001153,
 -0.00008154,0.00000376,0.00000624,-0.00000240,0.00002293,-0.00001139,-
 0.00004131,-0.00003256,-0.00003463,0.00002623,0.00002444,0.00002852,-0
 .00003936,-0.00086034,-0.00019131,0.00124827,0.00193501,-0.00102492,-0
 .00266284,-0.00224316,-0.00046139,0.00481786,0.01667388,0.03807498,-0.
 02322235,0.02441008,0.02640029,-0.10400908,-0.01744766,0.00439037,0.05
 035546,0.01677690,0.03332771,-0.03016406,0.00387705,-0.00361004,0.0003
 8955,0.12972090,0.04070254,-0.26279200,0.03607986,-0.05663949,-0.04211
 384,-0.00164114,0.00063866,-0.00117722,0.00683159,0.00844439,-0.013954
 64,-0.00000283,0.00025832,0.00002137,-0.00002880,0.00002901,0.00004818
 ,0.00418132,-0.00420525,0.00025358,-0.21864019,-0.08604133,0.42357268,
 -0.00039445,0.00007906,0.00607590,-0.00046592,0.00012763,-0.00075799,0
 .00509123,0.00140567,0.00321783,-0.00120874,-0.00288566,0.00694439,-0.
 12432356,-0.02727970,0.13473950,-0.00252553,0.00007004,-0.00211596,-0.
 00013323,-0.00018832,0.00033888,-0.00252904,0.00052944,-0.00204565,-0.
 00057403,0.00011245,-0.00043108,-0.00011405,-0.00005731,-0.00001302,0.
 00011415,0.00004189,0.00002518,-0.00004736,-0.00002807,0.00002725,0.00
 004086,0.00001454,-0.00004552,-0.00001754,0.00000132,0.00001605,0.0000
 1007,0.00000744,-0.00000641,0.00000225,-0.00000217,-0.00000188,0.00000
 149,0.00001042,0.00000449,-0.00001095,-0.00001177,0.00000640,-0.000000
 86,-0.00000139,0.00000148,-0.00000068,-0.00000358,0.00000263,0.0052505
 2,-0.00188664,0.00253187,-0.00010288,0.00005261,0.00031074,0.00000039,
 -0.00000089,0.00000175,-0.00001449,-0.00000981,0.00001336,0.12195236,-
 0.01659448,0.00004406,0.02575838,0.00016674,-0.00116613,-0.00028587,0.
 00085143,-0.00367836,-0.00287186,0.01380516,0.00886570,-0.02105609,-0.
 02728490,-0.06847714,0.03862093,0.00047178,0.00067151,-0.00009966,0.00
 069058,0.00029418,-0.00106373,0.00012344,0.00070830,0.00045650,0.00005
 784,0.00018461,0.00004925,-0.00000232,0.00001398,0.00002623,-0.0000013
 5,-0.00000925,-0.00001938,-0.00000646,-0.00000210,0.00001499,0.0000111
 5,0.00000172,-0.00001729,-0.00000549,-0.00000097,0.00000749,0.00000293
 ,0.00000293,-0.00000228,-0.00000030,-0.00000072,-0.00000033,0.00000122
 ,0.00000493,-0.00000037,-0.00000331,-0.00000374,0.00000290,-0.00000056
 ,-0.00000028,0.00000042,-0.00000053,-0.00000146,0.00000077,-0.00135670
 ,-0.00545838,0.00037144,-0.00082449,-0.00010688,0.00127601,0.,0.000000
 05,0.00000046,-0.00000419,-0.00000196,0.00000618,0.02990277,0.06811541
 ,0.00370870,-0.00061135,-0.00249980,-0.00077640,-0.00023818,0.00018307
 ,0.00316370,-0.00374224,0.00151118,0.00930239,0.00533553,-0.01054343,0
 .13474757,0.03861573,-0.24425144,-0.00205850,0.00053524,-0.00053794,0.
 00046160,0.00032678,-0.00059057,-0.00210416,-0.00018482,-0.00057086,-0
 .00041551,-0.00002089,-0.00014760,-0.00001811,0.00009869,-0.00010379,0
 .00002635,-0.00007591,0.00008949,0.00002538,0.00004169,-0.00007066,-0.
 00005157,-0.00002247,0.00007880,0.00002460,-0.00000138,-0.00002861,-0.
 00001552,-0.00001138,0.00001099,-0.00000151,0.00000280,0.00000453,-0.0
 0000135,-0.00001614,-0.00000846,0.00001492,0.00001956,-0.00000932,0.00
 000247,0.00000106,-0.00000212,0.00000221,0.00000494,-0.00000309,0.0025
 9987,0.00121266,0.00306929,0.00018478,-0.00011280,-0.00022111,0.000000
 85,0.00000139,-0.00000254,0.00001745,0.00001657,-0.00002372,-0.1488402
 0,-0.04117507,0.25466772||-0.00000143,-0.00000108,0.00000137,-0.000000
 24,-0.00000386,0.00001027,0.00000300,0.00000460,-0.00000214,-0.0000022
 1,-0.00000118,0.00000237,-0.00000076,-0.00000102,0.00000031,0.00000017
 ,0.00000051,-0.00000021,-0.00000093,-0.00000102,0.00000223,-0.00000027
 ,-0.00000019,0.00000053,-0.00001786,0.00001526,-0.00001265,0.00003367,
 -0.00002040,-0.00000031,-0.00002383,0.00001624,0.00000434,0.00001173,0
 .00000383,-0.00000383,-0.00000849,-0.00003547,-0.00001430,-0.00001093,
 0.00002043,0.00002404,0.00001119,0.00000867,-0.00001650,0.00000331,-0.
 00000265,-0.00000119,-0.00001363,0.00000596,0.00001845,0.00000133,-0.0
 0001911,-0.00000163,-0.00000218,-0.00000063,0.00000241,0.00000210,-0.0
 0000115,-0.00000200,0.00000469,0.00000002,-0.00000640,-0.00000030,0.00
 000057,0.00000144,-0.00000018,0.00000265,-0.00000089,0.00001200,0.0000
 0903,-0.00000563,0.00000007,-0.00000003,-0.00000008|||@


 FOR THE NATURE OF THE CHEMICAL BOND
 IS THE PROBLEM AT THE HEART OF ALL CHEMISTRY.

                     -- BRYCE CRAWFORD, JR., 1953
 Job cpu time:       0 days  0 hours 21 minutes 14.0 seconds.
 File lengths (MBytes):  RWF=    269 Int=      0 D2E=      0 Chk=      9 Scr=      1
 Normal termination of Gaussian 09 at Sat Aug 26 00:36:06 2023.
