 Entering Link 1 = C:\G09W\l1.exe PID=      2984.
  
 Copyright (c) 1988,1990,1992,1993,1995,1998,2003,2009,2013,
            Gaussian, Inc.  All Rights Reserved.
  
 This is part of the Gaussian(R) 09 program.  It is based on
 the Gaussian(R) 03 system (copyright 2003, Gaussian, Inc.),
 the Gaussian(R) 98 system (copyright 1998, Gaussian, Inc.),
 the Gaussian(R) 94 system (copyright 1995, Gaussian, Inc.),
 the Gaussian 92(TM) system (copyright 1992, Gaussian, Inc.),
 the Gaussian 90(TM) system (copyright 1990, Gaussian, Inc.),
 the Gaussian 88(TM) system (copyright 1988, Gaussian, Inc.),
 the Gaussian 86(TM) system (copyright 1986, Carnegie Mellon
 University), and the Gaussian 82(TM) system (copyright 1983,
 Carnegie Mellon University). Gaussian is a federally registered
 trademark of Gaussian, Inc.
  
 This software contains proprietary and confidential information,
 including trade secrets, belonging to Gaussian, Inc.
  
 This software is provided under written license and may be
 used, copied, transmitted, or stored only in accord with that
 written license.
  
 The following legend is applicable only to US Government
 contracts under FAR:
  
                    RESTRICTED RIGHTS LEGEND
  
 Use, reproduction and disclosure by the US Government is
 subject to restrictions as set forth in subparagraphs (a)
 and (c) of the Commercial Computer Software - Restricted
 Rights clause in FAR 52.227-19.
  
 Gaussian, Inc.
 340 Quinnipiac St., Bldg. 40, Wallingford CT 06492
  
  
 ---------------------------------------------------------------
 Warning -- This program may not be used in any manner that
 competes with the business of Gaussian, Inc. or will provide
 assistance to any competitor of Gaussian, Inc.  The licensee
 of this program is prohibited from giving any competitor of
 Gaussian, Inc. access to this program.  By using this program,
 the user acknowledges that Gaussian, Inc. is engaged in the
 business of creating and licensing software in the field of
 computational chemistry and represents and warrants to the
 licensee that it is not a competitor of Gaussian, Inc. and that
 it will not use this program in any manner prohibited above.
 ---------------------------------------------------------------
  

 Cite this work as:
 Gaussian 09, Revision D.01,
 M. J. Frisch, G. W. Trucks, H. B. Schlegel, G. E. Scuseria, 
 M. A. Robb, J. R. Cheeseman, G. Scalmani, V. Barone, B. Mennucci, 
 G. A. Petersson, H. Nakatsuji, M. Caricato, X. Li, H. P. Hratchian, 
 A. F. Izmaylov, J. Bloino, G. Zheng, J. L. Sonnenberg, M. Hada, 
 M. Ehara, K. Toyota, R. Fukuda, J. Hasegawa, M. Ishida, T. Nakajima, 
 Y. Honda, O. Kitao, H. Nakai, T. Vreven, J. A. Montgomery, Jr., 
 J. E. Peralta, F. Ogliaro, M. Bearpark, J. J. Heyd, E. Brothers, 
 K. N. Kudin, V. N. Staroverov, T. Keith, R. Kobayashi, J. Normand, 
 K. Raghavachari, A. Rendell, J. C. Burant, S. S. Iyengar, J. Tomasi, 
 M. Cossi, N. Rega, J. M. Millam, M. Klene, J. E. Knox, J. B. Cross, 
 V. Bakken, C. Adamo, J. Jaramillo, R. Gomperts, R. E. Stratmann, 
 O. Yazyev, A. J. Austin, R. Cammi, C. Pomelli, J. W. Ochterski, 
 R. L. Martin, K. Morokuma, V. G. Zakrzewski, G. A. Voth, 
 P. Salvador, J. J. Dannenberg, S. Dapprich, A. D. Daniels, 
 O. Farkas, J. B. Foresman, J. V. Ortiz, J. Cioslowski, 
 and D. J. Fox, Gaussian, Inc., Wallingford CT, 2013.
 
 ******************************************
 Gaussian 09:  EM64W-G09RevD.01 13-Apr-2013
                12-Sep-2023 
 ******************************************
 %nprocshared=6
 Will use up to    6 processors via shared memory.
 %mem=6GB
 %chk=D:\User Dont delete\Downloads\molecule_34.chk
 ----------------------------------------------
 # opt freq b3lyp/6-31g empiricaldispersion=gd3
 ----------------------------------------------
 1/14=-1,18=20,19=15,26=3,38=1/1,3;
 2/9=110,12=2,17=6,18=5,40=1/2;
 3/5=1,6=6,11=2,16=1,25=1,30=1,71=1,74=-5,124=31/1,2,3;
 4//1;
 5/5=2,38=5/2;
 6/7=2,8=2,9=2,10=2,28=1/1;
 7//1,2,3,16;
 1/14=-1,18=20,19=15,26=3/3(2);
 2/9=110/2;
 99//99;
 2/9=110/2;
 3/5=1,6=6,11=2,16=1,25=1,30=1,71=1,74=-5,124=31/1,2,3;
 4/5=5,16=3,69=1/1;
 5/5=2,38=5/2;
 7//1,2,3,16;
 1/14=-1,18=20,19=15,26=3/3(-5);
 2/9=110/2;
 6/7=2,8=2,9=2,10=2,19=2,28=1/1;
 99/9=1/99;
 -------------------
 Title Card Required
 -------------------
 Symbolic Z-matrix:
 Charge =  0 Multiplicity = 1
 C                    -1.70232  -0.51098  -0.00174 
 C                    -0.50316  -0.51544   0.00061 
 C                     1.03814  -0.52118   0.00361 
 C                     1.73324  -0.49899   1.21632 
 C                     1.73531  -0.50038  -1.20582 
 C                     3.13124  -0.50192   1.21672 
 H                     1.18549  -0.5016    2.1622 
 C                     3.13359  -0.50384  -1.20525 
 H                     1.18944  -0.5035   -2.1542 
 C                     3.82894  -0.50274   0.00634 
 H                     3.67742  -0.50148   2.16417 
 H                     3.6812   -0.50459  -2.15173 
 H                     4.89832  -0.50317   0.00733 
 C                    -3.24231  -0.50525  -0.00474 
 C                    -3.77817  -1.90651   0.00459 
 H                    -3.58725   0.04386  -0.91442 
 H                    -3.59076   0.05733   0.89531 
 H                    -3.42944  -2.46879  -0.89558 
 H                    -3.43286  -2.45544   0.91427 
 C                    -5.31815  -1.90139   0.00167 
 H                    -5.67477  -1.38936   0.8709 
 H                    -5.6715   -1.40228  -0.87636 
 C                    -5.83632  -3.35157   0.01143 
 H                    -5.48303  -3.85066   0.88949 
 H                    -6.90632  -3.34801   0.00933 
 H                    -5.47965  -3.86362  -0.85776 
 

 GradGradGradGradGradGradGradGradGradGradGradGradGradGradGradGradGradGrad
 Berny optimization.
 Initialization pass.
                           ----------------------------
                           !    Initial Parameters    !
                           ! (Angstroms and Degrees)  !
 --------------------------                            --------------------------
 ! Name  Definition              Value          Derivative Info.                !
 --------------------------------------------------------------------------------
 ! R1    R(1,2)                  1.1992         estimate D2E/DX2                !
 ! R2    R(1,14)                 1.54           estimate D2E/DX2                !
 ! R3    R(2,3)                  1.5413         estimate D2E/DX2                !
 ! R4    R(3,4)                  1.398          estimate D2E/DX2                !
 ! R5    R(3,5)                  1.3961         estimate D2E/DX2                !
 ! R6    R(4,6)                  1.398          estimate D2E/DX2                !
 ! R7    R(4,7)                  1.093          estimate D2E/DX2                !
 ! R8    R(5,8)                  1.3983         estimate D2E/DX2                !
 ! R9    R(5,9)                  1.0943         estimate D2E/DX2                !
 ! R10   R(6,10)                 1.3971         estimate D2E/DX2                !
 ! R11   R(6,11)                 1.0936         estimate D2E/DX2                !
 ! R12   R(8,10)                 1.3969         estimate D2E/DX2                !
 ! R13   R(8,12)                 1.0935         estimate D2E/DX2                !
 ! R14   R(10,13)                1.0694         estimate D2E/DX2                !
 ! R15   R(14,15)                1.5002         estimate D2E/DX2                !
 ! R16   R(14,16)                1.1171         estimate D2E/DX2                !
 ! R17   R(14,17)                1.1171         estimate D2E/DX2                !
 ! R18   R(15,18)                1.1172         estimate D2E/DX2                !
 ! R19   R(15,19)                1.1172         estimate D2E/DX2                !
 ! R20   R(15,20)                1.54           estimate D2E/DX2                !
 ! R21   R(20,21)                1.07           estimate D2E/DX2                !
 ! R22   R(20,22)                1.07           estimate D2E/DX2                !
 ! R23   R(20,23)                1.54           estimate D2E/DX2                !
 ! R24   R(23,24)                1.07           estimate D2E/DX2                !
 ! R25   R(23,25)                1.07           estimate D2E/DX2                !
 ! R26   R(23,26)                1.07           estimate D2E/DX2                !
 ! A1    A(2,3,4)              119.9238         estimate D2E/DX2                !
 ! A2    A(2,3,5)              119.8422         estimate D2E/DX2                !
 ! A3    A(4,3,5)              120.1945         estimate D2E/DX2                !
 ! A4    A(3,4,6)              119.8308         estimate D2E/DX2                !
 ! A5    A(3,4,7)              120.098          estimate D2E/DX2                !
 ! A6    A(6,4,7)              120.0575         estimate D2E/DX2                !
 ! A7    A(3,5,8)              119.9314         estimate D2E/DX2                !
 ! A8    A(3,5,9)              120.108          estimate D2E/DX2                !
 ! A9    A(8,5,9)              119.947          estimate D2E/DX2                !
 ! A10   A(4,6,10)             119.944          estimate D2E/DX2                !
 ! A11   A(4,6,11)             119.9792         estimate D2E/DX2                !
 ! A12   A(10,6,11)            120.0767         estimate D2E/DX2                !
 ! A13   A(5,8,10)             119.8756         estimate D2E/DX2                !
 ! A14   A(5,8,12)             120.0284         estimate D2E/DX2                !
 ! A15   A(10,8,12)            120.0958         estimate D2E/DX2                !
 ! A16   A(6,10,8)             120.1873         estimate D2E/DX2                !
 ! A17   A(6,10,13)            119.9076         estimate D2E/DX2                !
 ! A18   A(8,10,13)            119.9051         estimate D2E/DX2                !
 ! A19   A(1,14,15)            110.7128         estimate D2E/DX2                !
 ! A20   A(1,14,16)            108.191          estimate D2E/DX2                !
 ! A21   A(1,14,17)            108.1922         estimate D2E/DX2                !
 ! A22   A(15,14,16)           110.7248         estimate D2E/DX2                !
 ! A23   A(15,14,17)           110.7282         estimate D2E/DX2                !
 ! A24   A(16,14,17)           108.193          estimate D2E/DX2                !
 ! A25   A(14,15,18)           110.7071         estimate D2E/DX2                !
 ! A26   A(14,15,19)           110.7081         estimate D2E/DX2                !
 ! A27   A(14,15,20)           110.7359         estimate D2E/DX2                !
 ! A28   A(18,15,19)           108.1987         estimate D2E/DX2                !
 ! A29   A(18,15,20)           108.1971         estimate D2E/DX2                !
 ! A30   A(19,15,20)           108.1957         estimate D2E/DX2                !
 ! A31   A(15,20,21)           109.4712         estimate D2E/DX2                !
 ! A32   A(15,20,22)           109.4712         estimate D2E/DX2                !
 ! A33   A(15,20,23)           109.4712         estimate D2E/DX2                !
 ! A34   A(21,20,22)           109.4712         estimate D2E/DX2                !
 ! A35   A(21,20,23)           109.4713         estimate D2E/DX2                !
 ! A36   A(22,20,23)           109.4712         estimate D2E/DX2                !
 ! A37   A(20,23,24)           109.4712         estimate D2E/DX2                !
 ! A38   A(20,23,25)           109.4712         estimate D2E/DX2                !
 ! A39   A(20,23,26)           109.4712         estimate D2E/DX2                !
 ! A40   A(24,23,25)           109.4713         estimate D2E/DX2                !
 ! A41   A(24,23,26)           109.4712         estimate D2E/DX2                !
 ! A42   A(25,23,26)           109.4712         estimate D2E/DX2                !
 ! A43   L(2,1,14,19,-1)       180.0            estimate D2E/DX2                !
 ! A44   L(1,2,3,9,-1)         179.9996         estimate D2E/DX2                !
 ! A45   L(2,1,14,19,-2)       180.0            estimate D2E/DX2                !
 ! A46   L(1,2,3,9,-2)         179.9998         estimate D2E/DX2                !
 ! D1    D(4,3,14,15)          -90.7479         estimate D2E/DX2                !
 ! D2    D(4,3,14,16)          147.7526         estimate D2E/DX2                !
 ! D3    D(4,3,14,17)           30.7567         estimate D2E/DX2                !
 ! D4    D(5,3,14,15)           91.5304         estimate D2E/DX2                !
 ! D5    D(5,3,14,16)          -29.9691         estimate D2E/DX2                !
 ! D6    D(5,3,14,17)         -146.965          estimate D2E/DX2                !
 ! D7    D(2,3,4,6)           -179.8905         estimate D2E/DX2                !
 ! D8    D(2,3,4,7)              1.4544         estimate D2E/DX2                !
 ! D9    D(5,3,4,6)             -2.1768         estimate D2E/DX2                !
 ! D10   D(5,3,4,7)            179.1681         estimate D2E/DX2                !
 ! D11   D(2,3,5,8)            179.9195         estimate D2E/DX2                !
 ! D12   D(2,3,5,9)             -1.4191         estimate D2E/DX2                !
 ! D13   D(4,3,5,8)              2.2039         estimate D2E/DX2                !
 ! D14   D(4,3,5,9)           -179.1347         estimate D2E/DX2                !
 ! D15   D(3,4,6,10)             1.1475         estimate D2E/DX2                !
 ! D16   D(3,4,6,11)          -178.9793         estimate D2E/DX2                !
 ! D17   D(7,4,6,10)           179.8032         estimate D2E/DX2                !
 ! D18   D(7,4,6,11)            -0.3236         estimate D2E/DX2                !
 ! D19   D(3,5,8,10)            -1.1998         estimate D2E/DX2                !
 ! D20   D(3,5,8,12)           178.9699         estimate D2E/DX2                !
 ! D21   D(9,5,8,10)          -179.8633         estimate D2E/DX2                !
 ! D22   D(9,5,8,12)             0.3064         estimate D2E/DX2                !
 ! D23   D(4,6,10,8)            -0.1518         estimate D2E/DX2                !
 ! D24   D(4,6,10,13)          179.8876         estimate D2E/DX2                !
 ! D25   D(11,6,10,8)          179.9751         estimate D2E/DX2                !
 ! D26   D(11,6,10,13)           0.0145         estimate D2E/DX2                !
 ! D27   D(5,8,10,6)             0.1766         estimate D2E/DX2                !
 ! D28   D(5,8,10,13)         -179.8628         estimate D2E/DX2                !
 ! D29   D(12,8,10,6)         -179.9932         estimate D2E/DX2                !
 ! D30   D(12,8,10,13)          -0.0326         estimate D2E/DX2                !
 ! D31   D(1,14,15,18)         -59.9975         estimate D2E/DX2                !
 ! D32   D(1,14,15,19)          59.992          estimate D2E/DX2                !
 ! D33   D(1,14,15,20)         179.9967         estimate D2E/DX2                !
 ! D34   D(16,14,15,18)         59.997          estimate D2E/DX2                !
 ! D35   D(16,14,15,19)        179.9866         estimate D2E/DX2                !
 ! D36   D(16,14,15,20)        -60.0088         estimate D2E/DX2                !
 ! D37   D(17,14,15,18)       -179.9958         estimate D2E/DX2                !
 ! D38   D(17,14,15,19)        -60.0063         estimate D2E/DX2                !
 ! D39   D(17,14,15,20)         59.9984         estimate D2E/DX2                !
 ! D40   D(14,15,20,21)        -59.9991         estimate D2E/DX2                !
 ! D41   D(14,15,20,22)         60.0009         estimate D2E/DX2                !
 ! D42   D(14,15,20,23)       -179.9991         estimate D2E/DX2                !
 ! D43   D(18,15,20,21)        178.505          estimate D2E/DX2                !
 ! D44   D(18,15,20,22)        -61.495          estimate D2E/DX2                !
 ! D45   D(18,15,20,23)         58.505          estimate D2E/DX2                !
 ! D46   D(19,15,20,21)         61.4971         estimate D2E/DX2                !
 ! D47   D(19,15,20,22)       -178.5029         estimate D2E/DX2                !
 ! D48   D(19,15,20,23)        -58.5029         estimate D2E/DX2                !
 ! D49   D(15,20,23,24)         60.0038         estimate D2E/DX2                !
 ! D50   D(15,20,23,25)       -179.9962         estimate D2E/DX2                !
 ! D51   D(15,20,23,26)        -59.9962         estimate D2E/DX2                !
 ! D52   D(21,20,23,24)        -59.9962         estimate D2E/DX2                !
 ! D53   D(21,20,23,25)         60.0038         estimate D2E/DX2                !
 ! D54   D(21,20,23,26)       -179.9962         estimate D2E/DX2                !
 ! D55   D(22,20,23,24)       -179.9962         estimate D2E/DX2                !
 ! D56   D(22,20,23,25)        -59.9962         estimate D2E/DX2                !
 ! D57   D(22,20,23,26)         60.0038         estimate D2E/DX2                !
 --------------------------------------------------------------------------------
 Trust Radius=3.00D-01 FncErr=1.00D-07 GrdErr=1.00D-06
 Number of steps in this run=    139 maximum allowed number of steps=    156.
 GradGradGradGradGradGradGradGradGradGradGradGradGradGradGradGradGradGrad

                          Input orientation:                          
 ---------------------------------------------------------------------
 Center     Atomic      Atomic             Coordinates (Angstroms)
 Number     Number       Type             X           Y           Z
 ---------------------------------------------------------------------
      1          6           0       -1.702325   -0.510980   -0.001736
      2          6           0       -0.503164   -0.515444    0.000607
      3          6           0        1.038137   -0.521178    0.003607
      4          6           0        1.733241   -0.498994    1.216317
      5          6           0        1.735313   -0.500380   -1.205823
      6          6           0        3.131236   -0.501924    1.216721
      7          1           0        1.185494   -0.501600    2.162198
      8          6           0        3.133594   -0.503838   -1.205245
      9          1           0        1.189441   -0.503497   -2.154202
     10          6           0        3.828940   -0.502741    0.006338
     11          1           0        3.677424   -0.501477    2.164168
     12          1           0        3.681197   -0.504590   -2.151735
     13          1           0        4.898318   -0.503165    0.007326
     14          6           0       -3.242311   -0.505247   -0.004744
     15          6           0       -3.778165   -1.906505    0.004595
     16          1           0       -3.587249    0.043862   -0.914421
     17          1           0       -3.590756    0.057328    0.895310
     18          1           0       -3.429442   -2.468788   -0.895576
     19          1           0       -3.432858   -2.455439    0.914270
     20          6           0       -5.318154   -1.901392    0.001673
     21          1           0       -5.674772   -1.389360    0.870895
     22          1           0       -5.671501   -1.402283   -0.876356
     23          6           0       -5.836324   -3.351566    0.011428
     24          1           0       -5.483031   -3.850656    0.889491
     25          1           0       -6.906316   -3.348014    0.009332
     26          1           0       -5.479651   -3.863617   -0.857760
 ---------------------------------------------------------------------
                    Distance matrix (angstroms):
                    1          2          3          4          5
     1  C    0.000000
     2  C    1.199171   0.000000
     3  C    2.740486   1.541315   0.000000
     4  C    3.645121   2.545531   1.397972   0.000000
     5  C    3.642429   2.542927   1.396141   2.422141   0.000000
     6  C    4.984779   3.832490   2.419314   1.397998   2.795948
     7  H    3.608627   2.743033   2.163703   1.093035   3.412604
     8  C    4.983432   3.831478   2.419207   2.797315   1.398285
     9  H    3.604924   2.740120   2.163180   3.414109   1.094262
    10  C    5.531276   4.332126   2.790865   2.419920   2.419217
    11  H    5.799390   4.707283   3.410902   2.162932   3.889555
    12  H    5.796968   4.705483   3.410504   3.890801   2.163615
    13  H    6.600654   5.401500   3.860225   3.388124   3.387674
    14  C    1.540000   2.739171   4.280486   5.123197   5.120484
    15  C    2.501328   3.558188   5.011577   5.815923   5.817280
    16  H    2.166514   3.265223   4.749341   5.756940   5.358244
    17  H    2.166526   3.265239   4.749363   5.362601   5.752635
    18  H    2.759510   3.630675   4.955904   5.915529   5.535845
    19  H    2.759480   3.630629   4.955852   5.532404   5.918365
    20  C    3.873949   5.010487   6.504416   7.291383   7.291933
    21  H    4.160934   5.316640   6.824154   7.469319   7.746767
    22  H    4.160978   5.316696   6.824216   7.747607   7.468793
    23  C    5.015880   6.040389   7.434337   8.178462   8.181726
    24  H    5.122642   6.059111   7.375354   7.963356   8.229166
    25  H    5.927091   7.001706   8.432400   9.176910   9.179508
    26  H    5.122611   6.059083   7.375325   8.224859   7.967949
                    6          7          8          9         10
     6  C    0.000000
     7  H    2.163294   0.000000
     8  C    2.421968   3.890343   0.000000
     9  H    3.890205   4.316402   2.163389   0.000000
    10  C    1.397075   3.411091   1.396940   3.410995   0.000000
    11  H    1.093608   2.491931   3.413020   4.983813   2.163144
    12  H    3.413057   4.983830   1.093486   2.491757   2.163125
    13  H    2.141312   4.292848   2.141163   4.292782   1.069379
    14  C    6.489537   4.929615   6.487940   4.925505   7.071260
    15  C    7.154154   5.591683   7.155669   5.595172   7.735541
    16  H    7.069490   5.704576   6.749391   4.965221   7.493092
    17  H    6.752869   4.972923   7.067115   5.697748   7.493719
    18  H    7.167486   5.875155   6.857869   5.174996   7.573830
    19  H    6.855292   5.167590   7.170731   5.881432   7.574370
    20  C    8.650263   6.994621   8.651118   6.996478   9.253409
    21  H    8.857365   7.036962   9.092954   7.553369   9.584054
    22  H    9.092843   7.553967   8.856922   7.036563   9.583668
    23  C    9.486323   7.877439   9.489429   7.884340  10.076366
    24  H    9.248064   7.570019   9.478150   8.061602   9.934853
    25  H   10.502879   8.843885  10.505442   8.849488  11.105913
    26  H    9.473744   8.052792   9.251856   7.579443   9.934385
                   11         12         13         14         15
    11  H    0.000000
    12  H    4.315906   0.000000
    13  H    2.478418   2.478493   0.000000
    14  C    7.251685   7.248760   8.140638   0.000000
    15  C    7.888199   7.890323   8.789240   1.500250   0.000000
    16  H    7.908893   7.393378   8.552994   1.117146   2.164479
    17  H    7.399237   7.904526   8.553774   1.117140   2.164517
    18  H    7.983728   7.483127   8.604098   2.164276   1.117174
    19  H    7.479060   7.988490   8.604791   2.164288   1.117173
    20  C    9.357167   9.358234  10.311711   2.501677   1.540000
    21  H    9.482851   9.871842  10.645249   2.732264   2.148263
    22  H    9.872114   9.481845  10.644735   2.732278   2.148263
    23  C   10.162121  10.166993  11.106122   3.851064   2.514809
    24  H    9.836450  10.219016  10.943323   4.124590   2.733008
    25  H   11.169676  11.173661  12.142593   4.637505   3.444314
    26  H   10.212153   9.842691  10.942726   4.124557   2.732947
                   16         17         18         19         20
    16  H    0.000000
    17  H    1.809785   0.000000
    18  H    2.517671   3.100735   0.000000
    19  H    3.100718   2.517794   1.809899   0.000000
    20  C    2.760304   2.760267   2.166616   2.166597   0.000000
    21  H    3.098263   2.537051   3.054029   2.482857   1.070000
    22  H    2.537103   3.098187   2.482867   3.054014   1.070000
    23  C    4.176658   4.176647   2.719381   2.719341   1.540000
    24  H    4.692053   4.342013   3.051762   2.480011   2.148263
    25  H    4.834703   4.834693   3.698722   3.698718   2.148263
    26  H    4.341980   4.692013   2.479987   3.051626   2.148263
                   21         22         23         24         25
    21  H    0.000000
    22  H    1.747303   0.000000
    23  C    2.148263   2.148263   0.000000
    24  H    2.468822   3.024610   1.070000   0.000000
    25  H    2.468870   2.468822   1.070000   1.747303   0.000000
    26  H    3.024611   2.468870   1.070000   1.747303   1.747303
                   26
    26  H    0.000000
 Stoichiometry    C12H14
 Framework group  C1[X(C12H14)]
 Deg. of freedom    72
 Full point group                 C1      NOp   1
 Largest Abelian subgroup         C1      NOp   1
 Largest concise Abelian subgroup C1      NOp   1
                         Standard orientation:                         
 ---------------------------------------------------------------------
 Center     Atomic      Atomic             Coordinates (Angstroms)
 Number     Number       Type             X           Y           Z
 ---------------------------------------------------------------------
      1          6           0        0.824101   -0.011438    0.748538
      2          6           0       -0.345839   -0.007079    0.485417
      3          6           0       -1.849584   -0.001487    0.147228
      4          6           0       -2.533184    1.212160    0.028570
      5          6           0       -2.534732   -1.209889    0.007422
      6          6           0       -3.897604    1.214897   -0.275977
      7          1           0       -1.997850    2.157125    0.151786
      8          6           0       -3.899317   -1.206973   -0.297701
      9          1           0       -2.000981   -2.159116    0.114604
     10          6           0       -4.578602    0.005712   -0.437009
     11          1           0       -4.431087    2.163214   -0.385841
     12          1           0       -4.433785   -2.152521   -0.424168
     13          1           0       -5.622690    0.008471   -0.668188
     14          6           0        2.326562   -0.017037    1.086443
     15          6           0        3.152191    0.002367   -0.166038
     16          1           0        2.544935   -0.931547    1.689768
     17          1           0        2.545322    0.878016    1.718128
     18          1           0        2.933096   -0.892805   -0.797499
     19          1           0        2.933419    0.916874   -0.769271
     20          6           0        4.654788   -0.003140    0.171263
     21          1           0        4.892439    0.861464    0.755115
     22          1           0        4.892161   -0.885626    0.727835
     23          6           0        5.473706    0.017092   -1.132794
     24          1           0        5.236382    0.899611   -1.689334
     25          1           0        6.517718    0.013199   -0.898437
     26          1           0        5.236006   -0.847478   -1.716676
 ---------------------------------------------------------------------
 Rotational constants (GHZ):      3.2496209      0.2606787      0.2559795
 Standard basis: 6-31G (6D, 7F)
 There are   136 symmetry adapted cartesian basis functions of A   symmetry.
 There are   136 symmetry adapted basis functions of A   symmetry.
   136 basis functions,   320 primitive gaussians,   136 cartesian basis functions
    43 alpha electrons       43 beta electrons
       nuclear repulsion energy       575.5410834454 Hartrees.
 NAtoms=   26 NActive=   26 NUniq=   26 SFac= 1.00D+00 NAtFMM=   60 NAOKFM=F Big=F
 Integral buffers will be    131072 words long.
 Raffenetti 2 integral format.
 Two-electron integral symmetry is turned on.
 Nuclear repulsion after empirical dispersion term =      575.5249963321 Hartrees.
 One-electron integrals computed using PRISM.
 NBasis=   136 RedAO= T EigKep=  2.14D-04  NBF=   136
 NBsUse=   136 1.00D-06 EigRej= -1.00D+00 NBFU=   136
 ExpMin= 1.61D-01 ExpMax= 3.05D+03 ExpMxC= 4.57D+02 IAcc=1 IRadAn=         1 AccDes= 0.00D+00
 Harris functional with IExCor=  402 and IRadAn=       1 diagonalized for initial guess.
 HarFok:  IExCor=  402 AccDes= 0.00D+00 IRadAn=         1 IDoV= 1 UseB2=F ITyADJ=14
 ICtDFT=  3500011 ScaDFX=  1.000000  1.000000  1.000000  1.000000
 FoFCou: FMM=F IPFlag=           0 FMFlag=      100000 FMFlg1=           0
         NFxFlg=           0 DoJE=T BraDBF=F KetDBF=T FulRan=T
         wScrn=  0.000000 ICntrl=     500 IOpCl=  0 I1Cent=   200000004 NGrid=           0
         NMat0=    1 NMatS0=      1 NMatT0=    0 NMatD0=    1 NMtDS0=    0 NMtDT0=    0
 Petite list used in FoFCou.
 Keep R1 ints in memory in canonical form, NReq=44760116.
 Requested convergence on RMS density matrix=1.00D-08 within 128 cycles.
 Requested convergence on MAX density matrix=1.00D-06.
 Requested convergence on             energy=1.00D-06.
 No special actions if energy rises.
 Integral accuracy reduced to 1.0D-05 until final iterations.
 Initial convergence to 1.0D-05 achieved.  Increase integral accuracy.
 SCF Done:  E(RB3LYP) =  -465.555340511     A.U. after   15 cycles
            NFock= 15  Conv=0.49D-08     -V/T= 2.0059

 **********************************************************************

            Population analysis using the SCF density.

 **********************************************************************

 Orbital symmetries:
       Occupied  (A) (A) (A) (A) (A) (A) (A) (A) (A) (A) (A) (A)
                 (A) (A) (A) (A) (A) (A) (A) (A) (A) (A) (A) (A)
                 (A) (A) (A) (A) (A) (A) (A) (A) (A) (A) (A) (A)
                 (A) (A) (A) (A) (A) (A) (A)
       Virtual   (A) (A) (A) (A) (A) (A) (A) (A) (A) (A) (A) (A)
                 (A) (A) (A) (A) (A) (A) (A) (A) (A) (A) (A) (A)
                 (A) (A) (A) (A) (A) (A) (A) (A) (A) (A) (A) (A)
                 (A) (A) (A) (A) (A) (A) (A) (A) (A) (A) (A) (A)
                 (A) (A) (A) (A) (A) (A) (A) (A) (A) (A) (A) (A)
                 (A) (A) (A) (A) (A) (A) (A) (A) (A) (A) (A) (A)
                 (A) (A) (A) (A) (A) (A) (A) (A) (A) (A) (A) (A)
                 (A) (A) (A) (A) (A) (A) (A) (A) (A)
 The electronic state is 1-A.
 Alpha  occ. eigenvalues --  -10.21773 -10.20865 -10.18951 -10.18944 -10.18892
 Alpha  occ. eigenvalues --  -10.18887 -10.18592 -10.18084 -10.17731 -10.17449
 Alpha  occ. eigenvalues --  -10.17129 -10.15988  -0.86127  -0.81293  -0.77132
 Alpha  occ. eigenvalues --   -0.75027  -0.74865  -0.71273  -0.64064  -0.60737
 Alpha  occ. eigenvalues --   -0.60710  -0.58519  -0.53176  -0.48417  -0.47688
 Alpha  occ. eigenvalues --   -0.45487  -0.45291  -0.43561  -0.42982  -0.42963
 Alpha  occ. eigenvalues --   -0.42427  -0.38523  -0.37312  -0.36367  -0.35394
 Alpha  occ. eigenvalues --   -0.34825  -0.34234  -0.33373  -0.32970  -0.28974
 Alpha  occ. eigenvalues --   -0.25960  -0.25232  -0.22801
 Alpha virt. eigenvalues --   -0.01238   0.00079   0.07239   0.08293   0.09249
 Alpha virt. eigenvalues --    0.10289   0.12087   0.12467   0.14133   0.14230
 Alpha virt. eigenvalues --    0.15125   0.17034   0.17879   0.18539   0.18661
 Alpha virt. eigenvalues --    0.18999   0.19256   0.19628   0.19750   0.21758
 Alpha virt. eigenvalues --    0.22995   0.24469   0.26308   0.29470   0.30798
 Alpha virt. eigenvalues --    0.31070   0.32624   0.35708   0.47725   0.48085
 Alpha virt. eigenvalues --    0.51650   0.53009   0.54023   0.54930   0.56827
 Alpha virt. eigenvalues --    0.56838   0.57087   0.58642   0.59368   0.59780
 Alpha virt. eigenvalues --    0.60792   0.61296   0.62085   0.62714   0.64028
 Alpha virt. eigenvalues --    0.65422   0.65653   0.66202   0.66510   0.68688
 Alpha virt. eigenvalues --    0.69421   0.71674   0.75298   0.75537   0.77903
 Alpha virt. eigenvalues --    0.79766   0.81450   0.81902   0.84097   0.85399
 Alpha virt. eigenvalues --    0.85831   0.87216   0.88107   0.89693   0.92061
 Alpha virt. eigenvalues --    0.92168   0.93432   0.95900   0.97258   0.97881
 Alpha virt. eigenvalues --    0.98844   0.99405   1.00846   1.01815   1.02575
 Alpha virt. eigenvalues --    1.05039   1.06565   1.07174   1.13571   1.16897
 Alpha virt. eigenvalues --    1.19023   1.21718   1.25286   1.27702   1.36171
 Alpha virt. eigenvalues --    1.36580   1.43242   1.47107   1.47318   1.53325
 Alpha virt. eigenvalues --    1.74239   1.90926   1.97810
          Condensed to atoms (all electrons):
               1          2          3          4          5          6
     1  C    5.315319   0.828671  -0.087962  -0.000332  -0.000341   0.000406
     2  C    0.828671   5.270384   0.246400  -0.024932  -0.025121   0.008138
     3  C   -0.087962   0.246400   4.794259   0.526014   0.526588  -0.034544
     4  C   -0.000332  -0.024932   0.526014   4.936066  -0.073322   0.500705
     5  C   -0.000341  -0.025121   0.526588  -0.073322   4.937025  -0.042544
     6  C    0.000406   0.008138  -0.034544   0.500705  -0.042544   4.925061
     7  H   -0.001556  -0.005349  -0.031870   0.351731   0.004750  -0.034928
     8  C    0.000406   0.008133  -0.034760  -0.042436   0.500394  -0.042504
     9  H   -0.001558  -0.005339  -0.031889   0.004734   0.351625   0.000290
    10  C    0.000066   0.001690  -0.023050  -0.061662  -0.061757   0.539624
    11  H   -0.000009  -0.000290   0.003283  -0.030539   0.000856   0.350848
    12  H   -0.000009  -0.000290   0.003281   0.000854  -0.030455   0.004169
    13  H    0.000000  -0.000011   0.000127   0.005356   0.005367  -0.037425
    14  C    0.197751  -0.033728   0.002282  -0.000007  -0.000007   0.000001
    15  C   -0.045847  -0.007913  -0.000088   0.000000   0.000000   0.000000
    16  H   -0.040372  -0.005590  -0.000070   0.000001  -0.000002   0.000000
    17  H   -0.040383  -0.005587  -0.000070  -0.000002   0.000001   0.000000
    18  H   -0.002457  -0.001536  -0.000036   0.000000   0.000001   0.000000
    19  H   -0.002459  -0.001535  -0.000036   0.000001   0.000000   0.000000
    20  C    0.009474   0.000601   0.000002   0.000000   0.000000   0.000000
    21  H    0.000072   0.000002   0.000000   0.000000   0.000000   0.000000
    22  H    0.000072   0.000002   0.000000   0.000000   0.000000   0.000000
    23  C   -0.000433  -0.000019   0.000000   0.000000   0.000000   0.000000
    24  H   -0.000004   0.000000   0.000000   0.000000   0.000000   0.000000
    25  H    0.000006   0.000000   0.000000   0.000000   0.000000   0.000000
    26  H   -0.000004   0.000000   0.000000   0.000000   0.000000   0.000000
               7          8          9         10         11         12
     1  C   -0.001556   0.000406  -0.001558   0.000066  -0.000009  -0.000009
     2  C   -0.005349   0.008133  -0.005339   0.001690  -0.000290  -0.000290
     3  C   -0.031870  -0.034760  -0.031889  -0.023050   0.003283   0.003281
     4  C    0.351731  -0.042436   0.004734  -0.061662  -0.030539   0.000854
     5  C    0.004750   0.500394   0.351625  -0.061757   0.000856  -0.030455
     6  C   -0.034928  -0.042504   0.000290   0.539624   0.350848   0.004169
     7  H    0.575341   0.000290  -0.000156   0.004244  -0.003994   0.000013
     8  C    0.000290   4.924740  -0.034866   0.539989   0.004173   0.350852
     9  H   -0.000156  -0.034866   0.575312   0.004248   0.000013  -0.003998
    10  C    0.004244   0.539989   0.004248   4.884690  -0.035444  -0.035427
    11  H   -0.003994   0.004173   0.000013  -0.035444   0.586860  -0.000173
    12  H    0.000013   0.350852  -0.003998  -0.035427  -0.000173   0.586661
    13  H   -0.000161  -0.037429  -0.000161   0.356284  -0.004535  -0.004525
    14  C   -0.000029   0.000001  -0.000030   0.000000   0.000000   0.000000
    15  C    0.000000   0.000000   0.000000   0.000000   0.000000   0.000000
    16  H    0.000000   0.000000  -0.000002   0.000000   0.000000   0.000000
    17  H   -0.000002   0.000000   0.000000   0.000000   0.000000   0.000000
    18  H    0.000000   0.000000   0.000000   0.000000   0.000000   0.000000
    19  H    0.000001   0.000000   0.000000   0.000000   0.000000   0.000000
    20  C    0.000000   0.000000   0.000000   0.000000   0.000000   0.000000
    21  H    0.000000   0.000000   0.000000   0.000000   0.000000   0.000000
    22  H    0.000000   0.000000   0.000000   0.000000   0.000000   0.000000
    23  C    0.000000   0.000000   0.000000   0.000000   0.000000   0.000000
    24  H    0.000000   0.000000   0.000000   0.000000   0.000000   0.000000
    25  H    0.000000   0.000000   0.000000   0.000000   0.000000   0.000000
    26  H    0.000000   0.000000   0.000000   0.000000   0.000000   0.000000
              13         14         15         16         17         18
     1  C    0.000000   0.197751  -0.045847  -0.040372  -0.040383  -0.002457
     2  C   -0.000011  -0.033728  -0.007913  -0.005590  -0.005587  -0.001536
     3  C    0.000127   0.002282  -0.000088  -0.000070  -0.000070  -0.000036
     4  C    0.005356  -0.000007   0.000000   0.000001  -0.000002   0.000000
     5  C    0.005367  -0.000007   0.000000  -0.000002   0.000001   0.000001
     6  C   -0.037425   0.000001   0.000000   0.000000   0.000000   0.000000
     7  H   -0.000161  -0.000029   0.000000   0.000000  -0.000002   0.000000
     8  C   -0.037429   0.000001   0.000000   0.000000   0.000000   0.000000
     9  H   -0.000161  -0.000030   0.000000  -0.000002   0.000000   0.000000
    10  C    0.356284   0.000000   0.000000   0.000000   0.000000   0.000000
    11  H   -0.004535   0.000000   0.000000   0.000000   0.000000   0.000000
    12  H   -0.004525   0.000000   0.000000   0.000000   0.000000   0.000000
    13  H    0.593060   0.000000   0.000000   0.000000   0.000000   0.000000
    14  C    0.000000   5.114046   0.310897   0.381818   0.381821  -0.039191
    15  C    0.000000   0.310897   5.126839  -0.042488  -0.042501   0.380087
    16  H    0.000000   0.381818  -0.042488   0.583318  -0.034327  -0.005439
    17  H    0.000000   0.381821  -0.042501  -0.034327   0.583327   0.005380
    18  H    0.000000  -0.039191   0.380087  -0.005439   0.005380   0.603886
    19  H    0.000000  -0.039198   0.380091   0.005380  -0.005437  -0.034392
    20  C    0.000000  -0.050815   0.318512  -0.003529  -0.003525  -0.043362
    21  H    0.000000  -0.002696  -0.043938  -0.000537   0.005369   0.005815
    22  H    0.000000  -0.002696  -0.043937   0.005369  -0.000537  -0.005598
    23  C    0.000000   0.005423  -0.051379   0.000032   0.000032  -0.003289
    24  H    0.000000   0.000115  -0.005211   0.000007   0.000002  -0.000582
    25  H    0.000000  -0.000231   0.005105   0.000002   0.000002   0.000039
    26  H    0.000000   0.000115  -0.005210   0.000002   0.000007   0.005653
              19         20         21         22         23         24
     1  C   -0.002459   0.009474   0.000072   0.000072  -0.000433  -0.000004
     2  C   -0.001535   0.000601   0.000002   0.000002  -0.000019   0.000000
     3  C   -0.000036   0.000002   0.000000   0.000000   0.000000   0.000000
     4  C    0.000001   0.000000   0.000000   0.000000   0.000000   0.000000
     5  C    0.000000   0.000000   0.000000   0.000000   0.000000   0.000000
     6  C    0.000000   0.000000   0.000000   0.000000   0.000000   0.000000
     7  H    0.000001   0.000000   0.000000   0.000000   0.000000   0.000000
     8  C    0.000000   0.000000   0.000000   0.000000   0.000000   0.000000
     9  H    0.000000   0.000000   0.000000   0.000000   0.000000   0.000000
    10  C    0.000000   0.000000   0.000000   0.000000   0.000000   0.000000
    11  H    0.000000   0.000000   0.000000   0.000000   0.000000   0.000000
    12  H    0.000000   0.000000   0.000000   0.000000   0.000000   0.000000
    13  H    0.000000   0.000000   0.000000   0.000000   0.000000   0.000000
    14  C   -0.039198  -0.050815  -0.002696  -0.002696   0.005423   0.000115
    15  C    0.380091   0.318512  -0.043938  -0.043937  -0.051379  -0.005211
    16  H    0.005380  -0.003529  -0.000537   0.005369   0.000032   0.000007
    17  H   -0.005437  -0.003525   0.005369  -0.000537   0.000032   0.000002
    18  H   -0.034392  -0.043362   0.005815  -0.005598  -0.003289  -0.000582
    19  H    0.603916  -0.043369  -0.005598   0.005815  -0.003289   0.005654
    20  C   -0.043369   5.065793   0.381844   0.381843   0.333939  -0.039536
    21  H   -0.005598   0.381844   0.615221  -0.039766  -0.040815  -0.005024
    22  H    0.005815   0.381843  -0.039766   0.615221  -0.040816   0.005622
    23  C   -0.003289   0.333939  -0.040815  -0.040816   5.067267   0.382877
    24  H    0.005654  -0.039536  -0.005024   0.005622   0.382877   0.586273
    25  H    0.000039  -0.032417  -0.002721  -0.002722   0.371196  -0.032115
    26  H   -0.000582  -0.039538   0.005622  -0.005023   0.382878  -0.033261
              25         26
     1  C    0.000006  -0.000004
     2  C    0.000000   0.000000
     3  C    0.000000   0.000000
     4  C    0.000000   0.000000
     5  C    0.000000   0.000000
     6  C    0.000000   0.000000
     7  H    0.000000   0.000000
     8  C    0.000000   0.000000
     9  H    0.000000   0.000000
    10  C    0.000000   0.000000
    11  H    0.000000   0.000000
    12  H    0.000000   0.000000
    13  H    0.000000   0.000000
    14  C   -0.000231   0.000115
    15  C    0.005105  -0.005210
    16  H    0.000002   0.000002
    17  H    0.000002   0.000007
    18  H    0.000039   0.005653
    19  H    0.000039  -0.000582
    20  C   -0.032417  -0.039538
    21  H   -0.002721   0.005622
    22  H   -0.002722  -0.005023
    23  C    0.371196   0.382878
    24  H   -0.032115  -0.033261
    25  H    0.594564  -0.032115
    26  H   -0.032115   0.586268
 Mulliken charges:
               1
     1  C   -0.128516
     2  C   -0.246782
     3  C    0.142137
     4  C   -0.092231
     5  C   -0.093058
     6  C   -0.137297
     7  H    0.141675
     8  C   -0.136985
     9  H    0.141775
    10  C   -0.113496
    11  H    0.128951
    12  H    0.129047
    13  H    0.124051
    14  C   -0.225643
    15  C   -0.233019
    16  H    0.156425
    17  H    0.156430
    18  H    0.135020
    19  H    0.134998
    20  C   -0.235918
    21  H    0.127150
    22  H    0.127151
    23  C   -0.403604
    24  H    0.135184
    25  H    0.131368
    26  H    0.135187
 Sum of Mulliken charges =   0.00000
 Mulliken charges with hydrogens summed into heavy atoms:
               1
     1  C   -0.128516
     2  C   -0.246782
     3  C    0.142137
     4  C    0.049444
     5  C    0.048717
     6  C   -0.008346
     8  C   -0.007938
    10  C    0.010556
    14  C    0.087212
    15  C    0.037000
    20  C    0.018382
    23  C   -0.001865
 Electronic spatial extent (au):  <R**2>=           4310.4298
 Charge=              0.0000 electrons
 Dipole moment (field-independent basis, Debye):
    X=              0.4817    Y=              0.0002    Z=             -0.0376  Tot=              0.4832
 Quadrupole moment (field-independent basis, Debye-Ang):
   XX=            -61.2836   YY=            -67.4519   ZZ=            -75.4803
   XY=             -0.0371   XZ=              3.2601   YZ=              0.0731
 Traceless Quadrupole moment (field-independent basis, Debye-Ang):
   XX=              6.7884   YY=              0.6200   ZZ=             -7.4084
   XY=             -0.0371   XZ=              3.2601   YZ=              0.0731
 Octapole moment (field-independent basis, Debye-Ang**2):
  XXX=            -22.7607  YYY=              0.0384  ZZZ=              0.9526  XYY=             -8.6814
  XXY=             -0.0191  XXZ=             -4.7342  XZZ=             12.4285  YZZ=             -0.0280
  YYZ=             -0.7935  XYZ=             -0.1680
 Hexadecapole moment (field-independent basis, Debye-Ang**3):
 XXXX=          -5086.4587 YYYY=           -331.9326 ZZZZ=           -267.6441 XXXY=             -0.8655
 XXXZ=             88.2515 YYYX=             -0.1743 YYYZ=              0.2841 ZZZX=              0.6221
 ZZZY=              0.1619 XXYY=           -894.3458 XXZZ=           -976.4262 YYZZ=           -105.1155
 XXYZ=              0.9768 YYXZ=              5.6425 ZZXY=              0.0761
 N-N= 5.755249963321D+02 E-N=-2.229467728899D+03  KE= 4.628455938373D+02
 Calling FoFJK, ICntrl=      2127 FMM=F ISym2X=0 I1Cent= 0 IOpClX= 0 NMat=1 NMatS=1 NMatT=0.
 ***** Axes restored to original set *****
 -------------------------------------------------------------------
 Center     Atomic                   Forces (Hartrees/Bohr)
 Number     Number              X              Y              Z
 -------------------------------------------------------------------
      1        6          -0.071587580    0.006606527   -0.000183570
      2        6           0.095078054   -0.001905660    0.000326600
      3        6          -0.065909910    0.004659015    0.000896169
      4        6           0.000867434   -0.003110442    0.012543079
      5        6           0.001277626   -0.003118298   -0.014711701
      6        6           0.000585715    0.000922634    0.005771445
      7        1           0.001981968    0.000216707   -0.005762617
      8        6           0.000545432    0.000986346   -0.005319042
      9        1           0.002274131    0.000198038    0.006465950
     10        6          -0.005180508   -0.000451195   -0.000092292
     11        1          -0.003057580    0.000255961   -0.004668425
     12        1          -0.003085726    0.000251893    0.004599348
     13        1           0.011698608   -0.000132602    0.000031997
     14        6           0.047450553    0.022737735   -0.000072365
     15        6          -0.011087420   -0.020988746    0.000123845
     16        1           0.002529472   -0.004399150    0.010691674
     17        1           0.002562016   -0.004575615   -0.010613953
     18        1          -0.000185076    0.005324721    0.011122870
     19        1          -0.000145590    0.005155539   -0.011198298
     20        6           0.016306276   -0.028803698    0.000261893
     21        1          -0.007605209    0.011897669    0.013899777
     22        1          -0.007552332    0.011703035   -0.014108008
     23        6           0.001413904    0.023977354   -0.000194359
     24        1           0.004411516   -0.011244213    0.013813045
     25        1          -0.018057810   -0.004744613    0.000000231
     26        1           0.004472038   -0.011418942   -0.013623292
 -------------------------------------------------------------------
 Cartesian Forces:  Max     0.095078054 RMS     0.018516863

 GradGradGradGradGradGradGradGradGradGradGradGradGradGradGradGradGradGrad
 Berny optimization.
 FormGI is forming the generalized inverse of G from B-inverse, IUseBI=4.
 Internal  Forces:  Max     0.058003403 RMS     0.008715946
 Search for a local minimum.
 Step number   1 out of a maximum of  139
 All quantities printed in internal units (Hartrees-Bohrs-Radians)
 Mixed Optimization -- RFO/linear search
 Second derivative matrix not updated -- first step.
 ITU=  0
     Eigenvalues ---    0.00230   0.00230   0.00230   0.00235   0.00236
     Eigenvalues ---    0.00237   0.00237   0.00763   0.01590   0.02116
     Eigenvalues ---    0.02117   0.02119   0.02122   0.02124   0.02126
     Eigenvalues ---    0.02128   0.02132   0.03840   0.03878   0.04580
     Eigenvalues ---    0.04896   0.05017   0.05601   0.05720   0.05720
     Eigenvalues ---    0.07655   0.08040   0.09396   0.11701   0.11959
     Eigenvalues ---    0.12845   0.15995   0.15996   0.16000   0.16000
     Eigenvalues ---    0.16000   0.16000   0.16000   0.16000   0.21926
     Eigenvalues ---    0.21948   0.21962   0.21994   0.22000   0.23476
     Eigenvalues ---    0.24980   0.28403   0.28519   0.28519   0.28519
     Eigenvalues ---    0.31852   0.31852   0.31855   0.31856   0.32351
     Eigenvalues ---    0.34325   0.34399   0.34413   0.34464   0.37230
     Eigenvalues ---    0.37230   0.37230   0.37230   0.37230   0.37309
     Eigenvalues ---    0.41750   0.42025   0.45928   0.45996   0.46091
     Eigenvalues ---    0.46204   1.05241
 RFO step:  Lambda=-2.78653518D-02 EMin= 2.30000000D-03
 Linear search not attempted -- first point.
 Iteration  1 RMS(Cart)=  0.05762178 RMS(Int)=  0.00066408
 Iteration  2 RMS(Cart)=  0.00184522 RMS(Int)=  0.00014448
 Iteration  3 RMS(Cart)=  0.00000261 RMS(Int)=  0.00014448
 Iteration  4 RMS(Cart)=  0.00000000 RMS(Int)=  0.00014448
 Variable       Old X    -DE/DX   Delta X   Delta X   Delta X     New X
                                 (Linear)    (Quad)   (Total)
    R1        2.26611   0.03708   0.00000   0.03433   0.03432   2.30043
    R2        2.91018  -0.03453   0.00000  -0.11030  -0.11030   2.79988
    R3        2.91266  -0.05800   0.00000  -0.18597  -0.18597   2.72669
    R4        2.64178   0.00617   0.00000   0.01291   0.01290   2.65469
    R5        2.63832   0.00750   0.00000   0.01557   0.01557   2.65389
    R6        2.64183   0.00077   0.00000   0.00155   0.00155   2.64338
    R7        2.06554  -0.00598   0.00000  -0.01606  -0.01606   2.04948
    R8        2.64238   0.00073   0.00000   0.00154   0.00154   2.64391
    R9        2.06786  -0.00674   0.00000  -0.01816  -0.01816   2.04970
   R10        2.64009   0.00405   0.00000   0.00801   0.00801   2.64810
   R11        2.06662  -0.00557   0.00000  -0.01498  -0.01498   2.05164
   R12        2.63983   0.00401   0.00000   0.00795   0.00796   2.64779
   R13        2.06639  -0.00553   0.00000  -0.01485  -0.01485   2.05153
   R14        2.02083   0.01170   0.00000   0.02918   0.02918   2.05001
   R15        2.83506   0.02431   0.00000   0.06919   0.06919   2.90425
   R16        2.11110  -0.01165   0.00000  -0.03362  -0.03362   2.07748
   R17        2.11109  -0.01166   0.00000  -0.03365  -0.03365   2.07744
   R18        2.11115  -0.01170   0.00000  -0.03378  -0.03378   2.07737
   R19        2.11115  -0.01170   0.00000  -0.03377  -0.03377   2.07738
   R20        2.91018   0.00659   0.00000   0.02104   0.02104   2.93121
   R21        2.02201   0.01952   0.00000   0.04878   0.04878   2.07079
   R22        2.02201   0.01953   0.00000   0.04880   0.04880   2.07081
   R23        2.91018   0.00584   0.00000   0.01865   0.01865   2.92883
   R24        2.02201   0.01804   0.00000   0.04508   0.04508   2.06708
   R25        2.02201   0.01804   0.00000   0.04509   0.04509   2.06709
   R26        2.02201   0.01802   0.00000   0.04503   0.04503   2.06704
    A1        2.09307   0.00021   0.00000   0.00040   0.00039   2.09346
    A2        2.09164   0.00063   0.00000   0.00189   0.00189   2.09353
    A3        2.09779  -0.00082   0.00000  -0.00188  -0.00193   2.09586
    A4        2.09144  -0.00040   0.00000  -0.00116  -0.00120   2.09024
    A5        2.09611  -0.00101   0.00000  -0.00573  -0.00575   2.09036
    A6        2.09540   0.00142   0.00000   0.00716   0.00715   2.10255
    A7        2.09320  -0.00077   0.00000  -0.00240  -0.00244   2.09076
    A8        2.09628  -0.00091   0.00000  -0.00557  -0.00559   2.09069
    A9        2.09347   0.00169   0.00000   0.00823   0.00822   2.10169
   A10        2.09342   0.00154   0.00000   0.00559   0.00558   2.09899
   A11        2.09403  -0.00110   0.00000  -0.00454  -0.00454   2.08950
   A12        2.09573  -0.00044   0.00000  -0.00105  -0.00104   2.09469
   A13        2.09222   0.00165   0.00000   0.00626   0.00626   2.09848
   A14        2.09489  -0.00121   0.00000  -0.00515  -0.00515   2.08974
   A15        2.09607  -0.00045   0.00000  -0.00111  -0.00110   2.09496
   A16        2.09766  -0.00118   0.00000  -0.00579  -0.00579   2.09187
   A17        2.09278   0.00057   0.00000   0.00278   0.00279   2.09557
   A18        2.09274   0.00061   0.00000   0.00301   0.00301   2.09575
   A19        1.93230   0.00855   0.00000   0.03979   0.03970   1.97200
   A20        1.88829  -0.00248   0.00000  -0.00652  -0.00675   1.88154
   A21        1.88831  -0.00248   0.00000  -0.00618  -0.00641   1.88190
   A22        1.93251  -0.00174   0.00000  -0.00485  -0.00470   1.92781
   A23        1.93257  -0.00164   0.00000  -0.00407  -0.00429   1.92829
   A24        1.88832  -0.00045   0.00000  -0.01957  -0.01984   1.86849
   A25        1.93220  -0.00322   0.00000  -0.01773  -0.01828   1.91393
   A26        1.93222  -0.00321   0.00000  -0.01757  -0.01812   1.91410
   A27        1.93271   0.00765   0.00000   0.03735   0.03724   1.96994
   A28        1.88842  -0.00034   0.00000  -0.02107  -0.02150   1.86693
   A29        1.88840  -0.00046   0.00000   0.00947   0.00963   1.89803
   A30        1.88837  -0.00047   0.00000   0.00945   0.00961   1.89798
   A31        1.91063  -0.00279   0.00000  -0.00882  -0.00915   1.90148
   A32        1.91063  -0.00279   0.00000  -0.00891  -0.00924   1.90140
   A33        1.91063   0.01011   0.00000   0.04841   0.04816   1.95879
   A34        1.91063  -0.00021   0.00000  -0.02514  -0.02533   1.88530
   A35        1.91063  -0.00215   0.00000  -0.00271  -0.00285   1.90779
   A36        1.91063  -0.00216   0.00000  -0.00283  -0.00297   1.90767
   A37        1.91063   0.00305   0.00000   0.01573   0.01554   1.92617
   A38        1.91063   0.00559   0.00000   0.03076   0.03046   1.94109
   A39        1.91063   0.00301   0.00000   0.01551   0.01532   1.92596
   A40        1.91063  -0.00413   0.00000  -0.02097  -0.02125   1.88938
   A41        1.91063  -0.00341   0.00000  -0.02012  -0.02019   1.89044
   A42        1.91063  -0.00411   0.00000  -0.02092  -0.02120   1.88943
   A43        3.14159  -0.00261   0.00000  -0.06898  -0.06903   3.07256
   A44        3.14159  -0.00001   0.00000  -0.00063  -0.00055   3.14104
   A45        3.14159   0.00097   0.00000   0.02622   0.02611   3.16770
   A46        3.14159  -0.00044   0.00000  -0.01730  -0.01721   3.12438
    D1       -1.58385   0.00065   0.00000   0.01727   0.01700  -1.56685
    D2        2.57877  -0.00057   0.00000   0.01074   0.01090   2.58967
    D3        0.53681   0.00172   0.00000   0.01787   0.01777   0.55458
    D4        1.59751  -0.00057   0.00000  -0.01405  -0.01417   1.58333
    D5       -0.52306  -0.00180   0.00000  -0.02058  -0.02027  -0.54333
    D6       -2.56502   0.00050   0.00000  -0.01345  -0.01340  -2.57842
    D7       -3.13968   0.00042   0.00000   0.00645   0.00638  -3.13330
    D8        0.02538  -0.00023   0.00000  -0.00685  -0.00688   0.01851
    D9       -0.03799   0.00083   0.00000   0.01852   0.01855  -0.01945
   D10        3.12707   0.00018   0.00000   0.00522   0.00529   3.13236
   D11        3.14019  -0.00044   0.00000  -0.00669  -0.00660   3.13359
   D12       -0.02477   0.00021   0.00000   0.00652   0.00655  -0.01822
   D13        0.03847  -0.00084   0.00000  -0.01871  -0.01874   0.01973
   D14       -3.12649  -0.00019   0.00000  -0.00551  -0.00558  -3.13207
   D15        0.02003  -0.00046   0.00000  -0.01027  -0.01030   0.00973
   D16       -3.12378  -0.00045   0.00000  -0.00984  -0.00987  -3.13365
   D17        3.13816   0.00016   0.00000   0.00285   0.00287   3.14103
   D18       -0.00565   0.00017   0.00000   0.00328   0.00330  -0.00235
   D19       -0.02094   0.00048   0.00000   0.01061   0.01065  -0.01029
   D20        3.12361   0.00045   0.00000   0.00976   0.00979   3.13340
   D21       -3.13921  -0.00014   0.00000  -0.00238  -0.00240   3.14158
   D22        0.00535  -0.00016   0.00000  -0.00324  -0.00326   0.00209
   D23       -0.00265   0.00014   0.00000   0.00234   0.00233  -0.00032
   D24        3.13963   0.00007   0.00000   0.00140   0.00140   3.14103
   D25        3.14116   0.00013   0.00000   0.00192   0.00191  -3.14012
   D26        0.00025   0.00006   0.00000   0.00098   0.00097   0.00123
   D27        0.00308  -0.00014   0.00000  -0.00248  -0.00249   0.00060
   D28       -3.13920  -0.00007   0.00000  -0.00154  -0.00155  -3.14075
   D29       -3.14147  -0.00011   0.00000  -0.00164  -0.00163   3.14008
   D30       -0.00057  -0.00004   0.00000  -0.00070  -0.00070  -0.00127
   D31       -1.04715   0.00234   0.00000   0.02503   0.02471  -1.02244
   D32        1.04706  -0.00230   0.00000  -0.02449  -0.02431   1.02274
   D33        3.14154   0.00002   0.00000   0.00031   0.00024  -3.14141
   D34        1.04715   0.00369   0.00000   0.03975   0.03957   1.08672
   D35        3.14136  -0.00095   0.00000  -0.00977  -0.00946   3.13190
   D36       -1.04735   0.00137   0.00000   0.01503   0.01510  -1.03225
   D37       -3.14152   0.00092   0.00000   0.00937   0.00912  -3.13240
   D38       -1.04731  -0.00372   0.00000  -0.04016  -0.03991  -1.08722
   D39        1.04717  -0.00140   0.00000  -0.01536  -0.01535   1.03182
   D40       -1.04718   0.00183   0.00000   0.02059   0.02053  -1.02665
   D41        1.04721  -0.00185   0.00000  -0.02106  -0.02100   1.02621
   D42       -3.14158  -0.00002   0.00000  -0.00034  -0.00034   3.14127
   D43        3.11550   0.00138   0.00000   0.01331   0.01309   3.12859
   D44       -1.07329  -0.00229   0.00000  -0.02833  -0.02844  -1.10174
   D45        1.02110  -0.00046   0.00000  -0.00762  -0.00778   1.01333
   D46        1.07333   0.00229   0.00000   0.02805   0.02816   1.10149
   D47       -3.11546  -0.00139   0.00000  -0.01359  -0.01337  -3.12884
   D48       -1.02107   0.00044   0.00000   0.00713   0.00729  -1.01378
   D49        1.04726  -0.00023   0.00000  -0.00269  -0.00275   1.04452
   D50       -3.14153   0.00001   0.00000   0.00010   0.00010  -3.14143
   D51       -1.04713   0.00024   0.00000   0.00281   0.00287  -1.04426
   D52       -1.04713  -0.00168   0.00000  -0.01987  -0.01999  -1.06712
   D53        1.04726  -0.00145   0.00000  -0.01708  -0.01715   1.03012
   D54       -3.14153  -0.00122   0.00000  -0.01437  -0.01438   3.12728
   D55       -3.14153   0.00121   0.00000   0.01431   0.01431  -3.12721
   D56       -1.04713   0.00145   0.00000   0.01710   0.01716  -1.02997
   D57        1.04726   0.00168   0.00000   0.01981   0.01993   1.06719
         Item               Value     Threshold  Converged?
 Maximum Force            0.058003     0.000450     NO 
 RMS     Force            0.008716     0.000300     NO 
 Maximum Displacement     0.195127     0.001800     NO 
 RMS     Displacement     0.058297     0.001200     NO 
 Predicted change in Energy=-1.533304D-02
 GradGradGradGradGradGradGradGradGradGradGradGradGradGradGradGradGradGrad

                          Input orientation:                          
 ---------------------------------------------------------------------
 Center     Atomic      Atomic             Coordinates (Angstroms)
 Number     Number       Type             X           Y           Z
 ---------------------------------------------------------------------
      1          6           0       -1.683909   -0.407723   -0.014684
      2          6           0       -0.467627   -0.457987   -0.008530
      3          6           0        0.974715   -0.497613   -0.001796
      4          6           0        1.670462   -0.500898    1.218609
      5          6           0        1.681744   -0.499146   -1.215215
      6          6           0        3.068988   -0.529311    1.220520
      7          1           0        1.119366   -0.491008    2.152643
      8          6           0        3.080508   -0.527908   -1.204687
      9          1           0        1.139756   -0.487634   -2.154678
     10          6           0        3.776747   -0.542681    0.011148
     11          1           0        3.605834   -0.539321    2.164127
     12          1           0        3.625949   -0.536786   -2.143302
     13          1           0        4.861340   -0.564190    0.016347
     14          6           0       -3.164852   -0.452545   -0.008790
     15          6           0       -3.721933   -1.884857    0.001028
     16          1           0       -3.521167    0.092216   -0.894708
     17          1           0       -3.514812    0.102378    0.873325
     18          1           0       -3.356427   -2.429902   -0.880895
     19          1           0       -3.350027   -2.420474    0.886053
     20          6           0       -5.272436   -1.928591    0.006916
     21          1           0       -5.639999   -1.397466    0.892134
     22          1           0       -5.646390   -1.406697   -0.881128
     23          6           0       -5.818088   -3.379201    0.016330
     24          1           0       -5.466696   -3.912252    0.904527
     25          1           0       -6.911880   -3.390688    0.020215
     26          1           0       -5.472853   -3.921201   -0.868831
 ---------------------------------------------------------------------
                    Distance matrix (angstroms):
                    1          2          3          4          5
     1  C    0.000000
     2  C    1.217335   0.000000
     3  C    2.660174   1.442902   0.000000
     4  C    3.575122   2.465591   1.404801   0.000000
     5  C    3.574528   2.465275   1.404378   2.433851   0.000000
     6  C    4.912285   3.744769   2.425086   1.398816   2.803242
     7  H    3.544375   2.681474   2.159300   1.084538   3.414499
     8  C    4.912252   3.744989   2.425330   2.803805   1.399099
     9  H    3.543874   2.681513   2.159222   3.414805   1.084653
    10  C    5.462384   4.245265   2.802424   2.428198   2.427942
    11  H    5.722404   4.617374   3.408189   2.154332   3.888919
    12  H    5.722086   4.617448   3.408317   3.889430   2.154692
    13  H    6.547193   5.330084   3.887238   3.410446   3.410398
    14  C    1.481633   2.697230   4.139818   4.988898   4.994709
    15  C    2.517084   3.553386   4.897240   5.698752   5.709568
    16  H    2.097594   3.226785   4.621487   5.636569   5.246209
    17  H    2.097849   3.221337   4.613207   5.231657   5.632763
    18  H    2.763484   3.604807   4.823416   5.779151   5.405807
    19  H    2.763773   3.599981   4.815503   5.385227   5.781483
    20  C    3.897568   5.024849   6.408953   7.190991   7.203995
    21  H    4.177626   5.333596   6.735227   7.372466   7.671754
    22  H    4.177312   5.336765   6.740823   7.665878   7.391671
    23  C    5.091373   6.096027   7.378757   8.112243   8.127663
    24  H    5.237953   6.144616   7.346629   7.916755   8.200170
    25  H    6.019218   7.080251   8.400521   9.134748   9.150829
    26  H    5.237384   6.147053   7.351452   8.190411   7.938432
                    6          7          8          9         10
     6  C    0.000000
     7  H    2.161330   0.000000
     8  C    2.425235   3.888329   0.000000
     9  H    3.887883   4.307371   2.161162   0.000000
    10  C    1.401315   3.413260   1.401150   3.412851   0.000000
    11  H    1.085679   2.486964   3.409547   4.973559   2.159756
    12  H    3.409627   4.973952   1.085626   2.486705   2.159728
    13  H    2.159577   4.309465   2.159539   4.309223   1.084819
    14  C    6.354357   4.798729   6.359274   4.809960   6.942213
    15  C    7.031449   5.478179   7.040473   5.498666   7.617857
    16  H    6.949146   5.582208   6.637978   4.862916   7.381275
    17  H    6.623141   4.844003   6.943604   5.584077   7.370637
    18  H    7.022403   5.744074   6.719862   5.060691   7.432329
    19  H    6.700158   5.030166   7.021736   5.756741   7.421757
    20  C    8.544600   6.893905   8.555791   6.918458   9.154697
    21  H    8.758309   6.935385   9.011106   7.488387   9.496415
    22  H    9.008027   7.471125   8.776999   6.965514   9.504641
    23  C    9.410211   7.812411   9.423681   7.841303  10.005335
    24  H    9.187058   7.525883   9.431715   8.045617   9.878936
    25  H   10.452078   8.800927  10.466313   8.831010  11.061554
    26  H    9.425145   8.022025   9.207998   7.561045   9.886550
                   11         12         13         14         15
    11  H    0.000000
    12  H    4.307477   0.000000
    13  H    2.487946   2.488177   0.000000
    14  C    7.111349   7.118863   8.027008   0.000000
    15  C    7.757940   7.772182   8.684295   1.536864   0.000000
    16  H    7.781353   7.282575   8.457383   1.099353   2.179786
    17  H    7.265091   7.778113   8.446221   1.099336   2.180116
    18  H    7.830679   7.343782   8.474528   2.169610   1.099298
    19  H    7.318211   7.835146   8.463376   2.169742   1.099304
    20  C    9.241608   9.259688  10.225219   2.573105   1.551131
    21  H    9.372289   9.788383  10.570690   2.798373   2.170391
    22  H    9.779037   9.398197  10.579588   2.798109   2.170339
    23  C   10.074138  10.096196  11.044206   3.950393   2.574328
    24  H    9.760843  10.166574  10.893425   4.254669   2.823268
    25  H   11.106258  11.129753  12.107759   4.761696   3.527557
    26  H   10.151774   9.791157  10.901772   4.254188   2.822955
                   16         17         18         19         20
    16  H    0.000000
    17  H    1.768074   0.000000
    18  H    2.527530   3.084609   0.000000
    19  H    3.084479   2.528261   1.766985   0.000000
    20  C    2.821973   2.822188   2.170394   2.170367   0.000000
    21  H    3.146650   2.601213   3.069895   2.508098   1.095814
    22  H    2.600673   3.146274   2.508162   3.069846   1.095826
    23  C    4.261053   4.261563   2.786747   2.786916   1.549869
    24  H    4.801885   4.464088   3.136611   2.589600   2.185945
    25  H    4.946174   4.946654   3.791617   3.791806   2.196743
    26  H    4.462876   4.801898   2.589088   3.136589   2.185770
                   21         22         23         24         25
    21  H    0.000000
    22  H    1.773297   0.000000
    23  C    2.173942   2.173863   0.000000
    24  H    2.520781   3.081990   1.093853   0.000000
    25  H    2.520091   2.519941   1.093859   1.772737   0.000000
    26  H    3.081911   2.520515   1.093829   1.773392   1.772750
                   26
    26  H    0.000000
 Stoichiometry    C12H14
 Framework group  C1[X(C12H14)]
 Deg. of freedom    72
 Full point group                 C1      NOp   1
 Largest Abelian subgroup         C1      NOp   1
 Largest concise Abelian subgroup C1      NOp   1
                         Standard orientation:                         
 ---------------------------------------------------------------------
 Center     Atomic      Atomic             Coordinates (Angstroms)
 Number     Number       Type             X           Y           Z
 ---------------------------------------------------------------------
      1          6           0        0.777926   -0.035476    0.839080
      2          6           0       -0.398147   -0.022221    0.525104
      3          6           0       -1.797163   -0.007488    0.172254
      4          6           0       -2.475134    1.216160    0.043780
      5          6           0       -2.487181   -1.217077   -0.009532
      6          6           0       -3.833834    1.225618   -0.288685
      7          1           0       -1.939197    2.147029    0.193704
      8          6           0       -3.846034   -1.198995   -0.342204
      9          1           0       -1.960989   -2.159257    0.099526
     10          6           0       -4.521983    0.020327   -0.482092
     11          1           0       -4.355333    2.171884   -0.395068
     12          1           0       -4.376675   -2.134493   -0.490007
     13          1           0       -5.575803    0.031368   -0.739334
     14          6           0        2.233027   -0.036002    1.118218
     15          6           0        3.088940    0.001152   -0.157707
     16          1           0        2.461784   -0.934935    1.708274
     17          1           0        2.453841    0.832504    1.754990
     18          1           0        2.850801   -0.867293   -0.788223
     19          1           0        2.842974    0.899077   -0.742258
     20          6           0        4.611691    0.000251    0.137651
     21          1           0        4.854874    0.872272    0.755105
     22          1           0        4.862647   -0.900414    0.709193
     23          6           0        5.460439    0.037442   -1.158627
     24          1           0        5.233935    0.938383   -1.736136
     25          1           0        6.530432    0.036131   -0.931380
     26          1           0        5.241418   -0.834404   -1.781825
 ---------------------------------------------------------------------
 Rotational constants (GHZ):      3.1348957      0.2663887      0.2621677
 Standard basis: 6-31G (6D, 7F)
 There are   136 symmetry adapted cartesian basis functions of A   symmetry.
 There are   136 symmetry adapted basis functions of A   symmetry.
   136 basis functions,   320 primitive gaussians,   136 cartesian basis functions
    43 alpha electrons       43 beta electrons
       nuclear repulsion energy       577.6395602731 Hartrees.
 NAtoms=   26 NActive=   26 NUniq=   26 SFac= 1.00D+00 NAtFMM=   60 NAOKFM=F Big=F
 Integral buffers will be    131072 words long.
 Raffenetti 2 integral format.
 Two-electron integral symmetry is turned on.
 Nuclear repulsion after empirical dispersion term =      577.6234483305 Hartrees.
 One-electron integrals computed using PRISM.
 NBasis=   136 RedAO= T EigKep=  1.94D-04  NBF=   136
 NBsUse=   136 1.00D-06 EigRej= -1.00D+00 NBFU=   136
 Initial guess from the checkpoint file:  "D:\User Dont delete\Downloads\molecule_34.chk"
 B after Tr=     0.000000    0.000000    0.000000
         Rot=    0.999972   -0.007383    0.001369    0.000220 Ang=  -0.86 deg.
 ExpMin= 1.61D-01 ExpMax= 3.05D+03 ExpMxC= 4.57D+02 IAcc=1 IRadAn=         1 AccDes= 0.00D+00
 Harris functional with IExCor=  402 and IRadAn=       1 diagonalized for initial guess.
 HarFok:  IExCor=  402 AccDes= 0.00D+00 IRadAn=         1 IDoV= 1 UseB2=F ITyADJ=14
 ICtDFT=  3500011 ScaDFX=  1.000000  1.000000  1.000000  1.000000
 FoFCou: FMM=F IPFlag=           0 FMFlag=      100000 FMFlg1=           0
         NFxFlg=           0 DoJE=T BraDBF=F KetDBF=T FulRan=T
         wScrn=  0.000000 ICntrl=     500 IOpCl=  0 I1Cent=   200000004 NGrid=           0
         NMat0=    1 NMatS0=      1 NMatT0=    0 NMatD0=    1 NMtDS0=    0 NMtDT0=    0
 Petite list used in FoFCou.
 Keep R1 ints in memory in canonical form, NReq=44760116.
 Requested convergence on RMS density matrix=1.00D-08 within 128 cycles.
 Requested convergence on MAX density matrix=1.00D-06.
 Requested convergence on             energy=1.00D-06.
 No special actions if energy rises.
 Integral accuracy reduced to 1.0D-05 until final iterations.
 Initial convergence to 1.0D-05 achieved.  Increase integral accuracy.
 SCF Done:  E(RB3LYP) =  -465.571051162     A.U. after   13 cycles
            NFock= 13  Conv=0.68D-08     -V/T= 2.0060
 Calling FoFJK, ICntrl=      2127 FMM=F ISym2X=0 I1Cent= 0 IOpClX= 0 NMat=1 NMatS=1 NMatT=0.
 ***** Axes restored to original set *****
 -------------------------------------------------------------------
 Center     Atomic                   Forces (Hartrees/Bohr)
 Number     Number              X              Y              Z
 -------------------------------------------------------------------
      1        6          -0.007333412   -0.004192023    0.000602400
      2        6           0.006895909   -0.000013495   -0.000071361
      3        6          -0.019409984    0.003772147    0.000007354
      4        6           0.007727251   -0.001786534    0.002066550
      5        6           0.008053448   -0.001807206   -0.002456266
      6        6          -0.001006431    0.000358856    0.000417074
      7        1          -0.000440134    0.000117559   -0.000519995
      8        6          -0.001206821    0.000391540   -0.000282902
      9        1          -0.000462179    0.000106112    0.000603999
     10        6          -0.000509670   -0.000188513    0.000043657
     11        1           0.000036250    0.000094300   -0.000093571
     12        1           0.000036416    0.000095782    0.000067148
     13        1           0.000408846   -0.000032931    0.000000542
     14        6           0.016228972    0.006999465   -0.000452124
     15        6          -0.009226995   -0.006135549    0.000050002
     16        1          -0.003680450   -0.000729408    0.000691896
     17        1          -0.003579945   -0.000775846   -0.000630433
     18        1           0.001319254    0.000746673    0.000960455
     19        1           0.001325487    0.000732710   -0.000965655
     20        6           0.005510017   -0.007428182    0.000042919
     21        1          -0.001728733    0.002424712    0.000429862
     22        1          -0.001730733    0.002441641   -0.000443674
     23        6           0.003234886    0.008566716   -0.000088872
     24        1           0.000325373   -0.001802689    0.001134361
     25        1          -0.001116948   -0.000169193    0.000002797
     26        1           0.000330325   -0.001786643   -0.001116163
 -------------------------------------------------------------------
 Cartesian Forces:  Max     0.019409984 RMS     0.004120626

 GradGradGradGradGradGradGradGradGradGradGradGradGradGradGradGradGradGrad
 Berny optimization.
 Using GEDIIS/GDIIS optimizer.
 FormGI is forming the generalized inverse of G from B-inverse, IUseBI=4.
 Internal  Forces:  Max     0.007289984 RMS     0.001699214
 Search for a local minimum.
 Step number   2 out of a maximum of  139
 All quantities printed in internal units (Hartrees-Bohrs-Radians)
 Mixed Optimization -- RFO/linear search
 Update second derivatives using D2CorX and points    1    2
 DE= -1.57D-02 DEPred=-1.53D-02 R= 1.02D+00
 TightC=F SS=  1.41D+00  RLast= 3.17D-01 DXNew= 5.0454D-01 9.5223D-01
 Trust test= 1.02D+00 RLast= 3.17D-01 DXMaxT set to 5.05D-01
 ITU=  1  0
 Use linear search instead of GDIIS.
     Eigenvalues ---    0.00230   0.00230   0.00230   0.00236   0.00237
     Eigenvalues ---    0.00237   0.00242   0.00763   0.01591   0.02116
     Eigenvalues ---    0.02117   0.02119   0.02122   0.02124   0.02126
     Eigenvalues ---    0.02128   0.02132   0.03525   0.03635   0.04354
     Eigenvalues ---    0.04790   0.04974   0.05455   0.05551   0.05568
     Eigenvalues ---    0.08150   0.08366   0.09483   0.12082   0.12253
     Eigenvalues ---    0.12917   0.15907   0.15999   0.15999   0.16000
     Eigenvalues ---    0.16000   0.16000   0.16000   0.16047   0.21902
     Eigenvalues ---    0.21932   0.21997   0.21998   0.22331   0.22768
     Eigenvalues ---    0.24990   0.26175   0.28487   0.28519   0.30093
     Eigenvalues ---    0.31839   0.31852   0.31855   0.32142   0.32665
     Eigenvalues ---    0.34338   0.34405   0.34441   0.34527   0.36996
     Eigenvalues ---    0.37230   0.37230   0.37230   0.37256   0.37396
     Eigenvalues ---    0.41768   0.42491   0.45915   0.45993   0.46077
     Eigenvalues ---    0.46144   1.05558
 RFO step:  Lambda=-3.59052455D-03 EMin= 2.29997929D-03
 Quartic linear search produced a step of  0.09691.
 Maximum step size (   0.505) exceeded in Quadratic search.
    -- Step size scaled by   0.967
 Iteration  1 RMS(Cart)=  0.19822061 RMS(Int)=  0.02532540
 Iteration  2 RMS(Cart)=  0.13073131 RMS(Int)=  0.00664924
 Iteration  3 RMS(Cart)=  0.02848691 RMS(Int)=  0.00333106
 Iteration  4 RMS(Cart)=  0.00112824 RMS(Int)=  0.00332639
 Iteration  5 RMS(Cart)=  0.00002946 RMS(Int)=  0.00332638
 Iteration  6 RMS(Cart)=  0.00000101 RMS(Int)=  0.00332638
 Iteration  7 RMS(Cart)=  0.00000003 RMS(Int)=  0.00332638
 Variable       Old X    -DE/DX   Delta X   Delta X   Delta X     New X
                                 (Linear)    (Quad)   (Total)
    R1        2.30043   0.00007   0.00333   0.00213   0.00531   2.30574
    R2        2.79988  -0.00729  -0.01069  -0.03193  -0.04245   2.75743
    R3        2.72669  -0.00680  -0.01802  -0.03364  -0.05181   2.67488
    R4        2.65469   0.00508   0.00125   0.01280   0.01413   2.66881
    R5        2.65389   0.00536   0.00151   0.01350   0.01509   2.66898
    R6        2.64338  -0.00107   0.00015  -0.00238  -0.00223   2.64115
    R7        2.04948  -0.00022  -0.00156  -0.00147  -0.00303   2.04645
    R8        2.64391  -0.00119   0.00015  -0.00265  -0.00250   2.64141
    R9        2.04970  -0.00029  -0.00176  -0.00178  -0.00355   2.04615
   R10        2.64810  -0.00042   0.00078  -0.00098  -0.00028   2.64782
   R11        2.05164  -0.00007  -0.00145  -0.00093  -0.00239   2.04925
   R12        2.64779  -0.00034   0.00077  -0.00080  -0.00011   2.64768
   R13        2.05153  -0.00004  -0.00144  -0.00085  -0.00229   2.04925
   R14        2.05001   0.00041   0.00283   0.00262   0.00545   2.05546
   R15        2.90425   0.00287   0.00671   0.01267   0.01993   2.92418
   R16        2.07748   0.00028  -0.00326  -0.00069  -0.00395   2.07352
   R17        2.07744   0.00024  -0.00326  -0.00081  -0.00407   2.07337
   R18        2.07737  -0.00070  -0.00327  -0.00394  -0.00721   2.07016
   R19        2.07738  -0.00069  -0.00327  -0.00389  -0.00778   2.06960
   R20        2.93121  -0.00488   0.00204  -0.01703  -0.01499   2.91622
   R21        2.07079   0.00210   0.00473   0.00840   0.01313   2.08392
   R22        2.07081   0.00211   0.00473   0.00843   0.01316   2.08397
   R23        2.92883  -0.00548   0.00181  -0.01934  -0.01754   2.91129
   R24        2.06708   0.00191   0.00437   0.00766   0.01203   2.07911
   R25        2.06709   0.00112   0.00437   0.00543   0.00980   2.07689
   R26        2.06704   0.00189   0.00436   0.00760   0.01197   2.07900
    A1        2.09346   0.00246   0.00004   0.01008   0.00972   2.10318
    A2        2.09353   0.00267   0.00018   0.01103   0.01086   2.10439
    A3        2.09586  -0.00510  -0.00019  -0.01986  -0.02051   2.07536
    A4        2.09024   0.00210  -0.00012   0.01045   0.01042   2.10066
    A5        2.09036  -0.00171  -0.00056  -0.00967  -0.01031   2.08004
    A6        2.10255  -0.00039   0.00069  -0.00068  -0.00007   2.10248
    A7        2.09076   0.00198  -0.00024   0.00985   0.00970   2.10046
    A8        2.09069  -0.00171  -0.00054  -0.00976  -0.01038   2.08032
    A9        2.10169  -0.00027   0.00080   0.00001   0.00072   2.10241
   A10        2.09899   0.00038   0.00054   0.00062   0.00112   2.10011
   A11        2.08950  -0.00011  -0.00044   0.00015  -0.00027   2.08922
   A12        2.09469  -0.00027  -0.00010  -0.00077  -0.00085   2.09385
   A13        2.09848   0.00047   0.00061   0.00116   0.00172   2.10020
   A14        2.08974  -0.00017  -0.00050  -0.00022  -0.00070   2.08904
   A15        2.09496  -0.00030  -0.00011  -0.00093  -0.00102   2.09394
   A16        2.09187   0.00018  -0.00056  -0.00168  -0.00237   2.08950
   A17        2.09557  -0.00009   0.00027   0.00086   0.00119   2.09675
   A18        2.09575  -0.00009   0.00029   0.00083   0.00118   2.09693
   A19        1.97200  -0.00122   0.00385  -0.00143   0.00176   1.97377
   A20        1.88154   0.00286  -0.00065   0.03058   0.02888   1.91042
   A21        1.88190   0.00276  -0.00062   0.02812   0.02478   1.90668
   A22        1.92781  -0.00185  -0.00046  -0.02201  -0.00647   1.92135
   A23        1.92829  -0.00201  -0.00042  -0.02452  -0.02952   1.89877
   A24        1.86849  -0.00031  -0.00192  -0.00896  -0.01992   1.84856
   A25        1.91393  -0.00015  -0.00177  -0.00778  -0.00976   1.90417
   A26        1.91410  -0.00014  -0.00176  -0.00756  -0.00874   1.90536
   A27        1.96994  -0.00228   0.00361  -0.00947  -0.00608   1.96387
   A28        1.86693  -0.00070  -0.00208  -0.00346  -0.00619   1.86074
   A29        1.89803   0.00168   0.00093   0.01440   0.01547   1.91349
   A30        1.89798   0.00168   0.00093   0.01447   0.01534   1.91332
   A31        1.90148   0.00069  -0.00089   0.00509   0.00414   1.90562
   A32        1.90140   0.00068  -0.00090   0.00486   0.00391   1.90531
   A33        1.95879  -0.00135   0.00467  -0.00092   0.00368   1.96247
   A34        1.88530  -0.00138  -0.00245  -0.01971  -0.02216   1.86314
   A35        1.90779   0.00068  -0.00028   0.00502   0.00471   1.91249
   A36        1.90767   0.00067  -0.00029   0.00479   0.00447   1.91213
   A37        1.92617   0.00115   0.00151   0.00810   0.00955   1.93572
   A38        1.94109  -0.00020   0.00295  -0.00063   0.00228   1.94338
   A39        1.92596   0.00112   0.00148   0.00786   0.00929   1.93525
   A40        1.88938  -0.00051  -0.00206  -0.00421  -0.00631   1.88307
   A41        1.89044  -0.00114  -0.00196  -0.00763  -0.00964   1.88080
[...]
 91475,0.10877131,0.23516633,0.00124318,-0.00046298,0.00104188,-0.00018
 379,0.00020931,-0.00018241,-0.00010149,-0.00001667,-0.00002657,0.00002
 446,0.00000596,-0.00000345,0.00004956,0.00001151,0.00002342,-0.0000100
 0,0.00001046,-0.00002138,-0.00000298,-0.00000932,-0.00000722,-0.000007
 44,-0.00001076,0.00000937,-0.00000081,0.00000127,-0.00000315,0.0000272
 5,-0.00000066,-0.00000026,0.00000660,-0.00000118,0.00000622,0.00000757
 ,-0.00000083,-0.00000614,0.00000597,0.00000040,-0.00000085,0.00288142,
 -0.00869300,0.01050130,-0.07671672,0.04216362,-0.06826267,-0.00063666,
 -0.00271877,-0.00005087,0.00009378,0.00079742,-0.00026016,0.00377540,-
 0.00503422,0.00976358,0.08898612,0.00190358,0.00068370,-0.00000874,-0.
 00096274,0.00026047,-0.00016211,0.00009531,-0.00003829,-0.00000974,-0.
 00005266,0.00000085,0.00003109,-0.00001222,0.00002493,0.00003384,0.000
 00497,0.00000807,-0.00002627,-0.00000873,-0.00001617,-0.00001831,0.000
 00897,-0.00000384,-0.00000240,0.00000312,-0.00000712,-0.00001345,-0.00
 000179,-0.00000065,-0.00000273,-0.00000426,-0.00000144,0.00000025,0.00
 000329,-0.00000229,-0.00000278,0.00000269,-0.00000042,-0.00000277,0.00
 812717,-0.01962874,0.02686353,0.04137904,-0.10696887,0.09673103,-0.002
 47024,-0.00533167,-0.00033781,0.00070645,0.00093382,-0.00012567,-0.005
 03599,0.00795591,-0.01407622,-0.04291092,0.12115566,0.00013707,-0.0000
 5179,0.00034497,0.00045513,-0.00008278,-0.00004013,-0.00005469,0.00000
 691,-0.00000248,0.00004479,-0.00002209,-0.00001832,0.00002285,-0.00002
 241,-0.00002901,0.00000567,-0.00000958,0.00000967,-0.00000061,0.000025
 02,0.00001586,-0.00000170,0.00000263,0.00000862,-0.00000952,0.00000672
 ,0.00001035,0.00001848,-0.00000252,0.00000383,0.00000688,0.00000545,0.
 00000380,0.00000038,0.00000406,-0.00000111,0.00000140,0.00000231,0.000
 00197,-0.00063023,-0.00160175,0.00046909,-0.06770109,0.09792235,-0.218
 60085,0.00007259,-0.00065969,0.00149001,0.00022212,0.00031256,0.000916
 28,-0.00974807,0.01404969,-0.02323100,0.07588794,-0.10869917,0.2354010
 4,-0.00122972,-0.00076130,0.00000001,0.00111220,-0.00008684,0.00000022
 ,-0.00041810,-0.00008847,-0.00000002,0.00011350,0.00000928,0.00004164,
 0.00011352,0.00000924,-0.00004163,-0.00003896,0.00000599,-0.00002372,-
 0.00000901,-0.00000665,-0.00000848,-0.00003897,0.00000604,0.00002370,-
 0.00000902,-0.00000664,0.00000849,0.00007475,-0.00000204,0.,0.00001202
 ,-0.00000162,0.00001345,0.00001202,-0.00000164,-0.00001344,0.00001379,
 -0.00000072,0.,-0.01681016,-0.00362208,-0.00000159,-0.17698938,0.00743
 699,-0.00002292,0.00098042,0.00137396,0.00001437,0.00098125,0.00137449
 ,-0.00001490,-0.01567346,-0.00034885,-0.00161958,-0.01566197,-0.000347
 66,0.00161389,0.47163113,-0.00223634,-0.00635108,0.00000240,-0.0017469
 1,0.00041066,-0.00000054,0.00056351,0.00034640,-0.00000003,-0.00024094
 ,0.00002045,0.00004279,-0.00024099,0.00002041,-0.00004295,0.00004716,-
 0.00002636,0.00007075,0.00002302,-0.00000362,0.00000096,0.00004716,-0.
 00002652,-0.00007068,0.00002301,-0.00000362,-0.00000092,-0.00016342,0.
 00000650,-0.00000002,-0.00003621,-0.00000288,-0.00003226,-0.00003623,-
 0.00000283,0.00003225,-0.00002681,0.00000356,0.,-0.03556616,-0.0032075
 3,-0.00000555,0.00861764,-0.08062767,0.00000074,-0.00075798,0.00094653
 ,-0.00017025,-0.00075791,0.00094668,0.00016932,0.01642840,-0.00036564,
 -0.00006443,0.01640535,-0.00036435,0.00007133,-0.03587111,0.51450741,0
 .00000055,0.00000258,0.00049007,0.00000090,-0.00000013,0.00005671,-0.0
 0000030,-0.00000016,0.00000407,0.00000463,0.00001743,-0.00000631,-0.00
 000437,-0.00001745,-0.00000628,0.00000312,-0.00003483,0.00000370,0.000
 00337,0.00002070,0.00000727,-0.00000316,0.00003486,0.00000366,-0.00000
 341,-0.00002070,0.00000732,0.00000006,0.,0.00000031,-0.00000155,0.0000
 0036,-0.00000052,0.00000159,-0.00000036,-0.00000055,0.00000002,0.,0.00
 000093,0.00000991,0.00000088,0.00013077,-0.00002329,0.00000067,-0.0838
 1558,0.00120739,0.00078502,-0.00014151,-0.00120563,-0.00078509,-0.0001
 4140,0.02957555,-0.00072816,0.00010843,-0.02959568,0.00072840,0.000096
 38,-0.00000660,0.00002765,0.59308568,0.00030841,0.00002027,-0.00053316
 ,0.00016689,-0.00004163,0.00000671,0.00004272,0.00000337,0.00002674,-0
 .00000337,-0.00000856,0.00000897,0.00000002,-0.00000911,0.00001511,0.0
 0000570,0.00000362,0.00000542,-0.00000203,0.00000322,-0.00000477,0.000
 00752,-0.00000604,-0.00001405,0.00000165,0.00001114,-0.00000797,-0.000
 00929,-0.00000048,-0.00000128,-0.00000214,0.00000135,-0.00000277,0.000
 00113,0.00000198,0.00000108,-0.00000194,0.00000070,-0.00000111,0.00086
 947,0.00122700,0.00090031,-0.01616090,0.01698850,0.03030185,-0.0000294
 4,-0.00004026,-0.00006128,-0.00017133,-0.00116801,-0.00068179,-0.00650
 668,-0.00028853,-0.00049641,0.00121631,0.00024661,-0.00042797,-0.07506
 256,0.04054490,0.06439320,0.08746150,0.00000147,-0.00001840,0.00016429
 ,0.00009448,-0.00000090,-0.00001627,-0.00002848,-0.00000707,-0.0000088
 0,0.00001100,0.00000106,-0.00000908,0.00000823,0.00000121,-0.00000265,
 -0.00000345,0.00000112,-0.00000440,-0.00000049,-0.00000025,0.00000220,
 -0.00000353,0.00000137,0.00000773,-0.00000067,-0.00000310,0.00000316,0
 .00000938,0.00000064,0.00000097,0.00000339,-0.00000048,0.00000257,0.00
 000029,-0.00000103,-0.00000099,0.00000154,-0.00000074,0.00000035,-0.00
 060821,0.00081751,0.00072209,-0.00032638,-0.00060208,-0.00100393,0.000
 01845,-0.00000938,0.00010231,0.00005265,0.00037323,-0.00011971,-0.0001
 6059,0.00049711,0.00018045,0.00027803,-0.00025718,-0.00010033,0.040632
 52,-0.10824883,-0.09628556,-0.04192944,0.12171541,-0.00012477,0.000394
 58,0.00022605,-0.00001225,-0.00004253,-0.00001317,-0.00001893,-0.00002
 393,-0.00001848,0.00000129,0.00000525,-0.00000264,0.00000185,0.0000094
 1,-0.00000998,-0.00000371,0.00000772,-0.00000609,0.00000005,-0.0000083
 7,0.00000218,-0.00000382,0.00000070,0.00000950,-0.00000103,-0.00000611
 ,0.00000363,0.00000693,0.00000071,0.00000086,0.00000166,-0.00000207,0.
 00000260,-0.00000106,-0.00000222,-0.00000112,0.00000196,-0.00000163,0.
 00000045,0.00001285,0.00010306,0.00001687,-0.00123561,-0.00034345,-0.0
 0027099,0.00004271,-0.00016515,-0.00005972,0.00050088,0.00066088,0.000
 34442,-0.00036909,0.00018362,0.00171612,0.00039969,0.00013358,0.000970
 38,0.06481752,-0.09678010,-0.21390354,-0.07275074,0.10850039,0.2314957
 0,0.00030816,0.00002087,0.00053318,0.00016687,-0.00004164,-0.00000659,
 0.00004275,0.00000333,-0.00002674,0.,-0.00000913,-0.00001507,-0.000003
 37,-0.00000858,-0.00000895,0.00000752,-0.00000601,0.00001405,0.0000016
 4,0.00001115,0.00000794,0.00000571,0.00000361,-0.00000543,-0.00000203,
 0.00000323,0.00000475,-0.00000929,-0.00000047,0.00000127,0.00000112,0.
 00000198,-0.00000108,-0.00000214,0.00000135,0.00000276,-0.00000194,0.0
 0000070,0.00000110,0.00086953,0.00122631,-0.00090088,-0.01614829,0.016
 96354,-0.03032296,-0.00017145,-0.00116692,0.00068217,-0.00002958,-0.00
 004057,0.00006130,0.00121623,0.00024681,0.00042781,-0.00650701,-0.0002
 8817,0.00049315,-0.07501246,0.04045114,-0.06437345,0.00370997,-0.00516
 639,0.00948557,0.08740476,0.00000168,-0.00001883,-0.00016409,0.0000944
 7,-0.00000085,0.00001630,-0.00002847,-0.00000704,0.00000878,0.00000823
 ,0.00000121,0.00000264,0.00001100,0.00000107,0.00000909,-0.00000353,0.
 00000135,-0.00000772,-0.00000067,-0.00000310,-0.00000316,-0.00000344,0
 .00000113,0.00000439,-0.00000049,-0.00000025,-0.00000220,0.00000937,0.
 00000063,-0.00000097,0.00000029,-0.00000103,0.00000099,0.00000339,-0.0
 0000049,-0.00000256,0.00000153,-0.00000074,-0.00000034,-0.00060985,0.0
 0081632,-0.00072322,-0.00032498,-0.00060137,0.00100404,0.00005384,0.00
 037413,0.00011879,0.00001848,-0.00000946,-0.00010222,0.00027805,-0.000
 25725,0.00010150,-0.00016008,0.00049674,-0.00017944,0.04053732,-0.1080
 7724,0.09621053,-0.00516839,0.00795742,-0.01410768,-0.04182330,0.12152
 563,0.00012481,-0.00039437,0.00022678,0.00001225,0.00004249,-0.0000132
 1,0.00001898,0.00002392,-0.00001852,-0.00000186,-0.00000944,-0.0000099
 7,-0.00000130,-0.00000526,-0.00000264,0.00000382,-0.00000068,0.0000095
 1,0.00000103,0.00000612,0.00000362,0.00000371,-0.00000774,-0.00000608,
 -0.00000005,0.00000838,0.00000216,-0.00000693,-0.00000071,0.00000086,0
 .00000106,0.00000222,-0.00000113,-0.00000166,0.00000208,0.00000260,-0.
 00000196,0.00000163,0.00000045,-0.00001068,-0.00010263,0.00001728,0.00
 123023,0.00035038,-0.00028370,-0.00050230,-0.00066236,0.00034552,-0.00
 004287,0.00016490,-0.00005980,-0.00039980,-0.00013241,0.00097055,0.000
 36585,-0.00018280,0.00171685,-0.06479902,0.09670809,-0.21412414,-0.009
 46934,0.01407904,-0.02365893,0.07272950,-0.10842438,0.23174168,0.00006
 405,-0.00193670,0.00000071,-0.00070072,0.00014461,-0.00000020,0.000350
 31,0.00011214,0.00000002,-0.00012207,0.00000409,0.00001106,-0.00012208
 ,0.00000408,-0.00001111,0.00002701,-0.00000817,0.00003599,0.00001378,0
 .00000035,0.00000443,0.00002702,-0.00000825,-0.00003597,0.00001378,0.0
 0000035,-0.00000442,-0.00008580,0.00000404,-0.00000001,-0.00001896,-0.
 00000138,-0.00001723,-0.00001897,-0.00000135,0.00001723,-0.00001572,0.
 00000028,0.,-0.00631694,0.00104071,-0.00000161,-0.01836660,-0.03666596
 ,0.00000960,0.00001979,0.00007255,0.00031448,0.00001993,0.00007211,-0.
 00031467,0.00131664,-0.00053993,-0.00000741,0.00131769,-0.00054084,0.0
 0001014,-0.09323960,-0.03220632,0.00001096,0.00399582,0.00925429,0.000
 27274,0.00399141,0.00924272,-0.00027918,0.56698214,0.00018650,0.000657
 49,0.,0.00032526,-0.00009404,0.00000009,-0.00018884,-0.00004289,-0.000
 00003,0.00006839,-0.00000378,-0.00000583,0.00006841,-0.00000378,0.0000
 0587,-0.00001242,0.00000167,-0.00001608,-0.00000942,0.00000266,-0.0000
 0438,-0.00001242,0.00000170,0.00001607,-0.00000943,0.00000266,0.000004
 36,0.00004569,-0.00000240,0.,0.00001153,0.00000165,0.00000960,0.000011
 53,0.00000163,-0.00000961,0.00000940,0.00000070,0.,0.00184866,0.000717
 26,-0.00000016,-0.00545030,-0.00265998,0.00000016,-0.00005962,-0.00003
 232,-0.00012057,-0.00005971,-0.00003190,0.00012080,0.00119943,0.000788
 07,0.00018545,0.00119875,0.00078662,-0.00018514,-0.03373594,-0.1727482
 0,0.00002476,-0.00858153,-0.01871020,0.00161898,-0.00857201,-0.0186914
 1,-0.00160612,-0.03507388,0.48241824,-0.00000019,-0.00000045,0.0005772
 9,-0.00000027,0.00000005,-0.00005404,0.00000016,0.00000003,-0.00003079
 ,-0.00001098,0.00000398,0.00000970,0.00001088,-0.00000395,0.00000971,-
 0.00000064,0.00000124,-0.00000405,0.00000050,-0.00000546,-0.00000430,0
 .00000066,-0.00000125,-0.00000408,-0.00000048,0.00000545,-0.00000431,-
 0.00000004,0.,-0.00000141,-0.00000287,-0.00000137,-0.00000133,0.000002
 85,0.00000136,-0.00000131,0.,0.,-0.00000026,-0.00000203,-0.00000033,-0
 .00056614,-0.00000185,-0.00000600,0.00055008,0.00004517,-0.00034781,0.
 00028712,-0.00004522,0.00034810,0.00028657,0.00082423,0.00084980,0.000
 01243,-0.00082460,-0.00085077,0.00001315,0.00001327,0.00002703,-0.0824
 8582,-0.01123172,-0.02711271,0.00067860,0.01124089,0.02713613,0.000661
 68,0.00001894,0.00003734,0.57097471,-0.00006893,0.00010948,-0.00005286
 ,0.00004542,-0.00001202,0.00000225,-0.00005581,-0.00000505,0.00000279,
 0.00001913,0.00000316,-0.00000230,0.00001757,0.00000243,0.00000208,-0.
 00000462,0.00000142,-0.00000721,-0.00000383,-0.00000297,-0.00000338,-0
 .00000380,0.00000074,0.00000685,-0.00000316,-0.00000206,0.00000299,0.0
 0001121,-0.00000002,0.00000009,0.00000391,-0.00000060,0.00000390,0.000
 00319,-0.00000055,-0.00000352,0.00000436,-0.00000035,-0.00000014,0.000
 09359,-0.00006192,0.00000539,0.00113886,-0.00056189,0.00134852,-0.0000
 8372,0.00010276,-0.00010560,0.00001530,0.00003185,0.00002485,-0.000067
 75,-0.00001402,0.00003468,-0.00011651,0.00005618,-0.00043553,0.0031223
 9,-0.00782815,0.01094528,0.00015821,0.00087399,-0.00011861,-0.00042241
 ,-0.00269486,0.00020883,-0.07457147,0.03962984,-0.06393613,0.07773507,
 -0.00007932,0.00006922,-0.00012744,-0.00004374,-0.00000932,0.00000758,
 0.00002007,-0.00000419,0.00000692,-0.00001252,0.00000363,0.00001109,-0
 .00000857,0.00000135,0.00000098,0.,0.00000160,-0.00000232,0.00000138,-
 0.00000376,-0.00000185,0.00000008,0.00000058,-0.00000172,0.00000205,-0
 .00000146,-0.00000357,-0.00000356,0.00000033,-0.00000071,-0.00000340,-
 0.00000091,-0.00000159,-0.00000066,-0.00000045,0.00000022,-0.00000092,
 -0.00000047,-0.00000039,0.00009565,0.00005713,-0.00025794,0.00152852,0
 .00087440,0.00062885,0.00008893,0.00030013,-0.00016994,0.00004617,-0.0
 0004975,0.00002562,-0.00007486,0.00000311,-0.00011727,-0.00110874,0.00
 031660,-0.00058996,0.00928012,-0.01856350,0.02793729,0.00073056,0.0008
 1192,-0.00034390,-0.00298567,-0.00547545,-0.00063588,0.03926863,-0.111
 65789,0.10285514,-0.04129194,0.12556728,0.00003207,0.00009973,-0.00000
 193,0.00005129,-0.00001584,0.00000457,-0.00003009,-0.00000085,-0.00000
 046,0.00001451,-0.00000628,-0.00000558,0.00000908,-0.00000406,-0.00000
 450,0.00000003,-0.00000311,0.00000037,-0.00000268,0.00000630,0.0000016
 8,-0.00000001,-0.00000099,0.00000287,-0.00000250,0.00000271,0.00000274
 ,0.00000736,-0.00000175,0.00000070,0.00000351,0.00000249,0.00000242,0.
 00000079,0.00000170,-0.00000104,0.00000176,0.00000151,0.00000021,0.000
 27583,-0.00017306,0.00026697,-0.00004776,-0.00014355,-0.00006337,-0.00
 010140,-0.00016940,-0.00001543,-0.00001533,-0.00002251,-0.00001428,-0.
 00006677,0.00009537,-0.00004354,0.00071952,0.00019821,0.00026337,-0.00
 044761,-0.00150994,0.00065598,0.00030459,0.00035263,0.00091394,-0.0001
 2927,-0.00054463,0.00160567,-0.06362017,0.10341795,-0.22053326,0.07147
 950,-0.11549597,0.23925569,-0.00006217,-0.00034496,0.00000014,-0.00013
 548,0.00001867,-0.00000005,0.00014942,0.00001887,0.00000002,-0.0000559
 8,-0.00000376,0.00001505,-0.00005597,-0.00000378,-0.00001506,0.0000071
 9,-0.00000259,0.00002042,0.00001181,0.00000434,0.00000851,0.00000720,-
 0.00000263,-0.00002042,0.00001181,0.00000433,-0.00000852,-0.00003353,0
 .00000022,0.,-0.00001161,0.00000106,-0.00001130,-0.00001161,0.00000108
 ,0.00001129,-0.00001299,0.00000090,0.,-0.00057528,0.00051184,-0.000000
 44,0.00097234,-0.00327640,0.00000147,-0.00002033,-0.00004883,0.0000526
 7,-0.00002032,-0.00004891,-0.00005264,0.00037812,0.00011278,-0.0000517
 7,0.00037796,0.00011288,0.00005178,-0.01109943,0.00239986,-0.00000303,
 0.00042676,-0.00031670,-0.00069872,0.00042613,-0.00031630,0.00069927,-
 0.30993340,0.00743981,-0.00006081,-0.01008295,0.00001771,0.00128465,0.
 33943778,-0.00009764,-0.00061828,0.00000025,-0.00024485,0.00003120,-0.
 00000007,0.00014059,0.00003763,0.00000001,-0.00005209,0.00000226,0.000
 00813,-0.00005210,0.00000226,-0.00000816,0.00000864,-0.00000227,0.0000
 1415,0.00000744,-0.00000076,0.00000288,0.00000864,-0.00000230,-0.00001
 414,0.00000744,-0.00000076,-0.00000288,-0.00003445,0.00000148,0.,-0.00
 000891,-0.00000070,-0.00000770,-0.00000891,-0.00000069,0.00000770,-0.0
 0000741,-0.00000003,0.,-0.00189449,0.00034218,-0.00000033,-0.00028281,
 -0.00636336,0.00000269,0.00003607,0.00008613,0.00007617,0.00003612,0.0
 0008611,-0.00007624,0.00012052,-0.00000502,0.00031979,0.00012105,-0.00
 000536,-0.00031955,-0.03507593,-0.00000932,-0.00000771,0.00044455,0.00
 115619,-0.00043246,0.00044472,0.00115673,0.00043151,0.00839814,-0.0488
 4350,0.00000146,0.01712855,-0.00065568,-0.00064038,-0.00629671,0.05426
 147,0.00000003,0.00000020,0.00001623,0.00000008,-0.00000001,-0.0000053
 2,-0.00000003,-0.00000001,-0.00000050,-0.00000013,-0.00000096,-0.00000
 053,0.00000015,0.00000095,-0.00000054,0.00000048,-0.00000107,0.0000003
 8,0.00000020,0.00000128,0.00000042,-0.00000048,0.00000107,0.00000038,-
 0.00000021,-0.00000128,0.00000042,0.,0.,0.00000002,-0.00000013,0.00000
 021,-0.00000008,0.00000013,-0.00000021,-0.00000008,0.,0.,0.00000015,0.
 00000060,0.00000017,0.00050169,0.00000028,0.00000218,0.00020923,-0.000
 02300,-0.00007863,-0.00001274,0.00002297,0.00007853,-0.00001276,-0.000
 45996,0.00010296,0.00023036,0.00045991,-0.00010277,0.00023092,0.000013
 15,0.00000025,-0.00070083,-0.00041061,-0.00000328,-0.00004118,0.000410
 37,0.00000204,-0.00004086,-0.00006068,0.00000112,-0.05007502,-0.029139
 53,0.00085990,0.00015798,0.00006618,-0.00000324,0.04937221,-0.00006894
 ,0.00010956,0.00005273,0.00004544,-0.00001203,-0.00000222,-0.00005582,
 -0.00000506,-0.00000281,0.00001757,0.00000242,-0.00000208,0.00001914,0
 .00000316,0.00000230,-0.00000379,0.00000072,-0.00000685,-0.00000316,-0
 .00000206,-0.00000298,-0.00000463,0.00000144,0.00000721,-0.00000383,-0
 .00000296,0.00000339,0.00001121,-0.00000002,-0.00000009,0.00000319,-0.
 00000054,0.00000352,0.00000391,-0.00000061,-0.00000390,0.00000436,-0.0
 0000035,0.00000014,0.00009370,-0.00006196,-0.00000541,0.00113924,-0.00
 056207,-0.00134636,0.00001532,0.00003183,-0.00002487,-0.00008381,0.000
 10277,0.00010548,-0.00011592,0.00005486,0.00043396,-0.00006789,-0.0000
 1404,-0.00003484,0.00312582,-0.00783570,-0.01093607,-0.00042241,-0.002
 69538,-0.00020736,0.00015817,0.00087397,0.00011762,-0.07462704,0.03972
 233,0.06396029,0.00311674,-0.00546596,-0.00972090,-0.01009547,0.017153
 84,0.02912022,0.07779889,-0.00007940,0.00006924,0.00012735,-0.00004378
 ,-0.00000931,-0.00000760,0.00002011,-0.00000419,-0.00000690,-0.0000085
 8,0.00000135,-0.00000099,-0.00001253,0.00000361,-0.00001111,0.00000008
 ,0.00000058,0.00000172,0.00000205,-0.00000145,0.00000357,0.,0.00000161
 ,0.00000232,0.00000138,-0.00000376,0.00000186,-0.00000357,0.00000033,0
 .00000071,-0.00000066,-0.00000045,-0.00000022,-0.00000341,-0.00000091,
 0.00000159,-0.00000092,-0.00000047,0.00000039,0.00009531,0.00005753,0.
 00025820,0.00152888,0.00087475,-0.00062843,0.00004621,-0.00004972,-0.0
 0002558,0.00008894,0.00030041,0.00016970,-0.00110968,0.00031505,0.0005
 8823,-0.00007502,0.00000304,0.00011715,0.00929154,-0.01857940,-0.02791
 098,-0.00298580,-0.00547453,0.00064071,0.00073011,0.00081214,0.0003440
 3,0.03936368,-0.11185805,-0.10293702,-0.00546399,0.00841553,0.01455371
 ,0.00001722,-0.00065563,-0.00085941,-0.04139816,0.12578268,-0.00003203
 ,-0.00009975,-0.00000194,-0.00005124,0.00001585,0.00000453,0.00003006,
 0.00000085,-0.00000044,-0.00000906,0.00000405,-0.00000451,-0.00001450,
 0.00000627,-0.00000559,0.00000001,0.00000100,0.00000287,0.00000250,-0.
 00000270,0.00000274,-0.00000003,0.00000311,0.00000037,0.00000268,-0.00
 000630,0.00000169,-0.00000735,0.00000175,0.00000069,-0.00000079,-0.000
 00170,-0.00000104,-0.00000351,-0.00000249,0.00000242,-0.00000176,-0.00
 000151,0.00000021,-0.00027599,0.00017320,0.00026646,0.00004679,0.00014
 294,-0.00006294,0.00001530,0.00002257,-0.00001428,0.00010129,0.0001691
 6,-0.00001564,-0.00071881,-0.00019919,0.00026206,0.00006674,-0.0000954
 2,-0.00004363,0.00043977,0.00152411,0.00067519,0.00013097,0.00054950,0
 .00160454,-0.00030539,-0.00035261,0.00091376,0.06364637,-0.10349467,-0
 .22029491,0.00973682,-0.01458314,-0.02245177,-0.00128873,0.00064812,0.
 00017003,-0.07151012,0.11557700,0.23898912||0.00000738,0.00001120,0.00
 000262,-0.00001160,0.00000024,0.00000574,-0.00000504,-0.00000031,-0.00
 001641,0.00000866,-0.00000308,0.00000365,0.00000205,-0.00000412,0.0000
 0758,-0.00000582,-0.00000077,0.00000016,-0.00000305,-0.00000162,-0.000
 00016,-0.00000065,-0.00000164,0.00000493,-0.00000181,-0.00000126,0.000
 00009,0.00001090,-0.00000509,-0.00000367,0.00000090,-0.00000318,0.0000
 0042,0.00000059,-0.00000253,-0.00000103,-0.00000323,-0.00000328,-0.000
 00038,0.00001321,-0.00003694,-0.00000013,0.00001272,0.00003437,-0.0000
 0141,-0.00000483,0.00000396,-0.00000445,0.,0.00000337,0.00000172,-0.00
 000018,-0.00000012,-0.00000034,-0.00000236,-0.00000310,0.00000004,-0.0
 0001551,-0.00001818,0.00000277,0.00000085,0.00000569,-0.00000231,0.000
 00172,0.00000420,0.00000325,0.00000207,0.00002118,-0.00000149,-0.00000
 391,0.00000237,-0.00000429,0.00000158,-0.00000176,-0.00000061,-0.00000
 464,0.00000040,0.00000370|||@


 CHEMISTRY BEGAN BY SAYING IT WOULD CHANGE THE BASER
 METALS INTO GOLD.  BY NOT DOING THAT IT HAS DONE MUCH
 GREATER THINGS.  --  RALPH WALDO EMERSON
 Job cpu time:       0 days  0 hours  3 minutes 17.0 seconds.
 File lengths (MBytes):  RWF=     72 Int=      0 D2E=      0 Chk=      3 Scr=      1
 Normal termination of Gaussian 09 at Tue Sep 12 10:23:45 2023.
